 Gaussian 09, Revision E.01,
 Gaussian 09:  ES64L-G09RevE.01 30-Nov-2015

 -----
 #P G4
 -----

 --------
 Frag_445
 --------
 Symbolic Z-matrix:
 Charge =  0 Multiplicity = 1

 SCF Done:  E(RB3LYP) =  -247.280041404     A.U. after   14 cycles
 SCF Done:  E(RB3LYP) =  -247.292161899     A.U. after   13 cycles
 SCF Done:  E(RB3LYP) =  -247.293282686     A.U. after   13 cycles
 SCF Done:  E(RB3LYP) =  -247.292531786     A.U. after   13 cycles
 SCF Done:  E(RB3LYP) =  -247.293355868     A.U. after    8 cycles
 SCF Done:  E(RB3LYP) =  -247.293455736     A.U. after   12 cycles
 SCF Done:  E(RB3LYP) =  -247.293490750     A.U. after   10 cycles
 SCF Done:  E(RB3LYP) =  -247.293551940     A.U. after   10 cycles
 SCF Done:  E(RB3LYP) =  -247.293595177     A.U. after   11 cycles
 SCF Done:  E(RB3LYP) =  -247.293609335     A.U. after   12 cycles
 SCF Done:  E(RB3LYP) =  -247.293610867     A.U. after   10 cycles
 SCF Done:  E(RB3LYP) =  -247.293610951     A.U. after    8 cycles
 Optimization completed.
    -- Stationary point found.
 Normal termination of Gaussian 09 at Fri Aug 26 08:33:21 2022.

 ----------------------------------------------------------
 #P Geom=AllCheck Guess=TCheck SCRF=Check B3LYP/GTBas3 Freq
 ----------------------------------------------------------

 Structure from the checkpoint file:  "G4.Frag_445.chk"
 --------
 Frag_445
 --------
 Charge =  0 Multiplicity = 1

 SCF Done:  E(RB3LYP) =  -247.293610951     A.U. after    1 cycles

  Exact polarizability:  52.065   4.885  45.760  -0.001  -0.001  25.881
 Approx polarizability:  82.168  20.078  69.706  -0.001  -0.001  39.211

                      1                      2                      3
                      A                      A                      A
 Frequencies --     87.2881               164.9193               256.8702
 Red. masses --      1.0929                 2.7055                 3.9416
 Frc consts  --      0.0049                 0.0434                 0.1532
 IR Inten    --      1.8490                 5.5499                12.8518

                      4                      5                      6
                      A                      A                      A
 Frequencies --    460.6323               462.3054               606.9609
 Red. masses --      2.2254                 3.0908                 4.6748
 Frc consts  --      0.2782                 0.3892                 1.0147
 IR Inten    --      0.9599                18.0957                 5.3435

                      7                      8                      9
                      A                      A                      A
 Frequencies --    807.6655               846.5492              1021.1348
 Red. masses --      3.7070                 1.1508                 1.7306
 Frc consts  --      1.4247                 0.4859                 1.0632
 IR Inten    --     16.1727                26.6401                10.3837

                     10                     11                     12
                      A                      A                      A
 Frequencies --   1062.5899              1089.7364              1111.0283
 Red. masses --      1.4763                 1.7524                 1.6291
 Frc consts  --      0.9821                 1.2261                 1.1848
 IR Inten    --     20.7490                 9.6554                31.8039

                     13                     14                     15
                      A                      A                      A
 Frequencies --   1366.6469              1385.8925              1407.3579
 Red. masses --      1.3575                 1.4255                 1.5120
 Frc consts  --      1.4938                 1.6131                 1.7644
 IR Inten    --     30.3515                12.6955                36.5917

                     16                     17                     18
                      A                      A                      A
 Frequencies --   1462.3276              1471.2914              1715.7880
 Red. masses --      1.0454                 1.0773                 8.2600
 Frc consts  --      1.3171                 1.3739                14.3270
 IR Inten    --      6.4449                25.7206                25.4597

                     19                     20                     21
                      A                      A                      A
 Frequencies --   1814.9127              2941.8913              3043.3902
 Red. masses --     10.6291                 1.0872                 1.0350
 Frc consts  --     20.6281                 5.5436                 5.6483
 IR Inten    --    133.2945                74.1169                 3.7368

                     22                     23                     24
                      A                      A                      A
 Frequencies --   3106.8012              3132.8332              3426.7140
 Red. masses --      1.0981                 1.1042                 1.0746
 Frc consts  --      6.2449                 6.3850                 7.4342
 IR Inten    --      4.0478                10.7094                 0.4101

 - Thermochemistry -
 -------------------
 Temperature   298.150 Kelvin.  Pressure   1.00000 Atm.
 Atom     1 has atomic number  6 and mass  12.00000

 Molecular mass:    71.03711 amu.
 Principal axes and moments of inertia in atomic units:
                           1         2         3
     Eigenvalues --   202.25645 405.94048 597.16968
           X            0.99746  -0.07126   0.00000
           Y            0.07126   0.99746  -0.00001
           Z           -0.00000   0.00001   1.00000
 This molecule is an asymmetric top.
 Rotational symmetry number  1.
 Rotational temperatures (Kelvin)      0.42824     0.21337     0.14504
 Rotational constants (GHZ):           8.92303     4.44583     3.02216
 Zero-point vibrational energy     204881.6 (Joules/Mol)
                                   48.96788 (Kcal/Mol)
 Warning -- explicit consideration of   6 degrees of freedom as
           vibrations may cause significant error
 Vibrational temperatures:    125.59   237.28   369.58   662.75   665.15
          (Kelvin)            873.28  1162.05  1217.99  1469.18  1528.83
                             1567.89  1598.52  1966.30  1993.99  2024.87
                             2103.96  2116.86  2468.63  2611.25  4232.72
                             4378.75  4469.99  4507.44  4930.27

 Zero-point correction=                           0.078035 (Hartree/Particle)
 Thermal correction to Energy=                    0.083679
 Thermal correction to Enthalpy=                  0.084624
 Thermal correction to Gibbs Free Energy=         0.049130
 Sum of electronic and zero-point Energies=           -247.215576
 Sum of electronic and thermal Energies=              -247.209932
 Sum of electronic and thermal Enthalpies=            -247.208987
 Sum of electronic and thermal Free Energies=         -247.244481

                     E (Thermal)             CV                S
                      KCal/Mol        Cal/Mol-Kelvin    Cal/Mol-Kelvin
 Total                   52.510             18.248             74.702
 Electronic               0.000              0.000              0.000
 Translational            0.889              2.981             38.699
 Rotational               0.889              2.981             25.398
 Vibrational             50.732             12.286             10.606
 Vibration     1          0.601              1.958              3.720
 Vibration     2          0.623              1.886              2.493
 Vibration     3          0.666              1.751              1.683
 Vibration     4          0.818              1.337              0.764
 Vibration     5          0.820              1.334              0.759
 Vibration     6          0.966              1.017              0.438

 Optimization completed.
    -- Stationary point found.
 Normal termination of Gaussian 09 at Fri Aug 26 08:33:39 2022.

 -----------------------------------------------------------------
 #P Geom=AllCheck Guess=TCheck SCRF=Check CCSD(T,E4T,FrzG4)/GTBas1
 -----------------------------------------------------------------

 Structure from the checkpoint file:  "G4.Frag_445.chk"
 --------
 Frag_445
 --------
 Charge =  0 Multiplicity = 1

 SCF Done:  E(RHF) =  -245.800683450     A.U. after   13 cycles
 E2 =    -0.7155973264D+00 EUMP2 =    -0.24651628077596D+03
 CCSD(T)
 CCSD(T)= -0.24657698712D+03
 Normal termination of Gaussian 09 at Fri Aug 26 08:34:27 2022.

 ---------------------------------------------------------
 #P Geom=AllCheck Guess=TCheck SCRF=Check MP4=FrzG4/GTBas2
 ---------------------------------------------------------

 Structure from the checkpoint file:  "G4.Frag_445.chk"
 --------
 Frag_445
 --------
 Charge =  0 Multiplicity = 1

 SCF Done:  E(RHF) =  -245.808480742     A.U. after   12 cycles
 E2 =    -0.7247418535D+00 EUMP2 =    -0.24653322259575D+03
 Normal termination of Gaussian 09 at Fri Aug 26 08:34:40 2022.

 ---------------------------------------------------------
 #P Geom=AllCheck Guess=TCheck SCRF=Check MP4=FrzG4/GTBas3
 ---------------------------------------------------------

 Structure from the checkpoint file:  "G4.Frag_445.chk"
 --------
 Frag_445
 --------
 Charge =  0 Multiplicity = 1

 SCF Done:  E(RHF) =  -245.828175947     A.U. after   12 cycles
 E2 =    -0.8663667806D+00 EUMP2 =    -0.24669454272788D+03
 Normal termination of Gaussian 09 at Fri Aug 26 08:35:41 2022.

 -----------------------------------------------------------
 #P Geom=AllCheck Guess=TCheck SCRF=Check MP2=Full/GTLargeXP
 -----------------------------------------------------------

 Structure from the checkpoint file:  "G4.Frag_445.chk"
 --------
 Frag_445
 --------
 Charge =  0 Multiplicity = 1

 SCF Done:  E(RHF) =  -245.891420574     A.U. after   12 cycles
 E2 =    -0.1140444348D+01 EUMP2 =    -0.24703186492273D+03
 Normal termination of Gaussian 09 at Fri Aug 26 08:36:24 2022.
 SCF Done:  E(RHF) =  -245.910576684     A.U. after    9 cycles
 Normal termination of Gaussian 09 at Fri Aug 26 08:37:12 2022.

                         Standard orientation:
 ---------------------------------------------------------------------
 Center     Atomic      Atomic             Coordinates (Angstroms)
 Number     Number       Type             X           Y           Z
 ---------------------------------------------------------------------
      1          6           0       -0.746697    1.336961    0.000030
      2          6           0       -0.500018   -0.146180    0.000037
      3          7           0       -1.355620   -1.091235   -0.000075
      4          6           0        0.937345   -0.595126    0.000055
      5          8           0        1.872414    0.166077   -0.000057
      6          1           0       -1.815657    1.562103    0.000913
      7          1           0       -0.278955    1.798370   -0.875696
      8          1           0       -0.277378    1.798686    0.874723
      9          1           0       -2.312119   -0.724871    0.000071
     10          1           0        1.050351   -1.698189    0.000238
 ---------------------------------------------------------------------

 SCF Done:  E(RHF) =  -245.914463605     A.U. after    8 cycles

 The electronic state is 1-A.
 Alpha  occ. eigenvalues --  -20.57434 -15.58254 -11.34136 -11.30839 -11.24709
 Alpha  occ. eigenvalues --   -1.41155  -1.24137  -1.01264  -0.91642  -0.75825
 Alpha  occ. eigenvalues --   -0.69958  -0.65450  -0.62829  -0.60793  -0.56954
 Alpha  occ. eigenvalues --   -0.54282  -0.47660  -0.44807  -0.42747
 Alpha virt. eigenvalues --    0.03321   0.04792   0.05126   0.05411   0.06446
 Alpha virt. eigenvalues --    0.06999   0.07625   0.08325   0.08443   0.08893
 Alpha virt. eigenvalues --    0.10214   0.13651   0.13817   0.14247   0.15076

 Mulliken charges:
               1
     1  C   -0.523303
     2  C    0.280277
     3  N   -0.574332
     4  C    0.231470
     5  O   -0.496335
     6  H    0.165272
     7  H    0.207061
     8  H    0.207155
     9  H    0.290233
    10  H    0.212503
 Sum of Mulliken charges =  -0.00000

 Dipole moment (field-independent basis, Debye):
    X=             -2.4617    Y=              1.0035    Z=              0.0005  Tot=              2.6583
 Quadrupole moment (field-independent basis, Debye-Ang):
   XX=            -32.7507   YY=            -31.2167   ZZ=            -29.7333
   XY=             -4.5291   XZ=              0.0000   YZ=             -0.0006

 Normal termination of Gaussian 09 at Fri Aug 26 08:41:39 2022.
