 Gaussian 09, Revision E.01,
 Gaussian 09:  ES64L-G09RevE.01 30-Nov-2015

 -----
 #P G4
 -----

 --------
 Frag_732
 --------
 Symbolic Z-matrix:
 Charge =  0 Multiplicity = 1

 SCF Done:  E(RB3LYP) =  -343.102798136     A.U. after   16 cycles
 SCF Done:  E(RB3LYP) =  -343.118254186     A.U. after   13 cycles
 SCF Done:  E(RB3LYP) =  -343.121001406     A.U. after   13 cycles
 SCF Done:  E(RB3LYP) =  -343.122493958     A.U. after   13 cycles
 SCF Done:  E(RB3LYP) =  -343.123956289     A.U. after   15 cycles
 SCF Done:  E(RB3LYP) =  -343.124775067     A.U. after   13 cycles
 SCF Done:  E(RB3LYP) =  -343.125220424     A.U. after   12 cycles
 SCF Done:  E(RB3LYP) =  -343.125408954     A.U. after   12 cycles
 SCF Done:  E(RB3LYP) =  -343.125521781     A.U. after   11 cycles
 SCF Done:  E(RB3LYP) =  -343.125602938     A.U. after   12 cycles
 SCF Done:  E(RB3LYP) =  -343.125662964     A.U. after    9 cycles
 SCF Done:  E(RB3LYP) =  -343.125663246     A.U. after    8 cycles
 SCF Done:  E(RB3LYP) =  -343.125663331     A.U. after    7 cycles
 Optimization completed.
    -- Stationary point found.
 Normal termination of Gaussian 09 at Mon Aug 22 02:57:54 2022.

 ----------------------------------------------------------
 #P Geom=AllCheck Guess=TCheck SCRF=Check B3LYP/GTBas3 Freq
 ----------------------------------------------------------

 Structure from the checkpoint file:  "G4.Frag_732.chk"
 --------
 Frag_732
 --------
 Charge =  0 Multiplicity = 1

 SCF Done:  E(RB3LYP) =  -343.125663331     A.U. after    1 cycles

  Exact polarizability:  68.418  -4.742  69.651  -0.002   0.003  52.309
 Approx polarizability:  92.208  -5.861 128.791  -0.005   0.010  72.790

                      1                      2                      3
                      A                      A                      A
 Frequencies --     66.5727               152.0143               243.7842
 Red. masses --      2.5742                 1.3167                 1.0704
 Frc consts  --      0.0067                 0.0179                 0.0375
 IR Inten    --      0.1620                17.0602                 2.4602

                      4                      5                      6
                      A                      A                      A
 Frequencies --    275.2066               295.1248               310.1194
 Red. masses --      1.0543                 2.4200                 2.7586
 Frc consts  --      0.0470                 0.1242                 0.1563
 IR Inten    --      1.9212                 4.1595                 4.5149

                      7                      8                      9
                      A                      A                      A
 Frequencies --    364.7613               410.1433               429.5503
 Red. masses --      2.9200                 3.7920                 2.3786
 Frc consts  --      0.2289                 0.3758                 0.2586
 IR Inten    --      9.0959                 1.9596                 0.0281

                     10                     11                     12
                      A                      A                      A
 Frequencies --    513.8864               550.0886               652.0197
 Red. masses --      3.3911                 2.3774                 2.1218
 Frc consts  --      0.5276                 0.4239                 0.5315
 IR Inten    --      6.5625                 8.6283                 2.0334

                     13                     14                     15
                      A                      A                      A
 Frequencies --    663.4650               719.0920               741.9278
 Red. masses --      1.7980                 2.8424                 1.3059
 Frc consts  --      0.4663                 0.8660                 0.4235
 IR Inten    --     77.4478                36.4032                 7.8497

                     16                     17                     18
                      A                      A                      A
 Frequencies --    822.3480               877.4189               945.0868
 Red. masses --      1.5116                 2.1322                 1.5341
 Frc consts  --      0.6023                 0.9671                 0.8073
 IR Inten    --     40.2834                20.4017                 0.1258

                     19                     20                     21
                      A                      A                      A
 Frequencies --   1010.7344              1013.3991              1088.8084
 Red. masses --      1.2871                 1.7094                 1.5126
 Frc consts  --      0.7747                 1.0343                 1.0565
 IR Inten    --      0.6787                 1.3450                 1.2204

                     22                     23                     24
                      A                      A                      A
 Frequencies --   1095.4576              1182.5047              1280.3979
 Red. masses --      2.0592                 2.0147                 3.2173
 Frc consts  --      1.4560                 1.6598                 3.1077
 IR Inten    --     41.9914                43.4410                47.0211

                     25                     26                     27
                      A                      A                      A
 Frequencies --   1320.6274              1345.7520              1386.8038
 Red. masses --      2.3688                 1.7928                 1.3804
 Frc consts  --      2.4341                 1.9130                 1.5642
 IR Inten    --     30.7467                 4.7459                19.0467

                     28                     29                     30
                      A                      A                      A
 Frequencies --   1401.2550              1431.1984              1473.1882
 Red. masses --      1.2260                 1.4922                 1.0490
 Frc consts  --      1.4184                 1.8009                 1.3413
 IR Inten    --     15.7720                22.5483                 0.0310

                     31                     32                     33
                      A                      A                      A
 Frequencies --   1494.5713              1498.5678              1517.7892
 Red. masses --      1.0731                 1.0494                 1.0507
 Frc consts  --      1.4123                 1.3885                 1.4261
 IR Inten    --      7.5403                 1.0350                 6.2366

                     34                     35                     36
                      A                      A                      A
 Frequencies --   1637.4839              1664.3971              3039.8191
 Red. masses --      4.6380                 1.2071                 1.0383
 Frc consts  --      7.3271                 1.9702                 5.6530
 IR Inten    --    130.0130                16.1688                25.0869

                     37                     38                     39
                      A                      A                      A
 Frequencies --   3043.4506              3108.0883              3112.1746
 Red. masses --      1.0397                 1.1011                 1.0999
 Frc consts  --      5.6740                 6.2673                 6.2768
 IR Inten    --     10.5300                 9.5611                34.5863

                     40                     41                     42
                      A                      A                      A
 Frequencies --   3162.6920              3165.8049              3199.6969
 Red. masses --      1.0988                 1.0985                 1.0518
 Frc consts  --      6.4757                 6.4866                 6.3448
 IR Inten    --      0.0388                 3.8945                 5.7091

                     43                     44                     45
                      A                      A                      A
 Frequencies --   3340.1337              3554.9571              3642.6391
 Red. masses --      1.1217                 1.0483                 1.0962
 Frc consts  --      7.3733                 7.8059                 8.5699
 IR Inten    --      2.2139                 5.2991                 9.2329

 - Thermochemistry -
 -------------------
 Temperature   298.150 Kelvin.  Pressure   1.00000 Atm.
 Atom     1 has atomic number  6 and mass  12.00000

 Molecular mass:   102.07931 amu.
 Principal axes and moments of inertia in atomic units:
                           1         2         3
     Eigenvalues --   534.19724 730.71752 862.87915
           X            0.99578  -0.09178  -0.00001
           Y            0.09178   0.99578  -0.00001
           Z            0.00001   0.00001   1.00000
 This molecule is an asymmetric top.
 Rotational symmetry number  1.
 Warning -- assumption of classical behavior for rotation
           may cause significant error
 Rotational temperatures (Kelvin)      0.16214     0.11853     0.10038
 Rotational constants (GHZ):           3.37842     2.46982     2.09153
 Zero-point vibrational energy     384270.4 (Joules/Mol)
                                   91.84284 (Kcal/Mol)
 Warning -- explicit consideration of  11 degrees of freedom as
           vibrations may cause significant error
 Vibrational temperatures:     95.78   218.71   350.75   395.96   424.62
          (Kelvin)            446.19   524.81   590.10   618.03   739.37
                              791.45   938.11   954.58  1034.61  1067.47
                             1183.17  1262.41  1359.77  1454.22  1458.05
                             1566.55  1576.12  1701.36  1842.20  1900.09
                             1936.23  1995.30  2016.09  2059.17  2119.59
                             2150.35  2156.10  2183.76  2355.97  2394.69
                             4373.62  4378.84  4471.84  4477.72  4550.40
                             4554.88  4603.64  4805.70  5114.78  5240.94

 Zero-point correction=                           0.146361 (Hartree/Particle)
 Thermal correction to Energy=                    0.154604
 Thermal correction to Enthalpy=                  0.155548
 Thermal correction to Gibbs Free Energy=         0.114470
 Sum of electronic and zero-point Energies=           -342.979302
 Sum of electronic and thermal Energies=              -342.971059
 Sum of electronic and thermal Enthalpies=            -342.970115
 Sum of electronic and thermal Free Energies=         -343.011194

                     E (Thermal)             CV                S
                      KCal/Mol        Cal/Mol-Kelvin    Cal/Mol-Kelvin
 Total                   97.016             31.022             86.458
 Electronic               0.000              0.000              0.000
 Translational            0.889              2.981             39.779
 Rotational               0.889              2.981             27.312
 Vibrational             95.238             25.060             19.366
 Vibration     1          0.598              1.970              4.252
 Vibration     2          0.619              1.900              2.647
 Vibration     3          0.659              1.773              1.775
 Vibration     4          0.677              1.719              1.563
 Vibration     5          0.689              1.683              1.444
 Vibration     6          0.699              1.654              1.362
 Vibration     7          0.738              1.545              1.102
 Vibration     8          0.774              1.448              0.926
 Vibration     9          0.791              1.406              0.860
 Vibration    10          0.869              1.219              0.624
 Vibration    11          0.905              1.139              0.544

 Optimization completed.
    -- Stationary point found.
 Normal termination of Gaussian 09 at Mon Aug 22 03:02:54 2022.

 -----------------------------------------------------------------
 #P Geom=AllCheck Guess=TCheck SCRF=Check CCSD(T,E4T,FrzG4)/GTBas1
 -----------------------------------------------------------------

 Structure from the checkpoint file:  "G4.Frag_732.chk"
 --------
 Frag_732
 --------
 Charge =  0 Multiplicity = 1

 SCF Done:  E(RHF) =  -340.946703899     A.U. after   13 cycles
 E2 =    -0.1048334981D+01 EUMP2 =    -0.34199503888088D+03
 CCSD(T)
 CCSD(T)= -0.34208652090D+03
 225\CCSD=-342.0478748\CCSD(T)=-342.0865209\RMSD=9.965e-09\PG=C01 [X(C4
 Normal termination of Gaussian 09 at Mon Aug 22 03:19:17 2022.

 ---------------------------------------------------------
 #P Geom=AllCheck Guess=TCheck SCRF=Check MP4=FrzG4/GTBas2
 ---------------------------------------------------------

 Structure from the checkpoint file:  "G4.Frag_732.chk"
 --------
 Frag_732
 --------
 Charge =  0 Multiplicity = 1

 SCF Done:  E(RHF) =  -340.958867438     A.U. after   14 cycles
 E2 =    -0.1064190849D+01 EUMP2 =    -0.34202305828725D+03
 Normal termination of Gaussian 09 at Mon Aug 22 03:39:27 2022.

 ---------------------------------------------------------
 #P Geom=AllCheck Guess=TCheck SCRF=Check MP4=FrzG4/GTBas3
 ---------------------------------------------------------

 Structure from the checkpoint file:  "G4.Frag_732.chk"
 --------
 Frag_732
 --------
 Charge =  0 Multiplicity = 1

 SCF Done:  E(RHF) =  -340.990254089     A.U. after   12 cycles
 E2 =    -0.1282613745D+01 EUMP2 =    -0.34227286783321D+03
 Normal termination of Gaussian 09 at Mon Aug 22 08:27:24 2022.

 -----------------------------------------------------------
 #P Geom=AllCheck Guess=TCheck SCRF=Check MP2=Full/GTLargeXP
 -----------------------------------------------------------

 Structure from the checkpoint file:  "G4.Frag_732.chk"
 --------
 Frag_732
 --------
 Charge =  0 Multiplicity = 1

 SCF Done:  E(RHF) =  -341.076642754     A.U. after   13 cycles
 E2 =    -0.1672611040D+01 EUMP2 =    -0.34274925379343D+03
 Normal termination of Gaussian 09 at Mon Aug 22 08:39:51 2022.
 SCF Done:  E(RHF) =  -341.103484433     A.U. after   10 cycles
 Normal termination of Gaussian 09 at Mon Aug 22 08:51:52 2022.

                         Standard orientation:
 ---------------------------------------------------------------------
 Center     Atomic      Atomic             Coordinates (Angstroms)
 Number     Number       Type             X           Y           Z
 ---------------------------------------------------------------------
      1          6           0        1.690305   -1.068411   -0.000127
      2          7           0        0.977921    0.017757   -0.000002
      3          8           0        1.441198    1.196657    0.000167
      4          6           0       -0.574853   -0.052534   -0.000053
      5          6           0       -1.010326    0.680868    1.271240
      6          6           0       -1.010333    0.682010   -1.270707
      7          7           0       -1.014593   -1.427200   -0.000446
      8          1           0        2.763846   -0.947726   -0.000112
      9          1           0        1.184581   -2.017775   -0.000132
     10          1           0       -2.095066    0.820348    1.263262
     11          1           0       -0.515209    1.649474    1.328663
     12          1           0       -0.737242    0.097417    2.157353
     13          1           0       -2.095129    0.821034   -1.262758
     14          1           0       -0.515560    1.650845   -1.327158
     15          1           0       -0.736907    0.099518   -2.157344
     16          1           0       -1.546531   -1.665999   -0.825767
     17          1           0       -1.548424   -1.665881    0.823670
 ---------------------------------------------------------------------

 SCF Done:  E(RHF) =  -341.109119220     A.U. after    8 cycles

 The electronic state is 1-A.
 Alpha  occ. eigenvalues --  -20.49455 -15.70231 -15.56411 -11.32393 -11.26297
 Alpha  occ. eigenvalues --  -11.22526 -11.22525  -1.43109  -1.22875  -1.11767
 Alpha  occ. eigenvalues --   -1.03999  -0.95529  -0.87154  -0.76150  -0.70370
 Alpha  occ. eigenvalues --   -0.69145  -0.66558  -0.61970  -0.61934  -0.58747
 Alpha  occ. eigenvalues --   -0.54709  -0.54582  -0.53639  -0.52328  -0.49305
 Alpha  occ. eigenvalues --   -0.44812  -0.38691  -0.33071
 Alpha virt. eigenvalues --    0.02848   0.03869   0.04036   0.05018   0.05953
 Alpha virt. eigenvalues --    0.06690   0.06725   0.07362   0.07371   0.09521
 Alpha virt. eigenvalues --    0.10318   0.10747   0.11242   0.12535   0.13387

 Mulliken charges:
               1
     1  C   -0.375709
     2  N    0.266807
     3  O   -0.638817
     4  C    0.459481
     5  C   -0.622980
     6  C   -0.622845
     7  N   -0.801072
     8  H    0.237982
     9  H    0.266542
    10  H    0.180657
    11  H    0.237015
    12  H    0.181998
    13  H    0.180637
    14  H    0.237021
    15  H    0.181933
    16  H    0.315661
    17  H    0.315689
 Sum of Mulliken charges =  -0.00000

 Dipole moment (field-independent basis, Debye):
    X=             -3.4168    Y=             -3.2354    Z=             -0.0015  Tot=              4.7056
 Quadrupole moment (field-independent basis, Debye-Ang):
   XX=            -42.4731   YY=            -46.0355   ZZ=            -42.5812
   XY=             -4.4334   XZ=             -0.0009   YZ=              0.0026

 Normal termination of Gaussian 09 at Mon Aug 22 13:44:42 2022.
