 Gaussian 09, Revision E.01,
 Gaussian 09:  ES64L-G09RevE.01 30-Nov-2015

 -----
 #P G4
 -----

 --------
 Frag_536
 --------
 Symbolic Z-matrix:
 Charge =  0 Multiplicity = 1

 SCF Done:  E(RB3LYP) =  -286.600094870     A.U. after   14 cycles
 SCF Done:  E(RB3LYP) =  -286.619505144     A.U. after   13 cycles
 SCF Done:  E(RB3LYP) =  -286.620510281     A.U. after   12 cycles
 SCF Done:  E(RB3LYP) =  -286.619882235     A.U. after   12 cycles
 SCF Done:  E(RB3LYP) =  -286.620623188     A.U. after    9 cycles
 SCF Done:  E(RB3LYP) =  -286.620698783     A.U. after   12 cycles
 SCF Done:  E(RB3LYP) =  -286.620737629     A.U. after   11 cycles
 SCF Done:  E(RB3LYP) =  -286.620741909     A.U. after    9 cycles
 SCF Done:  E(RB3LYP) =  -286.620743704     A.U. after    8 cycles
 SCF Done:  E(RB3LYP) =  -286.620743949     A.U. after    7 cycles
 SCF Done:  E(RB3LYP) =  -286.620744053     A.U. after    7 cycles
 Optimization completed.
    -- Stationary point found.
 Normal termination of Gaussian 09 at Tue Aug 30 11:12:20 2022.

 ----------------------------------------------------------
 #P Geom=AllCheck Guess=TCheck SCRF=Check B3LYP/GTBas3 Freq
 ----------------------------------------------------------

 Structure from the checkpoint file:  "G4.Frag_536.chk"
 --------
 Frag_536
 --------
 Charge =  0 Multiplicity = 1

 SCF Done:  E(RB3LYP) =  -286.620744053     A.U. after    1 cycles

  Exact polarizability:  60.265  -3.326  69.549  -0.572   0.697  31.058
 Approx polarizability:  78.021 -12.287 126.530  -0.355   2.503  47.712

                      1                      2                      3
                      A                      A                      A
 Frequencies --     96.9921               150.9578               297.0678
 Red. masses --      3.9758                 1.0519                 3.0838
 Frc consts  --      0.0220                 0.0141                 0.1603
 IR Inten    --      3.5141                 0.1879                10.2245

                      4                      5                      6
                      A                      A                      A
 Frequencies --    362.4758               388.9038               404.6904
 Red. masses --      2.2381                 1.1630                 2.9310
 Frc consts  --      0.1733                 0.1036                 0.2828
 IR Inten    --     17.7769                26.7789                 8.1923

                      7                      8                      9
                      A                      A                      A
 Frequencies --    456.9667               563.0304               612.0057
 Red. masses --      2.4717                 2.5048                 1.6559
 Frc consts  --      0.3041                 0.4678                 0.3654
 IR Inten    --      9.0283               106.3831               124.5816

                     10                     11                     12
                      A                      A                      A
 Frequencies --    677.1327               706.7019               730.0935
 Red. masses --      2.3840                 1.2429                 2.7784
 Frc consts  --      0.6440                 0.3657                 0.8726
 IR Inten    --      2.9501                 4.6289                 4.7742

                     13                     14                     15
                      A                      A                      A
 Frequencies --    843.4467               974.1683              1000.7470
 Red. masses --      1.4398                 1.7250                 1.6670
 Frc consts  --      0.6035                 0.9645                 0.9837
 IR Inten    --     49.9597                14.1967                 5.8588

                     16                     17                     18
                      A                      A                      A
 Frequencies --   1046.5836              1112.4678              1207.0558
 Red. masses --      1.8961                 1.6819                 2.2685
 Frc consts  --      1.2236                 1.2264                 1.9473
 IR Inten    --      3.4030                 4.2635                87.8652

                     19                     20                     21
                      A                      A                      A
 Frequencies --   1373.3273              1403.5351              1449.5489
 Red. masses --      1.4220                 2.7440                 1.1603
 Frc consts  --      1.5801                 3.1848                 1.4364
 IR Inten    --     39.8427                52.7747                 6.8109

                     22                     23                     24
                      A                      A                      A
 Frequencies --   1475.2467              1477.8404              1613.5255
 Red. masses --      1.0615                 1.0589                 1.1970
 Frc consts  --      1.3611                 1.3625                 1.8361
 IR Inten    --      4.6623                 5.5183                90.6431

                     25                     26                     27
                      A                      A                      A
 Frequencies --   1695.6587              1769.2181              3050.2731
 Red. masses --      5.5619                 8.9517                 1.0362
 Frc consts  --      9.4221                16.5089                 5.6802
 IR Inten    --     94.9515               159.6305                 1.7899

                     28                     29                     30
                      A                      A                      A
 Frequencies --   3115.5208              3157.1799              3169.3858
 Red. masses --      1.0989                 1.1024                 1.0641
 Frc consts  --      6.2844                 6.4744                 6.2975
 IR Inten    --      5.2514                 7.9941                 6.0849

                     31                     32                     33
                      A                      A                      A
 Frequencies --   3268.8119              3561.8530              3682.2928
 Red. masses --      1.1105                 1.0469                 1.0982
 Frc consts  --      6.9914                 7.8252                 8.7735
 IR Inten    --      4.5311                32.0874                33.4006

 - Thermochemistry -
 -------------------
 Temperature   298.150 Kelvin.  Pressure   1.00000 Atm.
 Atom     1 has atomic number  6 and mass  12.00000

 Molecular mass:    85.05276 amu.
 Principal axes and moments of inertia in atomic units:
                           1         2         3
     Eigenvalues --   345.88259 518.74739 850.15627
           X            0.99525   0.09695  -0.00872
           Y           -0.09697   0.99529  -0.00175
           Z            0.00851   0.00259   0.99996
 This molecule is an asymmetric top.
 Rotational symmetry number  1.
 Rotational temperatures (Kelvin)      0.25041     0.16697     0.10188
 Rotational constants (GHZ):           5.21779     3.47904     2.12283
 Zero-point vibrational energy     280492.6 (Joules/Mol)
                                   67.03935 (Kcal/Mol)
 Warning -- explicit consideration of   9 degrees of freedom as
           vibrations may cause significant error
 Vibrational temperatures:    139.55   217.19   427.41   521.52   559.55
          (Kelvin)            582.26   657.47   810.07   880.54   974.24
                             1016.79  1050.44  1213.53  1401.61  1439.85
                             1505.80  1600.59  1736.68  1975.91  2019.37
                             2085.57  2122.55  2126.28  2321.50  2439.67
                             2545.51  4388.66  4482.53  4542.47  4560.03
                             4703.09  5124.71  5297.99

 Zero-point correction=                           0.106834 (Hartree/Particle)
 Thermal correction to Energy=                    0.113626
 Thermal correction to Enthalpy=                  0.114570
 Thermal correction to Gibbs Free Energy=         0.076702
 Sum of electronic and zero-point Energies=           -286.513910
 Sum of electronic and thermal Energies=              -286.507118
 Sum of electronic and thermal Enthalpies=            -286.506174
 Sum of electronic and thermal Free Energies=         -286.544042

                     E (Thermal)             CV                S
                      KCal/Mol        Cal/Mol-Kelvin    Cal/Mol-Kelvin
 Total                   71.301             24.675             79.700
 Electronic               0.000              0.000              0.000
 Translational            0.889              2.981             39.235
 Rotational               0.889              2.981             26.525
 Vibrational             69.524             18.713             13.939
 Vibration     1          0.603              1.951              3.514
 Vibration     2          0.618              1.902              2.660
 Vibration     3          0.691              1.679              1.433
 Vibration     4          0.736              1.550              1.111
 Vibration     5          0.757              1.494              1.004
 Vibration     6          0.770              1.460              0.946
 Vibration     7          0.815              1.345              0.775
 Vibration     8          0.919              1.111              0.518
 Vibration     9          0.971              1.006              0.429

 Optimization completed.
    -- Stationary point found.
 Normal termination of Gaussian 09 at Tue Aug 30 11:12:49 2022.

 -----------------------------------------------------------------
 #P Geom=AllCheck Guess=TCheck SCRF=Check CCSD(T,E4T,FrzG4)/GTBas1
 -----------------------------------------------------------------

 Structure from the checkpoint file:  "G4.Frag_536.chk"
 --------
 Frag_536
 --------
 Charge =  0 Multiplicity = 1

 SCF Done:  E(RHF) =  -284.835413404     A.U. after   14 cycles
 E2 =    -0.8485232099D+00 EUMP2 =    -0.28568393661389D+03
 CCSD(T)
 CCSD(T)= -0.28575898662D+03
 Normal termination of Gaussian 09 at Tue Aug 30 11:14:32 2022.

 ---------------------------------------------------------
 #P Geom=AllCheck Guess=TCheck SCRF=Check MP4=FrzG4/GTBas2
 ---------------------------------------------------------

 Structure from the checkpoint file:  "G4.Frag_536.chk"
 --------
 Frag_536
 --------
 Charge =  0 Multiplicity = 1

 SCF Done:  E(RHF) =  -284.845436893     A.U. after   13 cycles
 E2 =    -0.8600186364D+00 EUMP2 =    -0.28570545552907D+03
 Normal termination of Gaussian 09 at Tue Aug 30 11:15:08 2022.

 ---------------------------------------------------------
 #P Geom=AllCheck Guess=TCheck SCRF=Check MP4=FrzG4/GTBas3
 ---------------------------------------------------------

 Structure from the checkpoint file:  "G4.Frag_536.chk"
 --------
 Frag_536
 --------
 Charge =  0 Multiplicity = 1

 SCF Done:  E(RHF) =  -284.871422477     A.U. after   12 cycles
 E2 =    -0.1034134939D+01 EUMP2 =    -0.28590555741611D+03
 Normal termination of Gaussian 09 at Tue Aug 30 11:18:01 2022.

 -----------------------------------------------------------
 #P Geom=AllCheck Guess=TCheck SCRF=Check MP2=Full/GTLargeXP
 -----------------------------------------------------------

 Structure from the checkpoint file:  "G4.Frag_536.chk"
 --------
 Frag_536
 --------
 Charge =  0 Multiplicity = 1

 SCF Done:  E(RHF) =  -284.944358424     A.U. after   12 cycles
 E2 =    -0.1361881958D+01 EUMP2 =    -0.28630624038145D+03
 Normal termination of Gaussian 09 at Tue Aug 30 11:19:50 2022.
 SCF Done:  E(RHF) =  -284.966695773     A.U. after   10 cycles
 Normal termination of Gaussian 09 at Tue Aug 30 11:21:47 2022.

                         Standard orientation:
 ---------------------------------------------------------------------
 Center     Atomic      Atomic             Coordinates (Angstroms)
 Number     Number       Type             X           Y           Z
 ---------------------------------------------------------------------
      1          6           0       -1.047205    1.513611    0.054510
      2          6           0       -0.742817    0.205837   -0.015471
      3          7           0       -1.651244   -0.829734   -0.127832
      4          6           0        0.680984   -0.279829    0.005970
      5          6           0        1.817721    0.721167   -0.047952
      6          8           0        0.898367   -1.474762    0.072923
      7          1           0       -2.074702    1.860510    0.064416
      8          1           0       -0.276085    2.267900    0.099412
      9          1           0       -1.253167   -1.728113    0.109331
     10          1           0       -2.577020   -0.665849    0.233795
     11          1           0        1.794827    1.385024    0.821716
     12          1           0        2.760405    0.173714   -0.058248
     13          1           0        1.745419    1.348333   -0.941318
 ---------------------------------------------------------------------

 SCF Done:  E(RHF) =  -284.971304961     A.U. after    8 cycles

 The electronic state is 1-A.
 Alpha  occ. eigenvalues --  -20.55434 -15.55980 -11.34194 -11.28707 -11.23818
 Alpha  occ. eigenvalues --  -11.22815  -1.39911  -1.21959  -1.04835  -0.98576
 Alpha  occ. eigenvalues --   -0.85869  -0.73161  -0.71399  -0.66876  -0.62075
 Alpha  occ. eigenvalues --   -0.60996  -0.59456  -0.56844  -0.55038  -0.52944
 Alpha  occ. eigenvalues --   -0.48095  -0.43106  -0.33125
 Alpha virt. eigenvalues --    0.03526   0.04063   0.05018   0.05465   0.06413
 Alpha virt. eigenvalues --    0.06807   0.07517   0.08415   0.08910   0.09498
 Alpha virt. eigenvalues --    0.09854   0.09982   0.10385   0.10637   0.13377

 Mulliken charges:
               1
     1  C   -0.497733
     2  C    0.219775
     3  N   -0.724773
     4  C    0.516738
     5  C   -0.604703
     6  O   -0.557407
     7  H    0.180396
     8  H    0.184946
     9  H    0.345138
    10  H    0.306175
    11  H    0.205035
    12  H    0.218530
    13  H    0.207882
 Sum of Mulliken charges =  -0.00000

 Dipole moment (field-independent basis, Debye):
    X=             -0.7411    Y=              2.3121    Z=              0.7232  Tot=              2.5334
 Quadrupole moment (field-independent basis, Debye-Ang):
   XX=            -31.9874   YY=            -38.3796   ZZ=            -38.9020
   XY=              4.1410   XZ=             -2.3149   YZ=             -0.7654

 Normal termination of Gaussian 09 at Tue Aug 30 11:28:33 2022.
