 Gaussian 09, Revision E.01,
 Gaussian 09:  ES64L-G09RevE.01 30-Nov-2015

 -----
 #P G4
 -----

 --------
 Frag_676
 --------
 Symbolic Z-matrix:
 Charge =  0 Multiplicity = 1

 SCF Done:  E(RB3LYP) =  -271.765676596     A.U. after   14 cycles
 SCF Done:  E(RB3LYP) =  -271.769179677     A.U. after   11 cycles
 SCF Done:  E(RB3LYP) =  -271.770500993     A.U. after   12 cycles
 SCF Done:  E(RB3LYP) =  -271.762490938     A.U. after   14 cycles
 SCF Done:  E(RB3LYP) =  -271.772126261     A.U. after   11 cycles
 SCF Done:  E(RB3LYP) =  -271.773130300     A.U. after   11 cycles
 SCF Done:  E(RB3LYP) =  -271.773715604     A.U. after   11 cycles
 SCF Done:  E(RB3LYP) =  -271.773784796     A.U. after   10 cycles
 SCF Done:  E(RB3LYP) =  -271.773799509     A.U. after    9 cycles
 SCF Done:  E(RB3LYP) =  -271.773806754     A.U. after    8 cycles
 SCF Done:  E(RB3LYP) =  -271.773814849     A.U. after    9 cycles
 SCF Done:  E(RB3LYP) =  -271.773826661     A.U. after    9 cycles
 SCF Done:  E(RB3LYP) =  -271.773831316     A.U. after    8 cycles
 Optimization completed.
    -- Stationary point found.
 Normal termination of Gaussian 09 at Fri Aug 26 15:06:19 2022.

 ----------------------------------------------------------
 #P Geom=AllCheck Guess=TCheck SCRF=Check B3LYP/GTBas3 Freq
 ----------------------------------------------------------

 Structure from the checkpoint file:  "G4.Frag_676.chk"
 --------
 Frag_676
 --------
 Charge =  0 Multiplicity = 1

 SCF Done:  E(RB3LYP) =  -271.773831316     A.U. after    1 cycles

  Exact polarizability:  72.784  -0.004  47.865  -2.434   0.016  55.846
 Approx polarizability: 100.389  -0.014  64.316  -7.699   0.035  83.930

                      1                      2                      3
                      A                      A                      A
 Frequencies --     97.7749               235.2327               246.2580
 Red. masses --      2.3907                 1.0210                 1.0989
 Frc consts  --      0.0135                 0.0333                 0.0393
 IR Inten    --      4.9905                 1.1728                82.0368

                      4                      5                      6
                      A                      A                      A
 Frequencies --    260.3443               295.3160               316.7351
 Red. masses --      1.2749                 2.0023                 1.7674
 Frc consts  --      0.0509                 0.1029                 0.1045
 IR Inten    --      0.3174                 1.8376                16.3417

                      7                      8                      9
                      A                      A                      A
 Frequencies --    337.5509               416.0486               437.9644
 Red. masses --      2.2731                 2.5095                 2.7578
 Frc consts  --      0.1526                 0.2559                 0.3117
 IR Inten    --      0.1773                 2.4798                 4.0527

                     10                     11                     12
                      A                      A                      A
 Frequencies --    560.7998               698.7397               737.4206
 Red. masses --      2.8635                 1.7650                 3.2453
 Frc consts  --      0.5306                 0.5077                 1.0398
 IR Inten    --      6.6575                 9.9465                 1.6813

                     13                     14                     15
                      A                      A                      A
 Frequencies --    901.1643               915.7213               958.4046
 Red. masses --      2.0605                 1.5332                 1.3601
 Frc consts  --      0.9859                 0.7575                 0.7361
 IR Inten    --     13.9677                 0.3808                28.3686

                     16                     17                     18
                      A                      A                      A
 Frequencies --    966.7167              1015.2289              1038.5606
 Red. masses --      2.2068                 1.2831                 1.3075
 Frc consts  --      1.2151                 0.7792                 0.8309
 IR Inten    --     15.7338                 0.5759                20.8756

                     19                     20                     21
                      A                      A                      A
 Frequencies --   1044.1121              1164.4084              1186.3027
 Red. masses --      1.1126                 1.4824                 3.4783
 Frc consts  --      0.7147                 1.1842                 2.8841
 IR Inten    --     11.8512                23.3531                27.4027

                     22                     23                     24
                      A                      A                      A
 Frequencies --   1230.1711              1330.9335              1360.4452
 Red. masses --      2.7936                 1.2723                 1.6132
 Frc consts  --      2.4909                 1.3279                 1.7592
 IR Inten    --     73.3734                 0.8585                22.9156

                     25                     26                     27
                      A                      A                      A
 Frequencies --   1389.6932              1408.7808              1449.5217
 Red. masses --      1.2430                 1.2380                 1.2061
 Frc consts  --      1.4143                 1.4476                 1.4931
 IR Inten    --      6.3516                 5.9842                12.0855

                     28                     29                     30
                      A                      A                      A
 Frequencies --   1479.4350              1481.0108              1496.1608
 Red. masses --      1.0474                 1.0510                 1.0579
 Frc consts  --      1.3507                 1.3582                 1.3952
 IR Inten    --      0.0644                 1.3583                 0.4724

                     31                     32                     33
                      A                      A                      A
 Frequencies --   1509.6120              1719.5027              3022.5285
 Red. masses --      1.1005                 5.2053                 1.0383
 Frc consts  --      1.4777                 9.0678                 5.5887
 IR Inten    --     10.2144                 3.7841                12.2911

                     34                     35                     36
                      A                      A                      A
 Frequencies --   3028.2605              3090.1856              3097.2758
 Red. masses --      1.0382                 1.0979                 1.0974
 Frc consts  --      5.6095                 6.1772                 6.2029
 IR Inten    --     35.3464                 3.0184                50.0167

                     37                     38                     39
                      A                      A                      A
 Frequencies --   3123.4003              3125.1166              3142.2286
 Red. masses --      1.1016                 1.1014                 1.0772
 Frc consts  --      6.3316                 6.3376                 6.2662
 IR Inten    --     14.3431                19.6412                16.7761

                     40                     41                     42
                      A                      A                      A
 Frequencies --   3161.4296              3246.6493              3820.8597
 Red. masses --      1.0731                 1.1139                 1.0662
 Frc consts  --      6.3193                 6.9178                 9.1705
 IR Inten    --     10.3661                 6.4925                13.5869

 - Thermochemistry -
 -------------------
 Temperature   298.150 Kelvin.  Pressure   1.00000 Atm.
 Atom     1 has atomic number  6 and mass  12.00000

 Molecular mass:    86.07317 amu.
 Principal axes and moments of inertia in atomic units:
                           1         2         3
     Eigenvalues --   386.42033 658.29563 662.15778
           X            0.99997  -0.00004  -0.00794
           Y            0.00002   1.00000  -0.00230
           Z            0.00794   0.00230   0.99997
 This molecule is an asymmetric top.
 Rotational symmetry number  1.
 Rotational temperatures (Kelvin)      0.22414     0.13157     0.13081
 Rotational constants (GHZ):           4.67041     2.74154     2.72555
 Zero-point vibrational energy     368114.9 (Joules/Mol)
                                   87.98157 (Kcal/Mol)
 Warning -- explicit consideration of  10 degrees of freedom as
           vibrations may cause significant error
 Vibrational temperatures:    140.68   338.45   354.31   374.58   424.89
          (Kelvin)            455.71   485.66   598.60   630.13   806.86
                             1005.33  1060.98  1296.57  1317.52  1378.93
                             1390.89  1460.69  1494.26  1502.24  1675.32
                             1706.82  1769.94  1914.91  1957.37  1999.46
                             2026.92  2085.54  2128.57  2130.84  2152.64
                             2171.99  2473.98  4348.74  4356.99  4446.08
                             4456.28  4493.87  4496.34  4520.96  4548.59
                             4671.20  5497.36

 Zero-point correction=                           0.140208 (Hartree/Particle)
 Thermal correction to Energy=                    0.147815
 Thermal correction to Enthalpy=                  0.148760
 Thermal correction to Gibbs Free Energy=         0.109567
 Sum of electronic and zero-point Energies=           -271.633624
 Sum of electronic and thermal Energies=              -271.626016
 Sum of electronic and thermal Enthalpies=            -271.625072
 Sum of electronic and thermal Free Energies=         -271.664264

                     E (Thermal)             CV                S
                      KCal/Mol        Cal/Mol-Kelvin    Cal/Mol-Kelvin
 Total                   92.756             28.044             82.487
 Electronic               0.000              0.000              0.000
 Translational            0.889              2.981             39.271
 Rotational               0.889              2.981             26.624
 Vibrational             90.978             22.083             16.592
 Vibration     1          0.603              1.951              3.498
 Vibration     2          0.655              1.787              1.839
 Vibration     3          0.661              1.769              1.757
 Vibration     4          0.668              1.745              1.659
 Vibration     5          0.690              1.682              1.443
 Vibration     6          0.704              1.642              1.327
 Vibration     7          0.718              1.600              1.224
 Vibration     8          0.779              1.435              0.905
 Vibration     9          0.798              1.387              0.833
 Vibration    10          0.916              1.116              0.522

 Optimization completed.
    -- Stationary point found.
 Normal termination of Gaussian 09 at Fri Aug 26 15:06:57 2022.

 -----------------------------------------------------------------
 #P Geom=AllCheck Guess=TCheck SCRF=Check CCSD(T,E4T,FrzG4)/GTBas1
 -----------------------------------------------------------------

 Structure from the checkpoint file:  "G4.Frag_676.chk"
 --------
 Frag_676
 --------
 Charge =  0 Multiplicity = 1

 SCF Done:  E(RHF) =  -269.992057590     A.U. after   12 cycles
 E2 =    -0.8293657108D+00 EUMP2 =    -0.27082142330057D+03
 CCSD(T)
 CCSD(T)= -0.27090943955D+03
 270.9078251\MP4SDQ=-270.880765\CCSD=-270.8818503\CCSD(T)=-270.9094395\
 Normal termination of Gaussian 09 at Fri Aug 26 15:09:04 2022.

 ---------------------------------------------------------
 #P Geom=AllCheck Guess=TCheck SCRF=Check MP4=FrzG4/GTBas2
 ---------------------------------------------------------

 Structure from the checkpoint file:  "G4.Frag_676.chk"
 --------
 Frag_676
 --------
 Charge =  0 Multiplicity = 1

 SCF Done:  E(RHF) =  -270.001003150     A.U. after   12 cycles
 E2 =    -0.8405858502D+00 EUMP2 =    -0.27084158900001D+03
 Normal termination of Gaussian 09 at Fri Aug 26 15:09:50 2022.

 ---------------------------------------------------------
 #P Geom=AllCheck Guess=TCheck SCRF=Check MP4=FrzG4/GTBas3
 ---------------------------------------------------------

 Structure from the checkpoint file:  "G4.Frag_676.chk"
 --------
 Frag_676
 --------
 Charge =  0 Multiplicity = 1

 SCF Done:  E(RHF) =  -270.028754075     A.U. after   11 cycles
 E2 =    -0.1028639965D+01 EUMP2 =    -0.27105739403994D+03
 Normal termination of Gaussian 09 at Fri Aug 26 15:14:02 2022.

 -----------------------------------------------------------
 #P Geom=AllCheck Guess=TCheck SCRF=Check MP2=Full/GTLargeXP
 -----------------------------------------------------------

 Structure from the checkpoint file:  "G4.Frag_676.chk"
 --------
 Frag_676
 --------
 Charge =  0 Multiplicity = 1

 SCF Done:  E(RHF) =  -270.094966286     A.U. after   11 cycles
 E2 =    -0.1354928711D+01 EUMP2 =    -0.27144989499695D+03
 Normal termination of Gaussian 09 at Fri Aug 26 15:16:09 2022.
 SCF Done:  E(RHF) =  -270.116737039     A.U. after    8 cycles
 Normal termination of Gaussian 09 at Fri Aug 26 15:18:24 2022.

                         Standard orientation:
 ---------------------------------------------------------------------
 Center     Atomic      Atomic             Coordinates (Angstroms)
 Number     Number       Type             X           Y           Z
 ---------------------------------------------------------------------
      1          6           0       -2.180054   -0.000130   -0.036531
      2          6           0       -1.008844   -0.001360   -0.660458
      3          6           0        0.345485   -0.000008    0.008284
      4          6           0        1.122181    1.266168   -0.400261
      5          6           0        1.123028   -1.266771   -0.396914
      6          8           0        0.125500    0.001866    1.417756
      7          1           0       -3.113524   -0.001314   -0.589303
      8          1           0       -2.240675    0.002021    1.045182
      9          1           0       -0.966920   -0.003482   -1.748317
     10          1           0        2.119428    1.267431    0.056401
     11          1           0        1.254261    1.322217   -1.485499
     12          1           0        0.584466    2.157510   -0.067651
     13          1           0        0.586258   -2.157571   -0.061325
     14          1           0        1.254423   -1.325816   -1.482067
     15          1           0        2.120511   -1.265910    0.059232
     16          1           0        0.986993    0.002587    1.846581
 ---------------------------------------------------------------------

 SCF Done:  E(RHF) =  -270.121346935     A.U. after    8 cycles

 The electronic state is 1-A.
 Alpha  occ. eigenvalues --  -20.55269 -11.29276 -11.22513 -11.21949 -11.21947
 Alpha  occ. eigenvalues --  -11.21327  -1.36439  -1.07812  -1.00348  -0.94159
 Alpha  occ. eigenvalues --   -0.83546  -0.74946  -0.67373  -0.63376  -0.61015
 Alpha  occ. eigenvalues --   -0.59821  -0.57923  -0.54929  -0.53789  -0.51266
 Alpha  occ. eigenvalues --   -0.50272  -0.46555  -0.44415  -0.35869
 Alpha virt. eigenvalues --    0.03280   0.04366   0.04448   0.04816   0.06404
 Alpha virt. eigenvalues --    0.06716   0.07036   0.07217   0.07504   0.09512
 Alpha virt. eigenvalues --    0.09769   0.10507   0.10785   0.10836   0.12084

 Mulliken charges:
               1
     1  C   -0.460409
     2  C   -0.257940
     3  C    0.500047
     4  C   -0.567309
     5  C   -0.567380
     6  O   -0.642178
     7  H    0.190660
     8  H    0.207878
     9  H    0.196981
    10  H    0.154564
    11  H    0.171859
    12  H    0.189522
    13  H    0.189530
    14  H    0.171866
    15  H    0.154589
    16  H    0.367721
 Sum of Mulliken charges =  -0.00000

 Dipole moment (field-independent basis, Debye):
    X=              1.7046    Y=             -0.0007    Z=             -0.7514  Tot=              1.8629
 Quadrupole moment (field-independent basis, Debye-Ang):
   XX=            -36.2625   YY=            -40.7949   ZZ=            -37.7697
   XY=              0.0032   XZ=              2.4029   YZ=              0.0065

 Normal termination of Gaussian 09 at Fri Aug 26 15:27:19 2022.
