 Gaussian 09, Revision E.01,
 Gaussian 09:  ES64L-G09RevE.01 30-Nov-2015

 -----
 #P G4
 -----

 ---------
 Frag_1158
 ---------
 Symbolic Z-matrix:
 Charge =  0 Multiplicity = 1

 SCF Done:  E(RB3LYP) =  -303.807597695     A.U. after   15 cycles
 SCF Done:  E(RB3LYP) =  -303.811068302     A.U. after   12 cycles
 SCF Done:  E(RB3LYP) =  -303.811114425     A.U. after   11 cycles
 SCF Done:  E(RB3LYP) =  -303.811133994     A.U. after   10 cycles
 SCF Done:  E(RB3LYP) =  -303.811145154     A.U. after   10 cycles
 SCF Done:  E(RB3LYP) =  -303.811157878     A.U. after   10 cycles
 SCF Done:  E(RB3LYP) =  -303.811174182     A.U. after   11 cycles
 SCF Done:  E(RB3LYP) =  -303.811180454     A.U. after   11 cycles
 SCF Done:  E(RB3LYP) =  -303.811126651     A.U. after   12 cycles
 SCF Done:  E(RB3LYP) =  -303.810804650     A.U. after   14 cycles
 SCF Done:  E(RB3LYP) =  -303.811670051     A.U. after    8 cycles
 SCF Done:  E(RB3LYP) =  -303.811670129     A.U. after    8 cycles
 SCF Done:  E(RB3LYP) =  -303.811670127     A.U. after    7 cycles
 Optimization completed.
    -- Stationary point found.
 Normal termination of Gaussian 09 at Tue Aug 30 10:41:36 2022.

 ----------------------------------------------------------
 #P Geom=AllCheck Guess=TCheck SCRF=Check B3LYP/GTBas3 Freq
 ----------------------------------------------------------

 Structure from the checkpoint file:  "G4.Frag_1158.chk"
 ---------
 Frag_1158
 ---------
 Charge =  0 Multiplicity = 1

 SCF Done:  E(RB3LYP) =  -303.811670127     A.U. after    1 cycles

  Exact polarizability:  70.066   4.998  58.599   0.360  -0.590  36.156
 Approx polarizability: 107.729  27.244  98.382   1.869   0.600  53.755

                      1                      2                      3
                      A                      A                      A
 Frequencies --     67.4536               118.2928               165.4283
 Red. masses --      1.1027                 1.1083                 1.2362
 Frc consts  --      0.0030                 0.0091                 0.0199
 IR Inten    --      0.5667                12.7156                 9.0752

                      4                      5                      6
                      A                      A                      A
 Frequencies --    175.8589               312.3540               334.8555
 Red. masses --      2.6901                 2.3891                 3.5972
 Frc consts  --      0.0490                 0.1373                 0.2376
 IR Inten    --      4.3055                 6.8609                 1.4409

                      7                      8                      9
                      A                      A                      A
 Frequencies --    397.7319               491.6747               557.2148
 Red. masses --      2.3123                 3.1423                 3.6756
 Frc consts  --      0.2155                 0.4476                 0.6724
 IR Inten    --      2.5533                 7.8159                10.3875

                     10                     11                     12
                      A                      A                      A
 Frequencies --    587.6778               687.6503               766.3640
 Red. masses --      4.9142                 1.4456                 3.3628
 Frc consts  --      1.0000                 0.4028                 1.1636
 IR Inten    --     10.2173               229.4794                17.3588

                     13                     14                     15
                      A                      A                      A
 Frequencies --    953.8043              1034.3692              1048.8344
 Red. masses --      2.0995                 1.5737                 1.4577
 Frc consts  --      1.1253                 0.9920                 0.9448
 IR Inten    --      9.9137                 1.0078                12.4442

                     16                     17                     18
                      A                      A                      A
 Frequencies --   1103.5346              1134.2269              1197.7919
 Red. masses --      1.3934                 1.3822                 2.6340
 Frc consts  --      0.9998                 1.0477                 2.2265
 IR Inten    --      0.6510                 4.5871                35.0921

                     19                     20                     21
                      A                      A                      A
 Frequencies --   1292.8668              1377.2490              1418.7845
 Red. masses --      3.7011                 1.5860                 1.2151
 Frc consts  --      3.6449                 1.7725                 1.4411
 IR Inten    --    180.7424                 0.7974                 4.1573

                     22                     23                     24
                      A                      A                      A
 Frequencies --   1432.7617              1455.6853              1483.9976
 Red. masses --      2.0888                 1.0605                 1.0811
 Frc consts  --      2.5263                 1.3240                 1.4028
 IR Inten    --      9.1962                 6.9457                 2.0796

                     25                     26                     27
                      A                      A                      A
 Frequencies --   1485.6479              1493.6627              1649.8502
 Red. masses --      1.0986                 1.0723                 1.2729
 Frc consts  --      1.4286                 1.4096                 2.0415
 IR Inten    --      5.2904                 5.2207                33.3201

                     28                     29                     30
                      A                      A                      A
 Frequencies --   1696.6174              3022.7878              3047.0206
 Red. masses --      3.8480                 1.0418                 1.0349
 Frc consts  --      6.5262                 5.6086                 5.6609
 IR Inten    --     12.5018                26.7682                23.1425

                     31                     32                     33
                      A                      A                      A
 Frequencies --   3079.5315              3125.5453              3140.5282
 Red. masses --      1.0950                 1.1011                 1.0988
 Frc consts  --      6.1182                 6.3374                 6.3853
 IR Inten    --     18.0457                11.7717                 1.5356

                     34                     35                     36
                      A                      A                      A
 Frequencies --   3169.1151              3535.5018              3639.9683
 Red. masses --      1.1034                 1.0518                 1.0925
 Frc consts  --      6.5292                 7.7464                 8.5282
 IR Inten    --      2.6111                 6.5984                21.3719

 - Thermochemistry -
 -------------------
 Temperature   298.150 Kelvin.  Pressure   1.00000 Atm.
 Atom     1 has atomic number  6 and mass  12.00000

 Molecular mass:    88.06366 amu.
 Principal axes and moments of inertia in atomic units:
                           1         2         3
     Eigenvalues --   366.82834 508.56126 848.12065
           X            0.98577  -0.16808  -0.00341
           Y            0.16802   0.98569  -0.01371
           Z            0.00566   0.01295   0.99990
 This molecule is an asymmetric top.
 Rotational symmetry number  1.
 Rotational temperatures (Kelvin)      0.23612     0.17031     0.10212
 Rotational constants (GHZ):           4.91985     3.54872     2.12793
 Zero-point vibrational energy     309128.4 (Joules/Mol)
                                   73.88347 (Kcal/Mol)
 Warning -- explicit consideration of  10 degrees of freedom as
           vibrations may cause significant error
 Vibrational temperatures:     97.05   170.20   238.01   253.02   449.41
          (Kelvin)            481.78   572.25   707.41   801.71   845.54
                              989.37  1102.63  1372.31  1488.22  1509.04
                             1587.74  1631.90  1723.35  1860.14  1981.55
                             2041.31  2061.42  2094.40  2135.14  2137.51
                             2149.04  2373.76  2441.05  4349.11  4383.98
                             4430.75  4496.96  4518.51  4559.64  5086.79
                             5237.10

 Zero-point correction=                           0.117741 (Hartree/Particle)
 Thermal correction to Energy=                    0.125402
 Thermal correction to Enthalpy=                  0.126346
 Thermal correction to Gibbs Free Energy=         0.086207
 Sum of electronic and zero-point Energies=           -303.693929
 Sum of electronic and thermal Energies=              -303.686268
 Sum of electronic and thermal Enthalpies=            -303.685324
 Sum of electronic and thermal Free Energies=         -303.725463

                     E (Thermal)             CV                S
                      KCal/Mol        Cal/Mol-Kelvin    Cal/Mol-Kelvin
 Total                   78.691             26.062             84.480
 Electronic               0.000              0.000              0.000
 Translational            0.889              2.981             39.339
 Rotational               0.889              2.981             26.562
 Vibrational             76.913             20.101             18.579
 Vibration     1          0.598              1.970              4.226
 Vibration     2          0.608              1.934              3.128
 Vibration     3          0.624              1.885              2.487
 Vibration     4          0.628              1.872              2.372
 Vibration     5          0.701              1.650              1.350
 Vibration     6          0.716              1.606              1.237
 Vibration     7          0.764              1.475              0.971
 Vibration     8          0.847              1.268              0.679
 Vibration     9          0.913              1.124              0.529
 Vibration    10          0.945              1.058              0.471

 Optimization completed.
    -- Stationary point found.
 Normal termination of Gaussian 09 at Tue Aug 30 10:42:07 2022.

 -----------------------------------------------------------------
 #P Geom=AllCheck Guess=TCheck SCRF=Check CCSD(T,E4T,FrzG4)/GTBas1
 -----------------------------------------------------------------

 Structure from the checkpoint file:  "G4.Frag_1158.chk"
 ---------
 Frag_1158
 ---------
 Charge =  0 Multiplicity = 1

 SCF Done:  E(RHF) =  -301.916467744     A.U. after   14 cycles
 E2 =    -0.9080974311D+00 EUMP2 =    -0.30282456517519D+03
 CCSD(T)
 CCSD(T)= -0.30290120033D+03
 =-302.8695039\CCSD=-302.8682972\CCSD(T)=-302.9012003\RMSD=3.820e-09\PG
 Normal termination of Gaussian 09 at Tue Aug 30 10:44:30 2022.

 ---------------------------------------------------------
 #P Geom=AllCheck Guess=TCheck SCRF=Check MP4=FrzG4/GTBas2
 ---------------------------------------------------------

 Structure from the checkpoint file:  "G4.Frag_1158.chk"
 ---------
 Frag_1158
 ---------
 Charge =  0 Multiplicity = 1

 SCF Done:  E(RHF) =  -301.929672706     A.U. after   14 cycles
 E2 =    -0.9223103022D+00 EUMP2 =    -0.30285198300860D+03
 Normal termination of Gaussian 09 at Tue Aug 30 10:45:08 2022.

 ---------------------------------------------------------
 #P Geom=AllCheck Guess=TCheck SCRF=Check MP4=FrzG4/GTBas3
 ---------------------------------------------------------

 Structure from the checkpoint file:  "G4.Frag_1158.chk"
 ---------
 Frag_1158
 ---------
 Charge =  0 Multiplicity = 1

 SCF Done:  E(RHF) =  -301.955779219     A.U. after   12 cycles
 E2 =    -0.1108452560D+01 EUMP2 =    -0.30306423177876D+03
 Normal termination of Gaussian 09 at Tue Aug 30 10:48:34 2022.

 -----------------------------------------------------------
 #P Geom=AllCheck Guess=TCheck SCRF=Check MP2=Full/GTLargeXP
 -----------------------------------------------------------

 Structure from the checkpoint file:  "G4.Frag_1158.chk"
 ---------
 Frag_1158
 ---------
 Charge =  0 Multiplicity = 1

 SCF Done:  E(RHF) =  -302.036426429     A.U. after   13 cycles
 E2 =    -0.1446345231D+01 EUMP2 =    -0.30348277165984D+03
 Normal termination of Gaussian 09 at Tue Aug 30 10:50:37 2022.
 SCF Done:  E(RHF) =  -302.060498765     A.U. after   10 cycles
 Normal termination of Gaussian 09 at Tue Aug 30 10:52:53 2022.

                         Standard orientation:
 ---------------------------------------------------------------------
 Center     Atomic      Atomic             Coordinates (Angstroms)
 Number     Number       Type             X           Y           Z
 ---------------------------------------------------------------------
      1          6           0        1.683018   -0.896117    0.042236
      2          6           0        0.618306    0.148044    0.005216
      3          7           0        0.947230    1.514025    0.030305
      4          7           0       -0.630858   -0.243324    0.005337
      5          6           0       -1.732420    0.731034    0.068682
      6          8           0       -0.986075   -1.481380   -0.080268
      7          1           0        1.930149   -1.252226   -0.966290
      8          1           0        2.597264   -0.502730    0.498491
      9          1           0        1.317431   -1.758770    0.602031
     10          1           0        1.946404    1.656827   -0.001826
     11          1           0        0.504137    2.073972   -0.687680
     12          1           0       -2.081721    0.965854   -0.941736
     13          1           0       -1.419423    1.643177    0.580517
     14          1           0       -2.533667    0.232264    0.612340
 ---------------------------------------------------------------------

 SCF Done:  E(RHF) =  -302.065588094     A.U. after    8 cycles

 The electronic state is 1-A.
 Alpha  occ. eigenvalues --  -20.47063 -15.67576 -15.59659 -11.33019 -11.26371
 Alpha  occ. eigenvalues --  -11.23888  -1.40676  -1.24925  -1.10340  -1.03048
 Alpha  occ. eigenvalues --   -0.94218  -0.76613  -0.72811  -0.69802  -0.65924
 Alpha  occ. eigenvalues --   -0.62040  -0.58250  -0.57076  -0.56007  -0.55381
 Alpha  occ. eigenvalues --   -0.51285  -0.48126  -0.38792  -0.30284
 Alpha virt. eigenvalues --    0.02634   0.03482   0.04750   0.05169   0.06812
 Alpha virt. eigenvalues --    0.07113   0.07316   0.08450   0.09085   0.09799
 Alpha virt. eigenvalues --    0.11000   0.12023   0.12345   0.13229   0.14063

 Mulliken charges:
               1
     1  C   -0.520165
     2  C    0.278338
     3  N   -0.706063
     4  N    0.271557
     5  C   -0.489287
     6  O   -0.711009
     7  H    0.193425
     8  H    0.166893
     9  H    0.247822
    10  H    0.318380
    11  H    0.331393
    12  H    0.188872
    13  H    0.202663
    14  H    0.227181
 Sum of Mulliken charges =  -0.00000

 Dipole moment (field-independent basis, Debye):
    X=              2.9683    Y=              4.8317    Z=             -0.7443  Tot=              5.7193
 Quadrupole moment (field-independent basis, Debye-Ang):
   XX=            -32.2204   YY=            -40.8997   ZZ=            -37.4514
   XY=             -4.7630   XZ=             -0.9704   YZ=             -3.1186

 Normal termination of Gaussian 09 at Tue Aug 30 11:00:04 2022.
