 Gaussian 09, Revision E.01,
 Gaussian 09:  ES64L-G09RevE.01 30-Nov-2015

 -----
 #P G4
 -----

 ---------
 Frag_1073
 ---------
 Symbolic Z-matrix:
 Charge =  0 Multiplicity = 1

 SCF Done:  E(RB3LYP) =  -265.750217838     A.U. after   12 cycles
 SCF Done:  E(RB3LYP) =  -265.755228487     A.U. after   11 cycles
 SCF Done:  E(RB3LYP) =  -265.755607751     A.U. after   10 cycles
 SCF Done:  E(RB3LYP) =  -265.755678449     A.U. after    9 cycles
 SCF Done:  E(RB3LYP) =  -265.755690509     A.U. after    8 cycles
 SCF Done:  E(RB3LYP) =  -265.755692230     A.U. after    7 cycles
 SCF Done:  E(RB3LYP) =  -265.755692821     A.U. after    7 cycles
 SCF Done:  E(RB3LYP) =  -265.755693579     A.U. after    7 cycles
 SCF Done:  E(RB3LYP) =  -265.755695238     A.U. after    9 cycles
 SCF Done:  E(RB3LYP) =  -265.755697357     A.U. after    9 cycles
 SCF Done:  E(RB3LYP) =  -265.761557061     A.U. after    8 cycles
 SCF Done:  E(RB3LYP) =  -265.761557458     A.U. after    7 cycles
 SCF Done:  E(RB3LYP) =  -265.761557571     A.U. after    7 cycles
 Optimization completed.
    -- Stationary point found.
 Normal termination of Gaussian 09 at Sun Aug 21 18:31:04 2022.

 ----------------------------------------------------------
 #P Geom=AllCheck Guess=TCheck SCRF=Check B3LYP/GTBas3 Freq
 ----------------------------------------------------------

 Structure from the checkpoint file:  "G4.Frag_1073.chk"
 ---------
 Frag_1073
 ---------
 Charge =  0 Multiplicity = 1

 SCF Done:  E(RB3LYP) =  -265.761557571     A.U. after    1 cycles

  Exact polarizability:  44.765  -1.213  42.689  -1.530   0.063  38.478
 Approx polarizability:  58.399  -3.334  58.712  -2.050  -1.343  56.792

                      1                      2                      3
                      A                      A                      A
 Frequencies --    103.2303               222.7474               260.2353
 Red. masses --      2.1132                 1.1029                 3.1352
 Frc consts  --      0.0133                 0.0322                 0.1251
 IR Inten    --      0.7377                32.8086                18.0503

                      4                      5                      6
                      A                      A                      A
 Frequencies --    314.9514               353.6675               450.7907
 Red. masses --      1.1956                 1.3105                 3.2117
 Frc consts  --      0.0699                 0.0966                 0.3845
 IR Inten    --     29.2761                56.9543                51.1483

                      7                      8                      9
                      A                      A                      A
 Frequencies --    463.2295               552.5055               799.0456
 Red. masses --      1.9406                 2.4512                 1.5312
 Frc consts  --      0.2453                 0.4409                 0.5760
 IR Inten    --     20.1395                11.2236               143.6948

                     10                     11                     12
                      A                      A                      A
 Frequencies --    836.8057               896.6539               953.0367
 Red. masses --      1.4795                 1.4980                 1.8459
 Frc consts  --      0.6104                 0.7096                 0.9878
 IR Inten    --    104.2775                79.4218                33.0207

                     13                     14                     15
                      A                      A                      A
 Frequencies --   1024.6952              1105.2331              1119.3508
 Red. masses --      2.3788                 3.4703                 1.5173
 Frc consts  --      1.4716                 2.4976                 1.1201
 IR Inten    --     62.5197                11.7276                62.9906

                     16                     17                     18
                      A                      A                      A
 Frequencies --   1129.5309              1269.1569              1292.1146
 Red. masses --      1.9404                 1.3898                 1.3450
 Frc consts  --      1.4586                 1.3190                 1.3231
 IR Inten    --     13.6232                12.0389                 2.6987

                     19                     20                     21
                      A                      A                      A
 Frequencies --   1363.8525              1374.7403              1418.5356
 Red. masses --      1.2595                 1.2711                 1.4724
 Frc consts  --      1.3803                 1.4154                 1.7457
 IR Inten    --     14.1573                 6.2420                18.2757

                     22                     23                     24
                      A                      A                      A
 Frequencies --   1434.6090              1477.3742              1641.0817
 Red. masses --      1.2561                 1.0903                 1.1064
 Frc consts  --      1.5232                 1.4021                 1.7556
 IR Inten    --     55.5052                 1.2516                38.1448

                     25                     26                     27
                      A                      A                      A
 Frequencies --   1655.6814              2948.3614              3034.2451
 Red. masses --      1.0921                 1.0831                 1.0601
 Frc consts  --      1.7639                 5.5471                 5.7503
 IR Inten    --     25.2268                71.7628                32.1982

                     28                     29                     30
                      A                      A                      A
 Frequencies --   3084.7067              3491.8827              3494.3216
 Red. masses --      1.1046                 1.0484                 1.0487
 Frc consts  --      6.1926                 7.5317                 7.5445
 IR Inten    --     28.0489                 0.3536                 0.5613

                     31                     32                     33
                      A                      A                      A
 Frequencies --   3572.8307              3578.6526              3776.5359
 Red. masses --      1.0920                 1.0933                 1.0647
 Frc consts  --      8.2130                 8.2496                 8.9470
 IR Inten    --      1.3652                 0.4234                18.7283

 - Thermochemistry -
 -------------------
 Temperature   298.150 Kelvin.  Pressure   1.00000 Atm.
 Atom     1 has atomic number  7 and mass  14.00307

 Molecular mass:    76.06366 amu.
 Principal axes and moments of inertia in atomic units:
                           1         2         3
     Eigenvalues --   214.45832 512.66403 663.18965
           X            0.99992   0.00899  -0.00921
           Y           -0.00868   0.99943   0.03268
           Z            0.00950  -0.03260   0.99942
 This molecule is an asymmetric top.
 Rotational symmetry number  1.
 Rotational temperatures (Kelvin)      0.40387     0.16895     0.13060
 Rotational constants (GHZ):           8.41535     3.52032     2.72130
 Zero-point vibrational energy     302023.5 (Joules/Mol)
                                   72.18536 (Kcal/Mol)
 Warning -- explicit consideration of   8 degrees of freedom as
           vibrations may cause significant error
 Vibrational temperatures:    148.53   320.48   374.42   453.14   508.85
          (Kelvin)            648.59   666.48   794.93  1149.65  1203.98
                             1290.08  1371.21  1474.31  1590.18  1610.49
                             1625.14  1826.03  1859.06  1962.28  1977.94
                             2040.95  2064.08  2125.61  2361.15  2382.15
                             4242.03  4365.60  4438.20  5024.03  5027.54
                             5140.50  5148.88  5433.59

 Zero-point correction=                           0.115035 (Hartree/Particle)
 Thermal correction to Energy=                    0.121471
 Thermal correction to Enthalpy=                  0.122415
 Thermal correction to Gibbs Free Energy=         0.085680
 Sum of electronic and zero-point Energies=           -265.646523
 Sum of electronic and thermal Energies=              -265.640086
 Sum of electronic and thermal Enthalpies=            -265.639142
 Sum of electronic and thermal Free Energies=         -265.675878

                     E (Thermal)             CV                S
                      KCal/Mol        Cal/Mol-Kelvin    Cal/Mol-Kelvin
 Total                   76.224             22.739             77.317
 Electronic               0.000              0.000              0.000
 Translational            0.889              2.981             38.903
 Rotational               0.889              2.981             25.792
 Vibrational             74.447             16.777             12.623
 Vibration     1          0.605              1.947              3.392
 Vibration     2          0.648              1.806              1.937
 Vibration     3          0.668              1.745              1.660
 Vibration     4          0.702              1.645              1.336
 Vibration     5          0.730              1.568              1.150
 Vibration     6          0.810              1.359              0.793
 Vibration     7          0.821              1.332              0.757
 Vibration     8          0.908              1.134              0.539

 Optimization completed.
    -- Stationary point found.
 Normal termination of Gaussian 09 at Sun Aug 21 18:32:45 2022.

 -----------------------------------------------------------------
 #P Geom=AllCheck Guess=TCheck SCRF=Check CCSD(T,E4T,FrzG4)/GTBas1
 -----------------------------------------------------------------

 Structure from the checkpoint file:  "G4.Frag_1073.chk"
 ---------
 Frag_1073
 ---------
 Charge =  0 Multiplicity = 1

 SCF Done:  E(RHF) =  -264.124615272     A.U. after   12 cycles
 E2 =    -0.7693846274D+00 EUMP2 =    -0.26489399989965D+03
 CCSD(T)
 CCSD(T)= -0.26496018384D+03
 4SDTQ=-264.9593787\MP4SDQ=-264.9391409\CCSD=-264.9398529\CCSD(T)=-264.
 Normal termination of Gaussian 09 at Sun Aug 21 18:35:16 2022.

 ---------------------------------------------------------
 #P Geom=AllCheck Guess=TCheck SCRF=Check MP4=FrzG4/GTBas2
 ---------------------------------------------------------

 Structure from the checkpoint file:  "G4.Frag_1073.chk"
 ---------
 Frag_1073
 ---------
 Charge =  0 Multiplicity = 1

 SCF Done:  E(RHF) =  -264.136418389     A.U. after   12 cycles
 E2 =    -0.7840884091D+00 EUMP2 =    -0.26492050679794D+03
 Normal termination of Gaussian 09 at Sun Aug 21 18:38:48 2022.

 ---------------------------------------------------------
 #P Geom=AllCheck Guess=TCheck SCRF=Check MP4=FrzG4/GTBas3
 ---------------------------------------------------------

 Structure from the checkpoint file:  "G4.Frag_1073.chk"
 ---------
 Frag_1073
 ---------
 Charge =  0 Multiplicity = 1

 SCF Done:  E(RHF) =  -264.166690479     A.U. after   11 cycles
 E2 =    -0.9536243506D+00 EUMP2 =    -0.26512031482949D+03
 Normal termination of Gaussian 09 at Sun Aug 21 19:33:10 2022.

 -----------------------------------------------------------
 #P Geom=AllCheck Guess=TCheck SCRF=Check MP2=Full/GTLargeXP
 -----------------------------------------------------------

 Structure from the checkpoint file:  "G4.Frag_1073.chk"
 ---------
 Frag_1073
 ---------
 Charge =  0 Multiplicity = 1

 SCF Done:  E(RHF) =  -264.241275501     A.U. after   12 cycles
 E2 =    -0.1242817000D+01 EUMP2 =    -0.26548409250051D+03
 Normal termination of Gaussian 09 at Sun Aug 21 19:36:12 2022.
 SCF Done:  E(RHF) =  -264.262368313     A.U. after    8 cycles
 Normal termination of Gaussian 09 at Sun Aug 21 19:39:31 2022.

                         Standard orientation:
 ---------------------------------------------------------------------
 Center     Atomic      Atomic             Coordinates (Angstroms)
 Number     Number       Type             X           Y           Z
 ---------------------------------------------------------------------
      1          7           0       -2.045422   -0.028306    0.055426
      2          6           0       -0.765996   -0.659476   -0.262218
      3          6           0        0.500723   -0.021896    0.336639
      4          7           0        0.705965    1.310631   -0.214391
      5          8           0        1.640909   -0.808927    0.062719
      6          1           0       -2.125233    0.885666   -0.377597
      7          1           0       -2.145770    0.103108    1.057642
      8          1           0       -0.654599   -0.679414   -1.353469
      9          1           0       -0.790629   -1.699995    0.078753
     10          1           0        0.415322   -0.037390    1.437375
     11          1           0       -0.141265    1.863571   -0.125147
     12          1           0        1.428597    1.793016    0.311809
     13          1           0        1.854141   -0.645190   -0.864889
 ---------------------------------------------------------------------

 SCF Done:  E(RHF) =  -264.267145631     A.U. after    8 cycles

 The electronic state is 1-A.
 Alpha  occ. eigenvalues --  -20.55626 -15.55403 -15.55006 -11.30912 -11.25056
 Alpha  occ. eigenvalues --   -1.37424  -1.19807  -1.16393  -0.95237  -0.82684
 Alpha  occ. eigenvalues --   -0.71066  -0.67882  -0.67231  -0.63055  -0.60015
 Alpha  occ. eigenvalues --   -0.54653  -0.53669  -0.50753  -0.48351  -0.42419
 Alpha  occ. eigenvalues --   -0.38698
 Alpha virt. eigenvalues --    0.03730   0.04699   0.05144   0.05417   0.07483
 Alpha virt. eigenvalues --    0.07558   0.08323   0.09202   0.09435   0.12397
 Alpha virt. eigenvalues --    0.12694   0.12863   0.13201   0.14297   0.16039

 Mulliken charges:
               1
     1  N   -0.695573
     2  C   -0.195637
     3  C    0.169299
     4  N   -0.698094
     5  O   -0.600316
     6  H    0.282974
     7  H    0.285593
     8  H    0.164588
     9  H    0.185699
    10  H    0.145018
    11  H    0.282124
    12  H    0.302067
    13  H    0.372258
 Sum of Mulliken charges =  -0.00000

 Dipole moment (field-independent basis, Debye):
    X=             -0.3554    Y=              2.1140    Z=              0.6225  Tot=              2.2322
 Quadrupole moment (field-independent basis, Debye-Ang):
   XX=            -37.4433   YY=            -30.7899   ZZ=            -30.0681
   XY=             -0.9517   XZ=             -2.7405   YZ=              2.5080

 Normal termination of Gaussian 09 at Sun Aug 21 21:17:54 2022.
