 Gaussian 09, Revision E.01,
 Gaussian 09:  ES64L-G09RevE.01 30-Nov-2015

 -----
 #P G4
 -----

 --------
 Frag_945
 --------
 Symbolic Z-matrix:
 Charge =  0 Multiplicity = 1

 SCF Done:  E(RB3LYP) =  -383.703818053     A.U. after   12 cycles
 SCF Done:  E(RB3LYP) =  -383.711767045     A.U. after   11 cycles
 SCF Done:  E(RB3LYP) =  -383.712064056     A.U. after   10 cycles
 SCF Done:  E(RB3LYP) =  -383.712114703     A.U. after    9 cycles
 SCF Done:  E(RB3LYP) =  -383.712121150     A.U. after    7 cycles
 SCF Done:  E(RB3LYP) =  -383.712121982     A.U. after    7 cycles
 SCF Done:  E(RB3LYP) =  -383.712122021     A.U. after    7 cycles
 SCF Done:  E(RB3LYP) =  -383.712122140     A.U. after    6 cycles
 Optimization completed.
    -- Stationary point found.
 Normal termination of Gaussian 09 at Fri Aug 26 12:38:01 2022.

 ----------------------------------------------------------
 #P Geom=AllCheck Guess=TCheck SCRF=Check B3LYP/GTBas3 Freq
 ----------------------------------------------------------

 Structure from the checkpoint file:  "G4.Frag_945.chk"
 --------
 Frag_945
 --------
 Charge =  0 Multiplicity = 1

 SCF Done:  E(RB3LYP) =  -383.712122140     A.U. after    1 cycles

  Exact polarizability:  75.883  -0.001  73.517  -0.599  -0.001  71.124
 Approx polarizability: 103.972  -0.001 104.055  -0.503  -0.002 105.712

                      1                      2                      3
                      A                      A                      A
 Frequencies --     65.9653                93.9046               215.2745
 Red. masses --      1.6685                 1.4701                 1.0856
 Frc consts  --      0.0043                 0.0076                 0.0296
 IR Inten    --     10.2861                18.2933                25.7183

                      4                      5                      6
                      A                      A                      A
 Frequencies --    245.1687               248.3651               253.4391
 Red. masses --      1.2957                 1.1756                 1.0527
 Frc consts  --      0.0459                 0.0427                 0.0398
 IR Inten    --     11.1994                13.9274                32.1800

                      7                      8                      9
                      A                      A                      A
 Frequencies --    258.3995               290.3342               294.3276
 Red. masses --      1.4667                 1.5608                 2.2569
 Frc consts  --      0.0577                 0.0775                 0.1152
 IR Inten    --      5.0903                30.3271                 1.2954

                     10                     11                     12
                      A                      A                      A
 Frequencies --    356.4690               359.2761               382.6294
 Red. masses --      2.6270                 3.2304                 2.0390
 Frc consts  --      0.1967                 0.2457                 0.1759
 IR Inten    --      7.0855                 7.1147                 2.9359

                     13                     14                     15
                      A                      A                      A
 Frequencies --    416.0406               417.6458               514.2422
 Red. masses --      2.4518                 2.9551                 2.9349
 Frc consts  --      0.2500                 0.3037                 0.4573
 IR Inten    --      5.7650                 5.9065                 0.1140

                     16                     17                     18
                      A                      A                      A
 Frequencies --    527.7050               544.0233               668.1022
 Red. masses --      2.7859                 2.8510                 3.3343
 Frc consts  --      0.4571                 0.4971                 0.8769
 IR Inten    --      7.2168                20.2547                11.2978

                     19                     20                     21
                      A                      A                      A
 Frequencies --    839.1186               841.0697               884.0469
 Red. masses --      1.7215                 2.9496                 2.0953
 Frc consts  --      0.7142                 1.2294                 0.9648
 IR Inten    --     92.7695                23.5882                 0.7487

                     22                     23                     24
                      A                      A                      A
 Frequencies --    918.1878               920.8947               956.2635
 Red. masses --      1.4999                 1.4243                 2.1875
 Frc consts  --      0.7450                 0.7117                 1.1785
 IR Inten    --      1.2520               247.2207                33.4304

                     25                     26                     27
                      A                      A                      A
 Frequencies --    990.9786              1008.2613              1037.8408
 Red. masses --      1.3320                 1.2758                 1.8016
 Frc consts  --      0.7707                 0.7641                 1.1433
 IR Inten    --      3.9124                 0.0524                41.6044

                     28                     29                     30
                      A                      A                      A
 Frequencies --   1111.8426              1127.8009              1154.6701
 Red. masses --      1.4673                 1.4942                 2.0845
 Frc consts  --      1.0687                 1.1197                 1.6375
 IR Inten    --      5.3299                49.6376               116.9765

                     31                     32                     33
                      A                      A                      A
 Frequencies --   1203.9304              1204.2736              1297.6467
 Red. masses --      3.0257                 2.5845                 2.2873
 Frc consts  --      2.5839                 2.2084                 2.2692
 IR Inten    --     13.6584                15.7291                15.6468

                     34                     35                     36
                      A                      A                      A
 Frequencies --   1341.5692              1380.3312              1394.1690
 Red. masses --      1.7538                 1.3249                 1.2807
 Frc consts  --      1.8598                 1.4873                 1.4667
 IR Inten    --     36.8909                 2.7199                 9.4684

                     37                     38                     39
                      A                      A                      A
 Frequencies --   1412.7617              1418.7023              1479.3983
 Red. masses --      1.2719                 1.7187                 1.0499
 Frc consts  --      1.4957                 2.0381                 1.3538
 IR Inten    --     11.5140                10.7567                 1.9142

                     40                     41                     42
                      A                      A                      A
 Frequencies --   1486.7794              1490.0187              1499.9386
 Red. masses --      1.0490                 1.0484                 1.0532
 Frc consts  --      1.3662                 1.3714                 1.3961
 IR Inten    --      2.8189                 2.0577                 0.7922

                     43                     44                     45
                      A                      A                      A
 Frequencies --   1504.0753              1511.5635              1639.7938
 Red. masses --      1.0588                 1.0609                 1.0868
 Frc consts  --      1.4113                 1.4282                 1.7217
 IR Inten    --      2.7478                 9.1134                33.2694

                     46                     47                     48
                      A                      A                      A
 Frequencies --   1680.9864              3028.0488              3034.5695
 Red. masses --      1.0989                 1.0411                 1.0405
 Frc consts  --      1.8294                 5.6243                 5.6454
 IR Inten    --      7.3672                12.6416                29.4281

                     49                     50                     51
                      A                      A                      A
 Frequencies --   3048.6948              3089.5560              3097.9955
 Red. masses --      1.0369                 1.0956                 1.0940
 Frc consts  --      5.6783                 6.1614                 6.1865
 IR Inten    --     14.6670                 0.9028                49.3149

                     52                     53                     54
                      A                      A                      A
 Frequencies --   3114.5739              3127.7146              3129.4821
 Red. masses --      1.1000                 1.1010                 1.1006
 Frc consts  --      6.2867                 6.3461                 6.3507
 IR Inten    --     39.1241                 9.5690                21.1038

                     55                     56                     57
                      A                      A                      A
 Frequencies --   3138.5034              3490.1337              3492.2461
 Red. masses --      1.1007                 1.0488                 1.0490
 Frc consts  --      6.3880                 7.5271                 7.5380
 IR Inten    --     16.5835                 0.5961                 2.4915

                     58                     59                     60
                      A                      A                      A
 Frequencies --   3574.1823              3574.9063              3820.6409
 Red. masses --      1.0918                 1.0907                 1.0664
 Frc consts  --      8.2175                 8.2128                 9.1713
 IR Inten    --      0.1615                 3.1535                13.9878

 - Thermochemistry -
 -------------------
 Temperature   298.150 Kelvin.  Pressure   1.00000 Atm.
 Atom     1 has atomic number  6 and mass  12.00000

 Molecular mass:   118.11061 amu.
 Principal axes and moments of inertia in atomic units:
                           1         2         3
     Eigenvalues --   744.509651039.072461047.41056
           X            0.99999  -0.00003  -0.00487
           Y            0.00003   1.00000   0.00010
           Z            0.00487  -0.00010   0.99999
 This molecule is an asymmetric top.
 Rotational symmetry number  1.
 Warning -- assumption of classical behavior for rotation
           may cause significant error
 Rotational temperatures (Kelvin)      0.11634     0.08336     0.08269
 Rotational constants (GHZ):           2.42407     1.73688     1.72305
 Zero-point vibrational energy     518278.9 (Joules/Mol)
                                  123.87164 (Kcal/Mol)
 Warning -- explicit consideration of  17 degrees of freedom as
           vibrations may cause significant error
 Vibrational temperatures:     94.91   135.11   309.73   352.74   357.34
          (Kelvin)            364.64   371.78   417.73   423.47   512.88
                              516.92   550.52   598.59   600.90   739.88
                              759.25   782.73   961.25  1207.30  1210.11
                             1271.94  1321.07  1324.96  1375.85  1425.80
                             1450.66  1493.22  1599.69  1622.65  1661.31
                             1732.19  1732.68  1867.02  1930.22  1985.99
                             2005.90  2032.65  2041.19  2128.52  2139.14
                             2143.80  2158.07  2164.03  2174.80  2359.29
                             2418.56  4356.68  4366.06  4386.39  4445.18
                             4457.32  4481.17  4500.08  4502.62  4515.60
                             5021.52  5024.56  5142.44  5143.49  5497.04

 Zero-point correction=                           0.197402 (Hartree/Particle)
 Thermal correction to Energy=                    0.208101
 Thermal correction to Enthalpy=                  0.209046
 Thermal correction to Gibbs Free Energy=         0.163024
 Sum of electronic and zero-point Energies=           -383.514720
 Sum of electronic and thermal Energies=              -383.504021
 Sum of electronic and thermal Enthalpies=            -383.503076
 Sum of electronic and thermal Free Energies=         -383.549098

                     E (Thermal)             CV                S
                      KCal/Mol        Cal/Mol-Kelvin    Cal/Mol-Kelvin
 Total                  130.586             40.641             96.861
 Electronic               0.000              0.000              0.000
 Translational            0.889              2.981             40.214
 Rotational               0.889              2.981             28.185
 Vibrational            128.808             34.679             28.462
 Vibration     1          0.597              1.971              4.270
 Vibration     2          0.603              1.954              3.577
 Vibration     3          0.645              1.818              1.998
 Vibration     4          0.660              1.771              1.765
 Vibration     5          0.662              1.765              1.742
 Vibration     6          0.665              1.757              1.707
 Vibration     7          0.667              1.749              1.673
 Vibration     8          0.686              1.692              1.472
 Vibration     9          0.689              1.684              1.449
 Vibration    10          0.732              1.562              1.137
 Vibration    11          0.734              1.556              1.125
 Vibration    12          0.752              1.507              1.029
 Vibration    13          0.779              1.435              0.906
 Vibration    14          0.781              1.432              0.900
 Vibration    15          0.869              1.218              0.623
 Vibration    16          0.883              1.189              0.592
 Vibration    17          0.899              1.153              0.557

 Optimization completed.
    -- Stationary point found.
 Normal termination of Gaussian 09 at Fri Aug 26 12:39:32 2022.

 -----------------------------------------------------------------
 #P Geom=AllCheck Guess=TCheck SCRF=Check CCSD(T,E4T,FrzG4)/GTBas1
 -----------------------------------------------------------------

 Structure from the checkpoint file:  "G4.Frag_945.chk"
 --------
 Frag_945
 --------
 Charge =  0 Multiplicity = 1

 SCF Done:  E(RHF) =  -381.223235670     A.U. after   12 cycles
 E2 =    -0.1177498834D+01 EUMP2 =    -0.38240073450470D+03
 CCSD(T)
 CCSD(T)= -0.38251374080D+03
 29566\MP4SDQ=-382.4768303\CCSD=-382.4776902\CCSD(T)=-382.5137408\RMSD=
 Normal termination of Gaussian 09 at Fri Aug 26 12:49:28 2022.

 ---------------------------------------------------------
 #P Geom=AllCheck Guess=TCheck SCRF=Check MP4=FrzG4/GTBas2
 ---------------------------------------------------------

 Structure from the checkpoint file:  "G4.Frag_945.chk"
 --------
 Frag_945
 --------
 Charge =  0 Multiplicity = 1

 SCF Done:  E(RHF) =  -381.235317424     A.U. after   12 cycles
 E2 =    -0.1196730212D+01 EUMP2 =    -0.38243204763657D+03
 Normal termination of Gaussian 09 at Fri Aug 26 12:53:00 2022.

 ---------------------------------------------------------
 #P Geom=AllCheck Guess=TCheck SCRF=Check MP4=FrzG4/GTBas3
 ---------------------------------------------------------

 Structure from the checkpoint file:  "G4.Frag_945.chk"
 --------
 Frag_945
 --------
 Charge =  0 Multiplicity = 1

 SCF Done:  E(RHF) =  -381.280285472     A.U. after   11 cycles
 E2 =    -0.1461192030D+01 EUMP2 =    -0.38274147750237D+03
 Normal termination of Gaussian 09 at Fri Aug 26 13:22:53 2022.

 -----------------------------------------------------------
 #P Geom=AllCheck Guess=TCheck SCRF=Check MP2=Full/GTLargeXP
 -----------------------------------------------------------

 Structure from the checkpoint file:  "G4.Frag_945.chk"
 --------
 Frag_945
 --------
 Charge =  0 Multiplicity = 1

 SCF Done:  E(RHF) =  -381.375082112     A.U. after   12 cycles
 E2 =    -0.1908843425D+01 EUMP2 =    -0.38328392553792D+03
 Normal termination of Gaussian 09 at Fri Aug 26 13:30:44 2022.
 SCF Done:  E(RHF) =  -381.404724927     A.U. after    9 cycles
 Normal termination of Gaussian 09 at Fri Aug 26 13:33:59 2022.

                         Standard orientation:
 ---------------------------------------------------------------------
 Center     Atomic      Atomic             Coordinates (Angstroms)
 Number     Number       Type             X           Y           Z
 ---------------------------------------------------------------------
      1          6           0       -1.433993    0.000827    1.384697
      2          6           0       -0.819757   -0.000034   -0.017887
      3          7           0       -1.336947   -1.174448   -0.731834
      4          7           0       -1.337035    1.173435   -0.733330
      5          6           0        0.767538    0.000028    0.008843
      6          6           0        1.360147    1.254868    0.667475
      7          6           0        1.360231   -1.254636    0.667734
      8          8           0        1.107099   -0.000096   -1.390486
      9          1           0       -2.520530    0.000812    1.279036
     10          1           0       -1.141465   -0.883520    1.957910
     11          1           0       -1.141384    0.885831    1.956857
     12          1           0       -0.827097   -1.274350   -1.605806
     13          1           0       -1.151029   -2.015259   -0.194638
     14          1           0       -0.827174    1.272297   -1.607415
     15          1           0       -1.151244    2.014940   -0.197182
     16          1           0        1.002727    2.163551    0.178165
     17          1           0        2.453682    1.241187    0.585137
     18          1           0        1.118319    1.309973    1.732823
     19          1           0        2.453752   -1.241005    0.585209
     20          1           0        1.118579   -1.309444    1.733135
     21          1           0        1.002707   -2.163446    0.178731
     22          1           0        2.066247   -0.000017   -1.467104
 ---------------------------------------------------------------------

 SCF Done:  E(RHF) =  -381.411315167     A.U. after    8 cycles

 The electronic state is 1-A.
 Alpha  occ. eigenvalues --  -20.55976 -15.52408 -15.52406 -11.29175 -11.28632
 Alpha  occ. eigenvalues --  -11.22399 -11.22397 -11.21126  -1.37015  -1.21567
 Alpha  occ. eigenvalues --   -1.11463  -1.05027  -0.96847  -0.94607  -0.85129
 Alpha  occ. eigenvalues --   -0.74894  -0.68721  -0.66734  -0.64411  -0.64041
 Alpha  occ. eigenvalues --   -0.61632  -0.58861  -0.56699  -0.55131  -0.54645
 Alpha  occ. eigenvalues --   -0.53008  -0.51755  -0.51371  -0.49088  -0.48544
 Alpha  occ. eigenvalues --   -0.44502  -0.40019  -0.37393
 Alpha virt. eigenvalues --    0.02602   0.03840   0.04064   0.05091   0.05859
 Alpha virt. eigenvalues --    0.06521   0.06581   0.06778   0.07286   0.09034
 Alpha virt. eigenvalues --    0.09385   0.09521   0.09613   0.10096   0.10621

 Mulliken charges:
               1
     1  C   -0.615931
     2  C    0.420448
     3  N   -0.763717
     4  N   -0.763717
     5  C    0.446673
     6  C   -0.611571
     7  C   -0.611554
     8  O   -0.651075
     9  H    0.212882
    10  H    0.162632
    11  H    0.162650
    12  H    0.313971
    13  H    0.283066
    14  H    0.314017
    15  H    0.283057
    16  H    0.175466
    17  H    0.163329
    18  H    0.183842
    19  H    0.163316
    20  H    0.183833
    21  H    0.175451
    22  H    0.372931
 Sum of Mulliken charges =  -0.00000

 Dipole moment (field-independent basis, Debye):
    X=              3.8007    Y=              0.0007    Z=              1.7364  Tot=              4.1786
 Quadrupole moment (field-independent basis, Debye-Ang):
   XX=            -56.5328   YY=            -48.8434   ZZ=            -52.3199
   XY=             -0.0027   XZ=             -4.5007   YZ=             -0.0016

 Normal termination of Gaussian 09 at Fri Aug 26 13:57:00 2022.
