 Gaussian 09, Revision E.01,
 Gaussian 09:  ES64L-G09RevE.01 30-Nov-2015

 -----
 #P G4
 -----

 --------
 Frag_653
 --------
 Symbolic Z-matrix:
 Charge =  0 Multiplicity = 1

 SCF Done:  E(RB3LYP) =  -323.682423978     A.U. after   19 cycles
 SCF Done:  E(RB3LYP) =  -323.715963007     A.U. after   13 cycles
 SCF Done:  E(RB3LYP) =  -323.726958610     A.U. after   13 cycles
 SCF Done:  E(RB3LYP) =  -323.724565022     A.U. after   14 cycles
 SCF Done:  E(RB3LYP) =  -323.729398531     A.U. after   12 cycles
 SCF Done:  E(RB3LYP) =  -323.734232101     A.U. after   13 cycles
 SCF Done:  E(RB3LYP) =  -323.738951257     A.U. after   13 cycles
 SCF Done:  E(RB3LYP) =  -323.745940891     A.U. after   13 cycles
 SCF Done:  E(RB3LYP) =  -323.752158271     A.U. after   13 cycles
 SCF Done:  E(RB3LYP) =  -323.725884371     A.U. after   14 cycles
 SCF Done:  E(RB3LYP) =  -323.773637319     A.U. after    9 cycles
 SCF Done:  E(RB3LYP) =  -323.773637617     A.U. after    8 cycles
 SCF Done:  E(RB3LYP) =  -323.773637755     A.U. after    7 cycles
 Optimization completed.
    -- Stationary point found.
 Normal termination of Gaussian 09 at Thu Aug 25 11:23:35 2022.

 ----------------------------------------------------------
 #P Geom=AllCheck Guess=TCheck SCRF=Check B3LYP/GTBas3 Freq
 ----------------------------------------------------------

 Structure from the checkpoint file:  "G4.Frag_653.chk"
 --------
 Frag_653
 --------
 Charge =  0 Multiplicity = 1

 SCF Done:  E(RB3LYP) =  -323.773637755     A.U. after    1 cycles

  Exact polarizability:  49.187  -1.601  51.007  -0.662  -0.452  37.075
 Approx polarizability:  65.758  -5.238  77.365  -1.691  -1.416  55.700

                      1                      2                      3
                      A                      A                      A
 Frequencies --     74.0011               221.7189               272.9860
 Red. masses --      4.0188                 1.0826                 3.0585
 Frc consts  --      0.0130                 0.0314                 0.1343
 IR Inten    --      1.2209                 0.2598                16.0615

                      4                      5                      6
                      A                      A                      A
 Frequencies --    292.4131               351.1914               405.5573
 Red. masses --      1.1781                 3.2741                 2.5548
 Frc consts  --      0.0594                 0.2379                 0.2476
 IR Inten    --     15.2515                13.8392                 4.7722

                      7                      8                      9
                      A                      A                      A
 Frequencies --    529.6746               560.9809               736.4763
 Red. masses --      5.9808                 3.8489                 5.0193
 Frc consts  --      0.9886                 0.7136                 1.6040
 IR Inten    --      0.8024                 4.6127                 7.9018

                     10                     11                     12
                      A                      A                      A
 Frequencies --    802.5981               855.9674               885.5883
 Red. masses --      3.3711                 1.3830                 1.4601
 Frc consts  --      1.2794                 0.5970                 0.6747
 IR Inten    --      8.8476                91.5434                58.6186

                     13                     14                     15
                      A                      A                      A
 Frequencies --    941.2202              1018.5631              1090.7685
 Red. masses --      1.3171                 1.3272                 2.3313
 Frc consts  --      0.6875                 0.8113                 1.6342
 IR Inten    --     46.5594                 0.5123                44.5274

                     16                     17                     18
                      A                      A                      A
 Frequencies --   1147.5578              1216.8049              1234.5529
 Red. masses --      2.1985                 1.9376                 2.3211
 Frc consts  --      1.7058                 1.6903                 2.0843
 IR Inten    --      8.4801                11.3561                11.0290

                     19                     20                     21
                      A                      A                      A
 Frequencies --   1316.4702              1392.1679              1403.5378
 Red. masses --      1.4232                 1.2631                 1.2472
 Frc consts  --      1.4532                 1.4424                 1.4476
 IR Inten    --     11.6652                 4.0274                 4.2479

                     22                     23                     24
                      A                      A                      A
 Frequencies --   1428.9577              1489.4729              1497.8446
 Red. masses --      1.5613                 1.0507                 1.0593
 Frc consts  --      1.8783                 1.3733                 1.4003
 IR Inten    --    393.4657                 3.1802                 9.9576

                     25                     26                     27
                      A                      A                      A
 Frequencies --   1658.4996              1868.1388              3034.0102
 Red. masses --      1.0921                 9.7270                 1.0697
 Frc consts  --      1.7699                20.0009                 5.8016
 IR Inten    --     26.9905               265.6065                 1.8757

                     28                     29                     30
                      A                      A                      A
 Frequencies --   3039.4326              3105.1517              3143.2742
 Red. masses --      1.0506                 1.1008                 1.0995
 Frc consts  --      5.7183                 6.2534                 6.4007
 IR Inten    --     25.9256                26.3838                 6.5944

                     31                     32                     33
                      A                      A                      A
 Frequencies --   3474.9342              3501.1713              3586.1858
 Red. masses --      1.0636                 1.0518                 1.0920
 Frc consts  --      7.5668                 7.5967                 8.2746
 IR Inten    --    238.2714                 7.4598                 5.6973

 - Thermochemistry -
 -------------------
 Temperature   298.150 Kelvin.  Pressure   1.00000 Atm.
 Atom     1 has atomic number  6 and mass  12.00000

 Molecular mass:    89.04768 amu.
 Principal axes and moments of inertia in atomic units:
                           1         2         3
     Eigenvalues --   371.99061 523.70722 839.56591
           X            0.99771   0.06742   0.00557
           Y           -0.06745   0.99771   0.00548
           Z           -0.00519  -0.00584   0.99997
 This molecule is an asymmetric top.
 Rotational symmetry number  1.
 Rotational temperatures (Kelvin)      0.23284     0.16539     0.10316
 Rotational constants (GHZ):           4.85158     3.44609     2.14961
 Zero-point vibrational energy     284578.9 (Joules/Mol)
                                   68.01598 (Kcal/Mol)
 Warning -- explicit consideration of   8 degrees of freedom as
           vibrations may cause significant error
 Vibrational temperatures:    106.47   319.00   392.77   420.72   505.29
          (Kelvin)            583.51   762.08   807.13  1059.62  1154.76
                             1231.54  1274.16  1354.20  1465.48  1569.37
                             1651.08  1750.71  1776.24  1894.10  2003.02
                             2019.38  2055.95  2143.02  2155.06  2386.21
                             2687.83  4365.26  4373.06  4467.62  4522.46
                             4999.65  5037.40  5159.72

 Zero-point correction=                           0.108390 (Hartree/Particle)
 Thermal correction to Energy=                    0.114971
 Thermal correction to Enthalpy=                  0.115915
 Thermal correction to Gibbs Free Energy=         0.078143
 Sum of electronic and zero-point Energies=           -323.665247
 Sum of electronic and thermal Energies=              -323.658667
 Sum of electronic and thermal Enthalpies=            -323.657723
 Sum of electronic and thermal Free Energies=         -323.695495

                     E (Thermal)             CV                S
                      KCal/Mol        Cal/Mol-Kelvin    Cal/Mol-Kelvin
 Total                   72.145             23.344             79.497
 Electronic               0.000              0.000              0.000
 Translational            0.889              2.981             39.372
 Rotational               0.889              2.981             26.595
 Vibrational             70.368             17.383             13.530
 Vibration     1          0.599              1.966              4.044
 Vibration     2          0.648              1.808              1.945
 Vibration     3          0.676              1.723              1.577
 Vibration     4          0.688              1.688              1.460
 Vibration     5          0.728              1.573              1.161
 Vibration     6          0.771              1.458              0.942
 Vibration     7          0.885              1.184              0.588
 Vibration     8          0.917              1.116              0.522

 Optimization completed.
    -- Stationary point found.
 Normal termination of Gaussian 09 at Thu Aug 25 11:25:39 2022.

 -----------------------------------------------------------------
 #P Geom=AllCheck Guess=TCheck SCRF=Check CCSD(T,E4T,FrzG4)/GTBas1
 -----------------------------------------------------------------

 Structure from the checkpoint file:  "G4.Frag_653.chk"
 --------
 Frag_653
 --------
 Charge =  0 Multiplicity = 1

 SCF Done:  E(RHF) =  -321.861064299     A.U. after   13 cycles
 E2 =    -0.9081454254D+00 EUMP2 =    -0.32276920972470D+03
 CCSD(T)
 CCSD(T)= -0.32283683479D+03
 25\MP4SDTQ=-322.8400855\MP4SDQ=-322.8097314\CCSD=-322.808381\CCSD(T)=-
 Normal termination of Gaussian 09 at Thu Aug 25 11:31:01 2022.

 ---------------------------------------------------------
 #P Geom=AllCheck Guess=TCheck SCRF=Check MP4=FrzG4/GTBas2
 ---------------------------------------------------------

 Structure from the checkpoint file:  "G4.Frag_653.chk"
 --------
 Frag_653
 --------
 Charge =  0 Multiplicity = 1

 SCF Done:  E(RHF) =  -321.871049769     A.U. after   13 cycles
 E2 =    -0.9223665007D+00 EUMP2 =    -0.32279341626943D+03
 Normal termination of Gaussian 09 at Thu Aug 25 11:36:25 2022.

 ---------------------------------------------------------
 #P Geom=AllCheck Guess=TCheck SCRF=Check MP4=FrzG4/GTBas3
 ---------------------------------------------------------

 Structure from the checkpoint file:  "G4.Frag_653.chk"
 --------
 Frag_653
 --------
 Charge =  0 Multiplicity = 1

 SCF Done:  E(RHF) =  -321.903161841     A.U. after   12 cycles
 E2 =    -0.1117187910D+01 EUMP2 =    -0.32302034975073D+03
 Normal termination of Gaussian 09 at Thu Aug 25 13:52:48 2022.

 -----------------------------------------------------------
 #P Geom=AllCheck Guess=TCheck SCRF=Check MP2=Full/GTLargeXP
 -----------------------------------------------------------

 Structure from the checkpoint file:  "G4.Frag_653.chk"
 --------
 Frag_653
 --------
 Charge =  0 Multiplicity = 1

 SCF Done:  E(RHF) =  -321.989668355     A.U. after   13 cycles
 E2 =    -0.1458865534D+01 EUMP2 =    -0.32344853388914D+03
 Normal termination of Gaussian 09 at Thu Aug 25 13:57:59 2022.
 SCF Done:  E(RHF) =  -322.015404790     A.U. after    9 cycles
 Normal termination of Gaussian 09 at Thu Aug 25 14:03:20 2022.

                         Standard orientation:
 ---------------------------------------------------------------------
 Center     Atomic      Atomic             Coordinates (Angstroms)
 Number     Number       Type             X           Y           Z
 ---------------------------------------------------------------------
      1          6           0        1.460182    1.158368    0.204717
      2          6           0        0.645741    0.001022   -0.374707
      3          7           0        1.081883   -1.349239    0.027526
      4          6           0       -0.858458    0.162590   -0.054483
      5          8           0       -1.415541    1.227558   -0.031489
      6          8           0       -1.487647   -0.999501    0.159189
      7          1           0        1.015670    2.111061   -0.088513
      8          1           0        2.495376    1.120463   -0.146915
      9          1           0        1.465535    1.116394    1.299877
     10          1           0        0.701846    0.038556   -1.470269
     11          1           0        1.428197   -1.338224    0.983046
     12          1           0       -0.779799   -1.679671    0.112567
     13          1           0        1.840711   -1.680250   -0.557237
 ---------------------------------------------------------------------

 SCF Done:  E(RHF) =  -322.020898296     A.U. after    7 cycles

 The electronic state is 1-A.
 Alpha  occ. eigenvalues --  -20.59277 -20.53252 -15.58445 -11.37332 -11.29574
 Alpha  occ. eigenvalues --  -11.23608  -1.45056  -1.35522  -1.22315  -1.02784
 Alpha  occ. eigenvalues --   -0.90084  -0.80261  -0.74338  -0.68736  -0.66387
 Alpha  occ. eigenvalues --   -0.62965  -0.61648  -0.59177  -0.57063  -0.53408
 Alpha  occ. eigenvalues --   -0.52595  -0.46756  -0.46273  -0.42221
 Alpha virt. eigenvalues --    0.02671   0.03932   0.04397   0.05438   0.07067
 Alpha virt. eigenvalues --    0.07380   0.07583   0.07842   0.08358   0.10264
 Alpha virt. eigenvalues --    0.11464   0.12229   0.12264   0.13854   0.14303

 Mulliken charges:
               1
     1  C   -0.543454
     2  C    0.061665
     3  N   -0.741592
     4  C    0.527549
     5  O   -0.544596
     6  O   -0.539733
     7  H    0.218191
     8  H    0.163312
     9  H    0.164904
    10  H    0.185088
    11  H    0.302811
    12  H    0.426507
    13  H    0.319349
 Sum of Mulliken charges =  -0.00000

 Dipole moment (field-independent basis, Debye):
    X=              5.2599    Y=             -2.2451    Z=             -0.3358  Tot=              5.7289
 Quadrupole moment (field-independent basis, Debye-Ang):
   XX=            -40.1342   YY=            -38.4365   ZZ=            -33.8053
   XY=              0.7100   XZ=              0.2921   YZ=             -0.0531

 Normal termination of Gaussian 09 at Thu Aug 25 16:13:08 2022.
