 Gaussian 09, Revision E.01,
 Gaussian 09:  ES64L-G09RevE.01 30-Nov-2015

 -----
 #P G4
 -----

 ---------
 Frag_1131
 ---------
 Symbolic Z-matrix:
 Charge =  0 Multiplicity = 1

 SCF Done:  E(RB3LYP) =  -340.835517490     A.U. after   12 cycles
 SCF Done:  E(RB3LYP) =  -340.848399900     A.U. after   12 cycles
 SCF Done:  E(RB3LYP) =  -340.853021369     A.U. after   12 cycles
 SCF Done:  E(RB3LYP) =  -340.853816311     A.U. after   10 cycles
 SCF Done:  E(RB3LYP) =  -340.854032017     A.U. after   10 cycles
 SCF Done:  E(RB3LYP) =  -340.854063947     A.U. after   10 cycles
 SCF Done:  E(RB3LYP) =  -340.854081036     A.U. after    9 cycles
 SCF Done:  E(RB3LYP) =  -340.854084977     A.U. after    7 cycles
 SCF Done:  E(RB3LYP) =  -340.854089093     A.U. after    9 cycles
 SCF Done:  E(RB3LYP) =  -340.854089756     A.U. after    7 cycles
 SCF Done:  E(RB3LYP) =  -340.854089863     A.U. after    6 cycles
 Optimization completed.
    -- Stationary point found.
 Normal termination of Gaussian 09 at Thu Aug 25 06:44:03 2022.

 ----------------------------------------------------------
 #P Geom=AllCheck Guess=TCheck SCRF=Check B3LYP/GTBas3 Freq
 ----------------------------------------------------------

 Structure from the checkpoint file:  "G4.Frag_1131.chk"
 ---------
 Frag_1131
 ---------
 Charge =  0 Multiplicity = 1

 SCF Done:  E(RB3LYP) =  -340.854089863     A.U. after    1 cycles

  Exact polarizability:  54.607   0.000  54.250   0.172   0.001  38.172
 Approx polarizability:  71.620  -0.000  76.503   0.470   0.000  57.731

                      1                      2                      3
                      A                      A                      A
 Frequencies --     75.9562               201.7555               230.1903
 Red. masses --      2.8009                 1.0411                 1.1126
 Frc consts  --      0.0095                 0.0250                 0.0347
 IR Inten    --      0.2036                26.0021               160.0174

                      4                      5                      6
                      A                      A                      A
 Frequencies --    232.1133               306.1500               371.2677
 Red. masses --      1.3608                 2.5311                 2.9646
 Frc consts  --      0.0432                 0.1398                 0.2408
 IR Inten    --      0.0081                 0.2229                10.5484

                      7                      8                      9
                      A                      A                      A
 Frequencies --    414.3461               463.4191               477.0443
 Red. masses --      3.1107                 2.9404                 1.1642
 Frc consts  --      0.3147                 0.3720                 0.1561
 IR Inten    --      3.7903                 7.1628                 2.1749

                     10                     11                     12
                      A                      A                      A
 Frequencies --    556.5634               565.7245               794.3490
 Red. masses --      6.1671                 3.3799                 3.2836
 Frc consts  --      1.1255                 0.6373                 1.2207
 IR Inten    --      6.5914                10.7711                 1.3267

                     13                     14                     15
                      A                      A                      A
 Frequencies --    886.6174               890.5877              1064.1000
 Red. masses --      4.6299                 4.7412                 5.5730
 Frc consts  --      2.1444                 2.2156                 3.7179
 IR Inten    --     51.1073                15.1536                19.9313

                     16                     17                     18
                      A                      A                      A
 Frequencies --   1083.4912              1140.9268              1166.8915
 Red. masses --      3.6007                 1.3817                 1.5559
 Frc consts  --      2.4905                 1.0597                 1.2483
 IR Inten    --     24.3602                 8.3812                 1.3518

                     19                     20                     21
                      A                      A                      A
 Frequencies --   1179.6528              1192.6346              1402.9733
 Red. masses --      1.7107                 1.8686                 1.2413
 Frc consts  --      1.4026                 1.5660                 1.4396
 IR Inten    --      2.6350                17.9388                30.8052

                     22                     23                     24
                      A                      A                      A
 Frequencies --   1419.8033              1421.0978              1435.4912
 Red. masses --      1.2392                 1.1902                 1.1838
 Frc consts  --      1.4718                 1.4162                 1.4372
 IR Inten    --     81.3702                 0.3284                 2.8846

                     25                     26                     27
                      A                      A                      A
 Frequencies --   1477.4892              1486.8305              1491.4340
 Red. masses --      1.0452                 1.0488                 1.0446
 Frc consts  --      1.3443                 1.3660                 1.3690
 IR Inten    --     13.0910                 0.0328                 4.7188

                     28                     29                     30
                      A                      A                      A
 Frequencies --   1491.7904              3023.0166              3026.2921
 Red. masses --      1.0441                 1.0419                 1.0444
 Frc consts  --      1.3690                 5.6097                 5.6353
 IR Inten    --      5.0874                44.8600                18.7185

                     31                     32                     33
                      A                      A                      A
 Frequencies --   3118.2493              3125.0762              3149.5635
 Red. masses --      1.0923                 1.0895                 1.1032
 Frc consts  --      6.2577                 6.2690                 6.4474
 IR Inten    --     24.5703                 9.3570                19.5458

                     34                     35                     36
                      A                      A                      A
 Frequencies --   3156.4570              3808.2633              3809.9447
 Red. masses --      1.1027                 1.0674                 1.0671
 Frc consts  --      6.4729                 9.1210                 9.1260
 IR Inten    --     10.7474                35.3494                59.4140

 - Thermochemistry -
 -------------------
 Temperature   298.150 Kelvin.  Pressure   1.00000 Atm.
 Atom     1 has atomic number  6 and mass  12.00000

 Molecular mass:    92.05858 amu.
 Principal axes and moments of inertia in atomic units:
                           1         2         3
     Eigenvalues --   358.52146 530.31825 823.48178
           X            0.99999  -0.00000   0.00414
           Y            0.00000   1.00000   0.00000
           Z           -0.00414  -0.00000   0.99999
 This molecule is an asymmetric top.
 Rotational symmetry number  1.
 Rotational temperatures (Kelvin)      0.24159     0.16332     0.10518
 Rotational constants (GHZ):           5.03384     3.40313     2.19160
 Zero-point vibrational energy     305870.5 (Joules/Mol)
                                   73.10480 (Kcal/Mol)
 Warning -- explicit consideration of  11 degrees of freedom as
           vibrations may cause significant error
 Vibrational temperatures:    109.28   290.28   331.19   333.96   440.48
          (Kelvin)            534.17   596.15   666.76   686.36   800.77
                              813.95  1142.89  1275.64  1281.36  1531.00
                             1558.90  1641.54  1678.89  1697.26  1715.93
                             2018.56  2042.78  2044.64  2065.35  2125.77
                             2139.21  2145.84  2146.35  4349.44  4354.15
                             4486.46  4496.28  4531.51  4541.43  5479.23
                             5481.65

 Zero-point correction=                           0.116500 (Hartree/Particle)
 Thermal correction to Energy=                    0.123977
 Thermal correction to Enthalpy=                  0.124922
 Thermal correction to Gibbs Free Energy=         0.085625
 Sum of electronic and zero-point Energies=           -340.737590
 Sum of electronic and thermal Energies=              -340.730112
 Sum of electronic and thermal Enthalpies=            -340.729168
 Sum of electronic and thermal Free Energies=         -340.768464

                     E (Thermal)             CV                S
                      KCal/Mol        Cal/Mol-Kelvin    Cal/Mol-Kelvin
 Total                   77.797             26.757             82.706
 Electronic               0.000              0.000              0.000
 Translational            0.889              2.981             39.471
 Rotational               0.889              2.981             26.551
 Vibrational             76.020             20.796             16.683
 Vibration     1          0.599              1.965              3.993
 Vibration     2          0.639              1.837              2.117
 Vibration     3          0.652              1.795              1.877
 Vibration     4          0.653              1.792              1.863
 Vibration     5          0.697              1.662              1.383
 Vibration     6          0.743              1.531              1.075
 Vibration     7          0.778              1.439              0.911
 Vibration     8          0.821              1.331              0.756
 Vibration     9          0.834              1.301              0.718
 Vibration    10          0.912              1.125              0.531
 Vibration    11          0.922              1.105              0.513

 Normal termination of Gaussian 09 at Thu Aug 25 06:46:21 2022.

 -----------------------------------------------------------------
 #P Geom=AllCheck Guess=TCheck SCRF=Check CCSD(T,E4T,FrzG4)/GTBas1
 -----------------------------------------------------------------

 Structure from the checkpoint file:  "G4.Frag_1131.chk"
 ---------
 Frag_1131
 ---------
 Charge =  0 Multiplicity = 1

 SCF Done:  E(RHF) =  -338.835261693     A.U. after   12 cycles
 E2 =    -0.9609806538D+00 EUMP2 =    -0.33979624234638D+03
 CCSD(T)
 CCSD(T)= -0.33987389714D+03
 \MP4SDQ=-339.8438434\CCSD=-339.8443777\CCSD(T)=-339.8738971\RMSD=4.255
 Normal termination of Gaussian 09 at Thu Aug 25 06:52:41 2022.

 ---------------------------------------------------------
 #P Geom=AllCheck Guess=TCheck SCRF=Check MP4=FrzG4/GTBas2
 ---------------------------------------------------------

 Structure from the checkpoint file:  "G4.Frag_1131.chk"
 ---------
 Frag_1131
 ---------
 Charge =  0 Multiplicity = 1

 SCF Done:  E(RHF) =  -338.846905793     A.U. after   12 cycles
 E2 =    -0.9788980231D+00 EUMP2 =    -0.33982580381596D+03
 Normal termination of Gaussian 09 at Thu Aug 25 07:01:15 2022.

 ---------------------------------------------------------
 #P Geom=AllCheck Guess=TCheck SCRF=Check MP4=FrzG4/GTBas3
 ---------------------------------------------------------

 Structure from the checkpoint file:  "G4.Frag_1131.chk"
 ---------
 Frag_1131
 ---------
 Charge =  0 Multiplicity = 1

 SCF Done:  E(RHF) =  -338.878530744     A.U. after   12 cycles
 E2 =    -0.1183570364D+01 EUMP2 =    -0.34006210110714D+03
 Normal termination of Gaussian 09 at Thu Aug 25 08:44:46 2022.

 -----------------------------------------------------------
 #P Geom=AllCheck Guess=TCheck SCRF=Check MP2=Full/GTLargeXP
 -----------------------------------------------------------

 Structure from the checkpoint file:  "G4.Frag_1131.chk"
 ---------
 Frag_1131
 ---------
 Charge =  0 Multiplicity = 1

 SCF Done:  E(RHF) =  -338.972227198     A.U. after   11 cycles
 E2 =    -0.1535786399D+01 EUMP2 =    -0.34050801359709D+03
 Normal termination of Gaussian 09 at Thu Aug 25 08:51:18 2022.
 SCF Done:  E(RHF) =  -339.000073527     A.U. after    9 cycles
 Normal termination of Gaussian 09 at Thu Aug 25 08:57:07 2022.

                         Standard orientation:
 ---------------------------------------------------------------------
 Center     Atomic      Atomic             Coordinates (Angstroms)
 Number     Number       Type             X           Y           Z
 ---------------------------------------------------------------------
      1          6           0        1.481521    1.106176    0.141059
      2          7           0        0.631582    0.039707   -0.396215
      3          8           0        1.295655   -1.158063    0.021888
      4          7           0       -0.631582    0.039707    0.396215
      5          6           0       -1.481522    1.106175   -0.141059
      6          8           0       -1.295655   -1.158064   -0.021888
      7          1           0        2.466757    0.992526   -0.312258
      8          1           0        1.074129    2.075597   -0.149809
      9          1           0        1.565840    1.047409    1.233700
     10          1           0        1.060510   -1.766020   -0.688040
     11          1           0       -1.565843    1.047407   -1.233700
     12          1           0       -1.074128    2.075596    0.149806
     13          1           0       -2.466756    0.992528    0.312261
     14          1           0       -1.060508   -1.766021    0.688039
 ---------------------------------------------------------------------

 SCF Done:  E(RHF) =  -339.006102323     A.U. after    7 cycles

 The electronic state is 1-A.
 Alpha  occ. eigenvalues --  -20.58874 -20.58873 -15.64681 -15.64638 -11.25107
 Alpha  occ. eigenvalues --  -11.25107  -1.44775  -1.38330  -1.18885  -1.05595
 Alpha  occ. eigenvalues --   -0.92530  -0.82988  -0.72078  -0.71988  -0.66375
 Alpha  occ. eigenvalues --   -0.64005  -0.58977  -0.58008  -0.57165  -0.54805
 Alpha  occ. eigenvalues --   -0.54544  -0.50281  -0.47626  -0.46161  -0.37143
 Alpha virt. eigenvalues --    0.03911   0.04395   0.05113   0.05489   0.07163
 Alpha virt. eigenvalues --    0.07336   0.07423   0.09083   0.09327   0.11513
 Alpha virt. eigenvalues --    0.13529   0.13617   0.14721   0.15049   0.15892

 Mulliken charges:
               1
     1  C   -0.451537
     2  N    0.063578
     3  O   -0.581238
     4  N    0.063578
     5  C   -0.451537
     6  O   -0.581238
     7  H    0.191482
     8  H    0.178352
     9  H    0.188744
    10  H    0.410620
    11  H    0.188744
    12  H    0.178352
    13  H    0.191482
    14  H    0.410620
 Sum of Mulliken charges =  -0.00000

 Dipole moment (field-independent basis, Debye):
    X=              0.0000    Y=              0.7845    Z=             -0.0000  Tot=              0.7845
 Quadrupole moment (field-independent basis, Debye-Ang):
   XX=            -37.8510   YY=            -30.7343   ZZ=            -38.3468
   XY=             -0.0000   XZ=             -1.8890   YZ=              0.0000

 Normal termination of Gaussian 09 at Thu Aug 25 11:16:57 2022.
