 Gaussian 09, Revision E.01,
 Gaussian 09:  ES64L-G09RevE.01 30-Nov-2015

 -----
 #P G4
 -----

 --------
 Frag_988
 --------
 Symbolic Z-matrix:
 Charge =  0 Multiplicity = 1

 SCF Done:  E(RB3LYP) =  -132.685813872     A.U. after   13 cycles
 SCF Done:  E(RB3LYP) =  -132.695096370     A.U. after   12 cycles
 SCF Done:  E(RB3LYP) =  -132.693024812     A.U. after   13 cycles
 SCF Done:  E(RB3LYP) =  -132.695256112     A.U. after   10 cycles
 SCF Done:  E(RB3LYP) =  -132.695313520     A.U. after   11 cycles
 SCF Done:  E(RB3LYP) =  -132.695408633     A.U. after   11 cycles
 SCF Done:  E(RB3LYP) =  -132.695504430     A.U. after   10 cycles
 SCF Done:  E(RB3LYP) =  -132.695506031     A.U. after    8 cycles
 Optimization completed.
    -- Stationary point found.
 Normal termination of Gaussian 09 at Tue Aug 30 10:27:20 2022.

 ----------------------------------------------------------
 #P Geom=AllCheck Guess=TCheck SCRF=Check B3LYP/GTBas3 Freq
 ----------------------------------------------------------

 Structure from the checkpoint file:  "G4.Frag_988.chk"
 --------
 Frag_988
 --------
 Charge =  0 Multiplicity = 1

 SCF Done:  E(RB3LYP) =  -132.695506031     A.U. after    1 cycles

  Exact polarizability:  43.157   0.006  17.339  -0.428  -0.001  14.785
 Approx polarizability:  73.292   0.016  24.062   0.224  -0.001  20.359

                      1                      2                      3
                      A                      A                      A
 Frequencies --    372.7726               405.5272               493.8532
 Red. masses --      3.5167                 2.5558                 1.3932
 Frc consts  --      0.2879                 0.2476                 0.2002
 IR Inten    --      5.7688                21.4096                84.1066

                      4                      5                      6
                      A                      A                      A
 Frequencies --    650.0909               693.4692              1084.3052
 Red. masses --      1.5052                 1.2149                 4.7856
 Frc consts  --      0.3748                 0.3442                 3.3150
 IR Inten    --    195.3069                32.8192                11.6074

                      7                      8                      9
                      A                      A                      A
 Frequencies --   1198.6163              1637.6402              2267.9586
 Red. masses --      1.2693                 1.1016                 6.1464
 Frc consts  --      1.0744                 1.7406                18.6269
 IR Inten    --      0.0032                22.0231                81.1524

                     10                     11                     12
                      A                      A                      A
 Frequencies --   3521.9397              3532.3057              3611.8088
 Red. masses --      1.1265                 1.0730                 1.0968
 Frc consts  --      8.2327                 7.8882                 8.4297
 IR Inten    --     87.9311                 7.4706                25.0594

 - Thermochemistry -
 -------------------
 Temperature   298.150 Kelvin.  Pressure   1.00000 Atm.
 Atom     1 has atomic number  6 and mass  12.00000

 Molecular mass:    41.02655 amu.
 Principal axes and moments of inertia in atomic units:
                           1         2         3
     Eigenvalues --     5.89438 192.65067 196.73667
           X            0.99988   0.00000  -0.01554
           Y           -0.00000   1.00000   0.00004
           Z            0.01554  -0.00004   0.99988
 This molecule is an asymmetric top.
 Rotational symmetry number  1.
 Rotational temperatures (Kelvin)     14.69429     0.44959     0.44025
 Rotational constants (GHZ):         306.17978     9.36795     9.17339
 Zero-point vibrational energy     116458.2 (Joules/Mol)
                                   27.83417 (Kcal/Mol)
 Warning -- explicit consideration of   3 degrees of freedom as
           vibrations may cause significant error
 Vibrational temperatures:    536.34   583.46   710.54   935.33   997.75
          (Kelvin)           1560.07  1724.54  2356.20  3263.08  5067.28
                             5082.19  5196.58

 Zero-point correction=                           0.044357 (Hartree/Particle)
 Thermal correction to Energy=                    0.048355
 Thermal correction to Enthalpy=                  0.049299
 Thermal correction to Gibbs Free Energy=         0.020512
 Sum of electronic and zero-point Energies=           -132.651149
 Sum of electronic and thermal Energies=              -132.647151
 Sum of electronic and thermal Enthalpies=            -132.646207
 Sum of electronic and thermal Free Energies=         -132.674994

                     E (Thermal)             CV                S
                      KCal/Mol        Cal/Mol-Kelvin    Cal/Mol-Kelvin
 Total                   30.343             12.531             60.588
 Electronic               0.000              0.000              0.000
 Translational            0.889              2.981             37.062
 Rotational               0.889              2.981             20.041
 Vibrational             28.566              6.569              3.485
 Vibration     1          0.744              1.528              1.068
 Vibration     2          0.771              1.458              0.943
 Vibration     3          0.850              1.264              0.674

 Normal termination of Gaussian 09 at Tue Aug 30 10:27:28 2022.

 -----------------------------------------------------------------
 #P Geom=AllCheck Guess=TCheck SCRF=Check CCSD(T,E4T,FrzG4)/GTBas1
 -----------------------------------------------------------------

 Structure from the checkpoint file:  "G4.Frag_988.chk"
 --------
 Frag_988
 --------
 Charge =  0 Multiplicity = 1

 SCF Done:  E(RHF) =  -131.844602772     A.U. after   13 cycles
 E2 =    -0.4084728881D+00 EUMP2 =    -0.13225307565971D+03
 CCSD(T)
 CCSD(T)= -0.13228954532D+03
 2738509\CCSD=-132.2742846\CCSD(T)=-132.2895453\RMSD=6.067e-09\PG=C01 [
 Normal termination of Gaussian 09 at Tue Aug 30 10:27:35 2022.

 ---------------------------------------------------------
 #P Geom=AllCheck Guess=TCheck SCRF=Check MP4=FrzG4/GTBas2
 ---------------------------------------------------------

 Structure from the checkpoint file:  "G4.Frag_988.chk"
 --------
 Frag_988
 --------
 Charge =  0 Multiplicity = 1

 SCF Done:  E(RHF) =  -131.852098657     A.U. after   13 cycles
 E2 =    -0.4127336507D+00 EUMP2 =    -0.13226483230797D+03
 Normal termination of Gaussian 09 at Tue Aug 30 10:27:38 2022.

 ---------------------------------------------------------
 #P Geom=AllCheck Guess=TCheck SCRF=Check MP4=FrzG4/GTBas3
 ---------------------------------------------------------

 Structure from the checkpoint file:  "G4.Frag_988.chk"
 --------
 Frag_988
 --------
 Charge =  0 Multiplicity = 1

 SCF Done:  E(RHF) =  -131.865655689     A.U. after   12 cycles
 E2 =    -0.4904639463D+00 EUMP2 =    -0.13235611963562D+03
 Normal termination of Gaussian 09 at Tue Aug 30 10:27:45 2022.

 -----------------------------------------------------------
 #P Geom=AllCheck Guess=TCheck SCRF=Check MP2=Full/GTLargeXP
 -----------------------------------------------------------

 Structure from the checkpoint file:  "G4.Frag_988.chk"
 --------
 Frag_988
 --------
 Charge =  0 Multiplicity = 1

 SCF Done:  E(RHF) =  -131.901116755     A.U. after   13 cycles
 E2 =    -0.6492860783D+00 EUMP2 =    -0.13255040283289D+03
 Normal termination of Gaussian 09 at Tue Aug 30 10:27:53 2022.
 SCF Done:  E(RHF) =  -131.911424942     A.U. after    8 cycles
 Normal termination of Gaussian 09 at Tue Aug 30 10:28:01 2022.

                         Standard orientation:
 ---------------------------------------------------------------------
 Center     Atomic      Atomic             Coordinates (Angstroms)
 Number     Number       Type             X           Y           Z
 ---------------------------------------------------------------------
      1          6           0        1.364315    0.000105    0.008870
      2          6           0        0.161280   -0.000204   -0.002083
      3          7           0       -1.188423    0.000082   -0.090655
      4          1           0        2.423993   -0.000121    0.035239
      5          1           0       -1.629627   -0.832558    0.279306
      6          1           0       -1.628973    0.832702    0.279315
 ---------------------------------------------------------------------

 SCF Done:  E(RHF) =  -131.913470651     A.U. after    8 cycles

 The electronic state is 1-A.
 Alpha  occ. eigenvalues --  -15.59367 -11.26265 -11.21078  -1.23193  -0.99996
 Alpha  occ. eigenvalues --   -0.75616  -0.70329  -0.68093  -0.52825  -0.39094
 Alpha  occ. eigenvalues --   -0.34850
 Alpha virt. eigenvalues --    0.03522   0.04563   0.06504   0.06906   0.08318
 Alpha virt. eigenvalues --    0.08610   0.09526   0.12135   0.12381   0.13021
 Alpha virt. eigenvalues --    0.14890   0.18259   0.18766   0.20549   0.21894

 Mulliken charges:
               1
     1  C   -0.289093
     2  C    0.044515
     3  N   -0.652148
     4  H    0.246063
     5  H    0.325303
     6  H    0.325361
 Sum of Mulliken charges =  -0.00000

 Dipole moment (field-independent basis, Debye):
    X=             -1.3037    Y=             -0.0001    Z=              1.1469  Tot=              1.7364
 Quadrupole moment (field-independent basis, Debye-Ang):
   XX=            -12.2991   YY=            -17.4886   ZZ=            -20.8067
   XY=              0.0006   XZ=             -2.0999   YZ=              0.0003

 Normal termination of Gaussian 09 at Tue Aug 30 10:28:42 2022.
