 Gaussian 09, Revision E.01,
 Gaussian 09:  ES64L-G09RevE.01 30-Nov-2015

 -----
 #P G4
 -----

 --------
 Frag_902
 --------
 Symbolic Z-matrix:
 Charge =  0 Multiplicity = 1

 SCF Done:  E(RB3LYP) =  -360.843978336     A.U. after   12 cycles
 SCF Done:  E(RB3LYP) =  -360.851373463     A.U. after   11 cycles
 SCF Done:  E(RB3LYP) =  -360.853385093     A.U. after   10 cycles
 SCF Done:  E(RB3LYP) =  -360.855490333     A.U. after   11 cycles
 SCF Done:  E(RB3LYP) =  -360.856296012     A.U. after   11 cycles
 SCF Done:  E(RB3LYP) =  -360.856924640     A.U. after   10 cycles
 SCF Done:  E(RB3LYP) =  -360.857073505     A.U. after   10 cycles
 SCF Done:  E(RB3LYP) =  -360.857122954     A.U. after    9 cycles
 SCF Done:  E(RB3LYP) =  -360.857137861     A.U. after    9 cycles
 SCF Done:  E(RB3LYP) =  -360.857161541     A.U. after    9 cycles
 SCF Done:  E(RB3LYP) =  -360.865673053     A.U. after    8 cycles
 SCF Done:  E(RB3LYP) =  -360.865675843     A.U. after    7 cycles
 SCF Done:  E(RB3LYP) =  -360.865676307     A.U. after    7 cycles
 Optimization completed.
    -- Stationary point found.
 Normal termination of Gaussian 09 at Fri Aug 26 14:19:40 2022.

 ----------------------------------------------------------
 #P Geom=AllCheck Guess=TCheck SCRF=Check B3LYP/GTBas3 Freq
 ----------------------------------------------------------

 Structure from the checkpoint file:  "G4.Frag_902.chk"
 --------
 Frag_902
 --------
 Charge =  0 Multiplicity = 1

 SCF Done:  E(RB3LYP) =  -360.865676307     A.U. after    1 cycles

  Exact polarizability:  44.836  -2.205  41.610   0.224  -1.297  40.403
 Approx polarizability:  59.625  -2.818  60.349  -0.355  -1.772  59.671

                      1                      2                      3
                      A                      A                      A
 Frequencies --    134.8717               244.2653               262.9160
 Red. masses --      5.3654                 1.8471                 2.8056
 Frc consts  --      0.0575                 0.0649                 0.1143
 IR Inten    --     15.5894                 4.0697                 8.7637

                      4                      5                      6
                      A                      A                      A
 Frequencies --    298.1978               412.4240               472.0752
 Red. masses --      1.8686                 2.0354                 2.1268
 Frc consts  --      0.0979                 0.2040                 0.2792
 IR Inten    --     19.3591                22.0966                33.3920

                      7                      8                      9
                      A                      A                      A
 Frequencies --    473.8302               523.1470               593.4097
 Red. masses --      1.8295                 1.2322                 3.4551
 Frc consts  --      0.2420                 0.1987                 0.7168
 IR Inten    --     41.7799                58.7603                 3.4235

                     10                     11                     12
                      A                      A                      A
 Frequencies --    627.4987               749.9422               837.5751
 Red. masses --      1.3287                 2.9777                 2.6710
 Frc consts  --      0.3082                 0.9867                 1.1040
 IR Inten    --    206.9831                22.9934                55.3917

                     13                     14                     15
                      A                      A                      A
 Frequencies --    927.4733              1007.3999              1051.8051
 Red. masses --      1.4762                 3.0539                 2.9903
 Frc consts  --      0.7482                 1.8260                 1.9491
 IR Inten    --    124.0375                53.1342                15.4187

                     16                     17                     18
                      A                      A                      A
 Frequencies --   1095.2814              1117.0500              1204.6944
 Red. masses --      2.8278                 3.7582                 1.2493
 Frc consts  --      1.9987                 2.7630                 1.0683
 IR Inten    --     10.7094               202.6939                62.0059

                     19                     20                     21
                      A                      A                      A
 Frequencies --   1238.1904              1331.4447              1358.5748
 Red. masses --      1.0998                 1.3556                 1.5304
 Frc consts  --      0.9934                 1.4159                 1.6643
 IR Inten    --     62.9437                68.7804                11.9250

                     22                     23                     24
                      A                      A                      A
 Frequencies --   1367.1538              1395.5170              1446.0375
 Red. masses --      1.3706                 1.5020                 1.2161
 Frc consts  --      1.5094                 1.7234                 1.4982
 IR Inten    --     17.4458                44.6388                54.6613

                     25                     26                     27
                      A                      A                      A
 Frequencies --   1474.5318              1633.4667              2997.0918
 Red. masses --      1.3898                 1.1029                 1.0846
 Frc consts  --      1.7803                 1.7338                 5.7400
 IR Inten    --     78.7204                43.6839                53.2963

                     28                     29                     30
                      A                      A                      A
 Frequencies --   3020.2503              3486.8106              3571.5725
 Red. masses --      1.0857                 1.0495                 1.0922
 Frc consts  --      5.8353                 7.5180                 8.2088
 IR Inten    --     62.6704                 1.4160                 4.2037

                     31                     32                     33
                      A                      A                      A
 Frequencies --   3704.6170              3726.1498              3749.3481
 Red. masses --      1.0643                 1.0641                 1.0644
 Frc consts  --      8.6063                 8.7049                 8.8156
 IR Inten    --     51.0879                33.0340                33.4898

 - Thermochemistry -
 -------------------
 Temperature   298.150 Kelvin.  Pressure   1.00000 Atm.
 Atom     1 has atomic number  7 and mass  14.00307

 Molecular mass:    93.04259 amu.
 Principal axes and moments of inertia in atomic units:
                           1         2         3
     Eigenvalues --   356.32286 594.85141 710.02977
           X            0.99915  -0.03640   0.01946
           Y            0.03711   0.99861  -0.03751
           Z           -0.01807   0.03820   0.99911
 This molecule is an asymmetric top.
 Rotational symmetry number  1.
 Rotational temperatures (Kelvin)      0.24308     0.14561     0.12199
 Rotational constants (GHZ):           5.06490     3.03394     2.54178
 Zero-point vibrational energy     284320.1 (Joules/Mol)
                                   67.95414 (Kcal/Mol)
 Warning -- explicit consideration of   9 degrees of freedom as
           vibrations may cause significant error
 Vibrational temperatures:    194.05   351.44   378.28   429.04   593.39
          (Kelvin)            679.21   681.74   752.69   853.78   902.83
                             1079.00  1205.08  1334.43  1449.42  1513.31
                             1575.86  1607.18  1733.28  1781.48  1915.65
                             1954.68  1967.03  2007.84  2080.52  2121.52
                             2350.19  4312.14  4345.46  5016.74  5138.69
                             5330.11  5361.09  5394.47

 Zero-point correction=                           0.108292 (Hartree/Particle)
 Thermal correction to Energy=                    0.114890
 Thermal correction to Enthalpy=                  0.115834
 Thermal correction to Gibbs Free Energy=         0.078481
 Sum of electronic and zero-point Energies=           -360.757384
 Sum of electronic and thermal Energies=              -360.750787
 Sum of electronic and thermal Enthalpies=            -360.749843
 Sum of electronic and thermal Free Energies=         -360.787196

                     E (Thermal)             CV                S
                      KCal/Mol        Cal/Mol-Kelvin    Cal/Mol-Kelvin
 Total                   72.094             24.469             78.616
 Electronic               0.000              0.000              0.000
 Translational            0.889              2.981             39.503
 Rotational               0.889              2.981             26.512
 Vibrational             70.317             18.508             12.601
 Vibration     1          0.613              1.919              2.875
 Vibration     2          0.660              1.772              1.772
 Vibration     3          0.670              1.741              1.642
 Vibration     4          0.691              1.677              1.427
 Vibration     5          0.776              1.443              0.918
 Vibration     6          0.829              1.312              0.732
 Vibration     7          0.831              1.308              0.727
 Vibration     8          0.878              1.199              0.603
 Vibration     9          0.951              1.046              0.461

 Optimization completed.
    -- Stationary point found.
 Normal termination of Gaussian 09 at Fri Aug 26 14:20:10 2022.

 -----------------------------------------------------------------
 #P Geom=AllCheck Guess=TCheck SCRF=Check CCSD(T,E4T,FrzG4)/GTBas1
 -----------------------------------------------------------------

 Structure from the checkpoint file:  "G4.Frag_902.chk"
 --------
 Frag_902
 --------
 Charge =  0 Multiplicity = 1

 SCF Done:  E(RHF) =  -358.820194416     A.U. after   12 cycles
 E2 =    -0.9645754275D+00 EUMP2 =    -0.35978476984326D+03
 CCSD(T)
 CCSD(T)= -0.35984909371D+03
 46\MP4SDTQ=-359.8500168\MP4SDQ=-359.8245081\CCSD=-359.824326\CCSD(T)=-
 Normal termination of Gaussian 09 at Fri Aug 26 14:22:18 2022.

 ---------------------------------------------------------
 #P Geom=AllCheck Guess=TCheck SCRF=Check MP4=FrzG4/GTBas2
 ---------------------------------------------------------

 Structure from the checkpoint file:  "G4.Frag_902.chk"
 --------
 Frag_902
 --------
 Charge =  0 Multiplicity = 1

 SCF Done:  E(RHF) =  -358.834300479     A.U. after   11 cycles
 E2 =    -0.9837336969D+00 EUMP2 =    -0.35981803417576D+03
 Normal termination of Gaussian 09 at Fri Aug 26 14:22:57 2022.

 ---------------------------------------------------------
 #P Geom=AllCheck Guess=TCheck SCRF=Check MP4=FrzG4/GTBas3
 ---------------------------------------------------------

 Structure from the checkpoint file:  "G4.Frag_902.chk"
 --------
 Frag_902
 --------
 Charge =  0 Multiplicity = 1

 SCF Done:  E(RHF) =  -358.873574737     A.U. after   11 cycles
 E2 =    -0.1196651925D+01 EUMP2 =    -0.36007022666221D+03
 Normal termination of Gaussian 09 at Fri Aug 26 14:26:28 2022.

 -----------------------------------------------------------
 #P Geom=AllCheck Guess=TCheck SCRF=Check MP2=Full/GTLargeXP
 -----------------------------------------------------------

 Structure from the checkpoint file:  "G4.Frag_902.chk"
 --------
 Frag_902
 --------
 Charge =  0 Multiplicity = 1

 SCF Done:  E(RHF) =  -358.978583993     A.U. after   11 cycles
 E2 =    -0.1554950541D+01 EUMP2 =    -0.36053353453427D+03
 Normal termination of Gaussian 09 at Fri Aug 26 14:28:17 2022.
 SCF Done:  E(RHF) =  -359.007625467     A.U. after    9 cycles
 Normal termination of Gaussian 09 at Fri Aug 26 14:30:01 2022.

                         Standard orientation:
 ---------------------------------------------------------------------
 Center     Atomic      Atomic             Coordinates (Angstroms)
 Number     Number       Type             X           Y           Z
 ---------------------------------------------------------------------
      1          7           0       -1.724808    0.589990   -0.278409
      2          6           0       -0.635817   -0.376404   -0.419466
      3          8           0       -0.657970   -1.269389    0.671036
      4          6           0        0.704388    0.388393   -0.398504
      5          8           0        1.772609   -0.489891   -0.457453
      6          8           0        0.757898    1.122764    0.814389
      7          1           0       -1.831400    1.134143   -1.131123
      8          1           0       -2.595556    0.088030   -0.131632
      9          1           0       -0.694614   -1.004989   -1.318602
     10          1           0       -0.448884   -0.727559    1.447149
     11          1           0        0.798980    1.057081   -1.267464
     12          1           0        1.560047   -1.213996    0.148514
     13          1           0       -0.106637    1.557549    0.886066
 ---------------------------------------------------------------------

 SCF Done:  E(RHF) =  -359.014212465     A.U. after    8 cycles

 The electronic state is 1-A.
 Alpha  occ. eigenvalues --  -20.57712 -20.56514 -20.56299 -15.57194 -11.33939
 Alpha  occ. eigenvalues --  -11.32543  -1.42892  -1.38227  -1.33959  -1.19605
 Alpha  occ. eigenvalues --   -0.96274  -0.84810  -0.75213  -0.72438  -0.69959
 Alpha  occ. eigenvalues --   -0.66583  -0.64937  -0.62889  -0.57128  -0.55478
 Alpha  occ. eigenvalues --   -0.52914  -0.51185  -0.48872  -0.45341  -0.42801
 Alpha virt. eigenvalues --    0.03287   0.04664   0.04800   0.05588   0.07326
 Alpha virt. eigenvalues --    0.07559   0.07916   0.09383   0.09581   0.12129
 Alpha virt. eigenvalues --    0.12918   0.13941   0.14853   0.15684   0.15981

 Mulliken charges:
               1
     1  N   -0.745850
     2  C    0.160807
     3  O   -0.604293
     4  C    0.275536
     5  O   -0.576195
     6  O   -0.605817
     7  H    0.297394
     8  H    0.315360
     9  H    0.174144
    10  H    0.391396
    11  H    0.148682
    12  H    0.375722
    13  H    0.393115
 Sum of Mulliken charges =  -0.00000

 Dipole moment (field-independent basis, Debye):
    X=             -3.1781    Y=              0.5473    Z=             -1.2142  Tot=              3.4459
 Quadrupole moment (field-independent basis, Debye-Ang):
   XX=            -38.6793   YY=            -37.5272   ZZ=            -33.6858
   XY=             -3.2117   XZ=              2.5748   YZ=             -2.4571

 Normal termination of Gaussian 09 at Fri Aug 26 14:36:38 2022.
