 Gaussian 09, Revision E.01,
 Gaussian 09:  ES64L-G09RevE.01 30-Nov-2015

 -----
 #P G4
 -----

 --------
 Frag_882
 --------
 Symbolic Z-matrix:
 Charge =  0 Multiplicity = 1

 SCF Done:  E(RB3LYP) =  -260.572869807     A.U. after   14 cycles
 SCF Done:  E(RB3LYP) =  -260.633978830     A.U. after   12 cycles
 SCF Done:  E(RB3LYP) =  -260.638640354     A.U. after   13 cycles
 SCF Done:  E(RB3LYP) =  -260.659321361     A.U. after   13 cycles
 SCF Done:  E(RB3LYP) =  -260.660557171     A.U. after   11 cycles
 SCF Done:  E(RB3LYP) =  -260.660981296     A.U. after   10 cycles
 SCF Done:  E(RB3LYP) =  -260.661021300     A.U. after   10 cycles
 SCF Done:  E(RB3LYP) =  -260.661036615     A.U. after   10 cycles
 SCF Done:  E(RB3LYP) =  -260.661045155     A.U. after    8 cycles
 SCF Done:  E(RB3LYP) =  -260.661048698     A.U. after    9 cycles
 SCF Done:  E(RB3LYP) =  -260.661049010     A.U. after    7 cycles
 Optimization completed.
    -- Stationary point found.
 Normal termination of Gaussian 09 at Tue Aug 30 11:44:03 2022.

 ----------------------------------------------------------
 #P Geom=AllCheck Guess=TCheck SCRF=Check B3LYP/GTBas3 Freq
 ----------------------------------------------------------

 Structure from the checkpoint file:  "G4.Frag_882.chk"
 --------
 Frag_882
 --------
 Charge =  0 Multiplicity = 1

 SCF Done:  E(RB3LYP) =  -260.661049010     A.U. after    1 cycles

  Exact polarizability:  53.425   1.870  42.132   0.312   0.452  29.335
 Approx polarizability:  78.857   5.838  59.279   2.777   0.869  44.677

                      1                      2                      3
                      A                      A                      A
 Frequencies --    161.8927               277.8529               336.9046
 Red. masses --      2.6090                 1.7015                 3.1267
 Frc consts  --      0.0403                 0.0774                 0.2091
 IR Inten    --     15.8960                10.4906                 4.8891

                      4                      5                      6
                      A                      A                      A
 Frequencies --    364.7985               433.0352               469.5855
 Red. masses --      1.1860                 1.3542                 2.6016
 Frc consts  --      0.0930                 0.1496                 0.3380
 IR Inten    --      1.5624                35.2943                 9.4621

                      7                      8                      9
                      A                      A                      A
 Frequencies --    635.4728               815.2280               871.6275
 Red. masses --      3.6150                 3.4098                 1.6761
 Frc consts  --      0.8601                 1.3352                 0.7503
 IR Inten    --     37.7204                75.8574               133.6256

                     10                     11                     12
                      A                      A                      A
 Frequencies --    881.9521               933.4627              1110.4169
 Red. masses --      1.9883                 1.7304                 1.0907
 Frc consts  --      0.9112                 0.8884                 0.7923
 IR Inten    --     29.0414                42.7785                46.4388

                     13                     14                     15
                      A                      A                      A
 Frequencies --   1160.6777              1248.3237              1286.9565
 Red. masses --      2.2509                 1.7692                 1.1613
 Frc consts  --      1.7866                 1.6244                 1.1332
 IR Inten    --     40.6687               106.6025                 2.2291

                     16                     17                     18
                      A                      A                      A
 Frequencies --   1320.7885              1352.6783              1410.4632
 Red. masses --      1.9200                 1.4945                 1.2748
 Frc consts  --      1.9734                 1.6111                 1.4942
 IR Inten    --     28.5869                39.5690                26.4653

                     19                     20                     21
                      A                      A                      A
 Frequencies --   1656.5416              1691.2486              1740.6850
 Red. masses --      1.1251                 1.4846                 2.5263
 Frc consts  --      1.8191                 2.5020                 4.5100
 IR Inten    --      5.2115                33.0862               164.9676

                     22                     23                     24
                      A                      A                      A
 Frequencies --   3154.9491              3398.1661              3411.2718
 Red. masses --      1.0904                 1.0536                 1.0544
 Frc consts  --      6.3947                 7.1686                 7.2294
 IR Inten    --     13.8745                17.4988                 3.8248

                     25                     26                     27
                      A                      A                      A
 Frequencies --   3444.1722              3531.0475              3548.8976
 Red. masses --      1.0711                 1.0866                 1.0879
 Frc consts  --      7.4863                 7.9820                 8.0727
 IR Inten    --      1.2936                 1.6290                 1.7264

 - Thermochemistry -
 -------------------
 Temperature   298.150 Kelvin.  Pressure   1.00000 Atm.
 Atom     1 has atomic number  7 and mass  14.00307

 Molecular mass:    74.05925 amu.
 Principal axes and moments of inertia in atomic units:
                           1         2         3
     Eigenvalues --   194.44045 421.91271 588.66660
           X            0.99998  -0.00247  -0.00591
           Y            0.00250   0.99999   0.00451
           Z            0.00590  -0.00453   0.99997
 This molecule is an asymmetric top.
 Rotational symmetry number  1.
 Rotational temperatures (Kelvin)      0.44545     0.20529     0.14714
 Rotational constants (GHZ):           9.28172     4.27752     3.06581
 Zero-point vibrational energy     243135.6 (Joules/Mol)
                                   58.11080 (Kcal/Mol)
 Warning -- explicit consideration of   6 degrees of freedom as
           vibrations may cause significant error
 Vibrational temperatures:    232.93   399.77   484.73   524.86   623.04
          (Kelvin)            675.63   914.30  1172.93  1254.08  1268.93
                             1343.04  1597.64  1669.95  1796.06  1851.64
                             1900.32  1946.20  2029.34  2383.39  2433.33
                             2504.45  4539.26  4889.20  4908.05  4955.39
                             5080.38  5106.07

 Zero-point correction=                           0.092605 (Hartree/Particle)
 Thermal correction to Energy=                    0.098240
 Thermal correction to Enthalpy=                  0.099184
 Thermal correction to Gibbs Free Energy=         0.064280
 Sum of electronic and zero-point Energies=           -260.568444
 Sum of electronic and thermal Energies=              -260.562809
 Sum of electronic and thermal Enthalpies=            -260.561865
 Sum of electronic and thermal Free Energies=         -260.596769

                     E (Thermal)             CV                S
                      KCal/Mol        Cal/Mol-Kelvin    Cal/Mol-Kelvin
 Total                   61.647             19.842             73.463
 Electronic               0.000              0.000              0.000
 Translational            0.889              2.981             38.823
 Rotational               0.889              2.981             25.383
 Vibrational             59.869             13.881              9.257
 Vibration     1          0.622              1.889              2.528
 Vibration     2          0.679              1.714              1.547
 Vibration     3          0.718              1.602              1.227
 Vibration     4          0.738              1.545              1.102
 Vibration     5          0.794              1.398              0.849
 Vibration     6          0.827              1.318              0.739

 Optimization completed.
    -- Stationary point found.
 Normal termination of Gaussian 09 at Tue Aug 30 11:44:23 2022.

 -----------------------------------------------------------------
 #P Geom=AllCheck Guess=TCheck SCRF=Check CCSD(T,E4T,FrzG4)/GTBas1
 -----------------------------------------------------------------

 Structure from the checkpoint file:  "G4.Frag_882.chk"
 --------
 Frag_882
 --------
 Charge =  0 Multiplicity = 1

 SCF Done:  E(RHF) =  -259.056872049     A.U. after   13 cycles
 E2 =    -0.7781483337D+00 EUMP2 =    -0.25983502038265D+03
 CCSD(T)
 CCSD(T)= -0.25989855189D+03
 9\MP4SDQ=-259.8728166\CCSD=-259.8730621\CCSD(T)=-259.8985519\RMSD=4.76
 Normal termination of Gaussian 09 at Tue Aug 30 11:45:17 2022.

 ---------------------------------------------------------
 #P Geom=AllCheck Guess=TCheck SCRF=Check MP4=FrzG4/GTBas2
 ---------------------------------------------------------

 Structure from the checkpoint file:  "G4.Frag_882.chk"
 --------
 Frag_882
 --------
 Charge =  0 Multiplicity = 1

 SCF Done:  E(RHF) =  -259.067708252     A.U. after   13 cycles
 E2 =    -0.7909966866D+00 EUMP2 =    -0.25985870493848D+03
 Normal termination of Gaussian 09 at Tue Aug 30 11:45:32 2022.

 ---------------------------------------------------------
 #P Geom=AllCheck Guess=TCheck SCRF=Check MP4=FrzG4/GTBas3
 ---------------------------------------------------------

 Structure from the checkpoint file:  "G4.Frag_882.chk"
 --------
 Frag_882
 --------
 Charge =  0 Multiplicity = 1

 SCF Done:  E(RHF) =  -259.094725444     A.U. after   12 cycles
 E2 =    -0.9407319296D+00 EUMP2 =    -0.26003545737341D+03
 Normal termination of Gaussian 09 at Tue Aug 30 11:46:47 2022.

 -----------------------------------------------------------
 #P Geom=AllCheck Guess=TCheck SCRF=Check MP2=Full/GTLargeXP
 -----------------------------------------------------------

 Structure from the checkpoint file:  "G4.Frag_882.chk"
 --------
 Frag_882
 --------
 Charge =  0 Multiplicity = 1

 SCF Done:  E(RHF) =  -259.165257061     A.U. after   12 cycles
 E2 =    -0.1224291664D+01 EUMP2 =    -0.26038954872480D+03
 Normal termination of Gaussian 09 at Tue Aug 30 11:47:34 2022.
 SCF Done:  E(RHF) =  -259.185230562     A.U. after    9 cycles
 Normal termination of Gaussian 09 at Tue Aug 30 11:48:32 2022.

                         Standard orientation:
 ---------------------------------------------------------------------
 Center     Atomic      Atomic             Coordinates (Angstroms)
 Number     Number       Type             X           Y           Z
 ---------------------------------------------------------------------
      1          7           0        1.997741   -0.097270    0.083517
      2          6           0        0.865600   -0.648896   -0.055769
      3          7           0       -0.378253   -0.033576   -0.255489
      4          7           0       -1.484581   -0.836534    0.087193
      5          7           0       -0.418534    1.346497    0.009902
      6          1           0        1.881768    0.919883    0.075767
      7          1           0        0.761548   -1.733015   -0.075174
      8          1           0       -1.783109   -0.645757    1.046388
      9          1           0       -2.258043   -0.605076   -0.529289
     10          1           0       -1.077485    1.784199   -0.625838
     11          1           0       -0.732892    1.519331    0.966892
 ---------------------------------------------------------------------

 SCF Done:  E(RHF) =  -259.189493406     A.U. after    8 cycles

 The electronic state is 1-A.
 Alpha  occ. eigenvalues --  -15.63487 -15.60324 -15.60190 -15.52160 -11.30013
 Alpha  occ. eigenvalues --   -1.36627  -1.19286  -1.17307  -1.01505  -0.80411
 Alpha  occ. eigenvalues --   -0.73903  -0.71057  -0.68322  -0.66476  -0.57780
 Alpha  occ. eigenvalues --   -0.49889  -0.49650  -0.43508  -0.41802  -0.36608
 Alpha virt. eigenvalues --    0.03015   0.05120   0.05445   0.06287   0.07523
 Alpha virt. eigenvalues --    0.08774   0.08887   0.09061   0.09389   0.12094
 Alpha virt. eigenvalues --    0.13667   0.14023   0.15487   0.15926   0.15986

 Mulliken charges:
               1
     1  N   -0.682402
     2  C    0.163335
     3  N   -0.005317
     4  N   -0.596881
     5  N   -0.633005
     6  H    0.303465
     7  H    0.239084
     8  H    0.282727
     9  H    0.317446
    10  H    0.321143
    11  H    0.290405
 Sum of Mulliken charges =  -0.00000

 Dipole moment (field-independent basis, Debye):
    X=             -5.1513    Y=              1.6447    Z=              0.7246  Tot=              5.4558
 Quadrupole moment (field-independent basis, Debye-Ang):
   XX=            -34.3633   YY=            -29.9339   ZZ=            -29.4226
   XY=             -1.1876   XZ=             -0.8442   YZ=              0.2694

 Normal termination of Gaussian 09 at Tue Aug 30 11:53:53 2022.
