 Gaussian 09, Revision E.01,
 Gaussian 09:  ES64L-G09RevE.01 30-Nov-2015

 -----
 #P G4
 -----

 --------
 Frag_845
 --------
 Symbolic Z-matrix:
 Charge =  0 Multiplicity = 1

 SCF Done:  E(RB3LYP) =  -229.988122141     A.U. after   15 cycles
 SCF Done:  E(RB3LYP) =  -229.991769044     A.U. after   12 cycles
 SCF Done:  E(RB3LYP) =  -229.986904699     A.U. after   15 cycles
 SCF Done:  E(RB3LYP) =  -229.992163325     A.U. after   12 cycles
 SCF Done:  E(RB3LYP) =  -229.992406210     A.U. after   12 cycles
 SCF Done:  E(RB3LYP) =  -229.992080703     A.U. after   13 cycles
 SCF Done:  E(RB3LYP) =  -229.992439095     A.U. after    8 cycles
 SCF Done:  E(RB3LYP) =  -229.992403771     A.U. after   12 cycles
 SCF Done:  E(RB3LYP) =  -229.992450074     A.U. after   11 cycles
 SCF Done:  E(RB3LYP) =  -229.992451766     A.U. after    8 cycles
 SCF Done:  E(RB3LYP) =  -229.992451775     A.U. after    7 cycles
 Optimization completed.
    -- Stationary point found.
 Normal termination of Gaussian 09 at Wed Aug 24 22:57:08 2022.

 ----------------------------------------------------------
 #P Geom=AllCheck Guess=TCheck SCRF=Check B3LYP/GTBas3 Freq
 ----------------------------------------------------------

 Structure from the checkpoint file:  "G4.Frag_845.chk"
 --------
 Frag_845
 --------
 Charge =  0 Multiplicity = 1

 SCF Done:  E(RB3LYP) =  -229.992451775     A.U. after    2 cycles

  Exact polarizability:  62.346   3.803  37.564  -0.001   0.000  26.154
 Approx polarizability: 101.564  17.107  60.754   0.001   0.002  38.336

                      1                      2                      3
                      A                      A                      A
 Frequencies --    128.1632               176.3786               240.6003
 Red. masses --      1.0462                 3.7259                 4.4943
 Frc consts  --      0.0101                 0.0683                 0.1533
 IR Inten    --      0.0220                 3.7426                 0.8823

                      4                      5                      6
                      A                      A                      A
 Frequencies --    435.5767               601.0257               602.4988
 Red. masses --      3.3575                 2.6082                 7.2636
 Frc consts  --      0.3753                 0.5551                 1.5535
 IR Inten    --      3.0667                 2.8423                 8.9342

                      7                      8                      9
                      A                      A                      A
 Frequencies --    648.8838               710.7593               742.8972
 Red. masses --      1.2535                 1.2618                 4.2860
 Frc consts  --      0.3110                 0.3756                 1.3937
 IR Inten    --     42.6284                32.0086                11.9009

                     10                     11                     12
                      A                      A                      A
 Frequencies --    977.9374              1043.9836              1206.8779
 Red. masses --      1.9294                 1.8391                 3.3753
 Frc consts  --      1.0872                 1.1810                 2.8966
 IR Inten    --     31.8808                 5.9547               143.5422

                     13                     14                     15
                      A                      A                      A
 Frequencies --   1383.5071              1459.9814              1468.0635
 Red. masses --      1.2991                 1.0532                 1.0470
 Frc consts  --      1.4651                 1.3227                 1.3295
 IR Inten    --     29.0740                13.6176                 7.3271

                     16                     17                     18
                      A                      A                      A
 Frequencies --   1777.5621              2211.2352              3039.9786
 Red. masses --     11.1704                 5.9068                 1.0356
 Frc consts  --     20.7954                17.0166                 5.6390
 IR Inten    --    167.9553                56.7280                 1.0253

                     19                     20                     21
                      A                      A                      A
 Frequencies --   3104.0948              3153.9423              3494.9531
 Red. masses --      1.0985                 1.1030                 1.1620
 Frc consts  --      6.2363                 6.4646                 8.3629
 IR Inten    --      4.6510                 7.3400                50.1921

 - Thermochemistry -
 -------------------
 Temperature   298.150 Kelvin.  Pressure   1.00000 Atm.
 Atom     1 has atomic number  6 and mass  12.00000

 Molecular mass:    68.02621 amu.
 Principal axes and moments of inertia in atomic units:
                           1         2         3
     Eigenvalues --   176.57865 446.39650 611.82557
           X            0.99829  -0.05840  -0.00002
           Y            0.05840   0.99829  -0.00001
           Z            0.00002   0.00001   1.00000
 This molecule is an asymmetric top.
 Rotational symmetry number  1.
 Rotational temperatures (Kelvin)      0.49051     0.19403     0.14157
 Rotational constants (GHZ):          10.22061     4.04291     2.94976
 Zero-point vibrational energy     171119.2 (Joules/Mol)
                                   40.89848 (Kcal/Mol)
 Warning -- explicit consideration of   6 degrees of freedom as
           vibrations may cause significant error
 Vibrational temperatures:    184.40   253.77   346.17   626.70   864.74
          (Kelvin)            866.86   933.60  1022.62  1068.86  1407.03
                             1502.06  1736.43  1990.56  2100.58  2112.21
                             2557.51  3181.47  4373.85  4466.09  4537.81
                             5028.45

 Zero-point correction=                           0.065176 (Hartree/Particle)
 Thermal correction to Energy=                    0.070832
 Thermal correction to Enthalpy=                  0.071776
 Thermal correction to Gibbs Free Energy=         0.036607
 Sum of electronic and zero-point Energies=           -229.927276
 Sum of electronic and thermal Energies=              -229.921620
 Sum of electronic and thermal Enthalpies=            -229.920676
 Sum of electronic and thermal Free Energies=         -229.955845

                     E (Thermal)             CV                S
                      KCal/Mol        Cal/Mol-Kelvin    Cal/Mol-Kelvin
 Total                   44.448             18.722             74.020
 Electronic               0.000              0.000              0.000
 Translational            0.889              2.981             38.570
 Rotational               0.889              2.981             25.381
 Vibrational             42.670             12.761             10.069
 Vibration     1          0.611              1.925              2.973
 Vibration     2          0.628              1.871              2.366
 Vibration     3          0.658              1.778              1.798
 Vibration     4          0.796              1.393              0.841
 Vibration     5          0.959              1.030              0.448
 Vibration     6          0.961              1.026              0.445

 Optimization completed.
    -- Stationary point found.
 Normal termination of Gaussian 09 at Wed Aug 24 22:58:01 2022.

 -----------------------------------------------------------------
 #P Geom=AllCheck Guess=TCheck SCRF=Check CCSD(T,E4T,FrzG4)/GTBas1
 -----------------------------------------------------------------

 Structure from the checkpoint file:  "G4.Frag_845.chk"
 --------
 Frag_845
 --------
 Charge =  0 Multiplicity = 1

 SCF Done:  E(RHF) =  -228.587310216     A.U. after   14 cycles
 E2 =    -0.6770915887D+00 EUMP2 =    -0.22926440180510D+03
 CCSD(T)
 CCSD(T)= -0.22932035501D+03
 0092\CCSD=-229.2926512\CCSD(T)=-229.320355\RMSD=2.714e-09\PG=C01 [X(C4
 Normal termination of Gaussian 09 at Wed Aug 24 22:59:09 2022.

 ---------------------------------------------------------
 #P Geom=AllCheck Guess=TCheck SCRF=Check MP4=FrzG4/GTBas2
 ---------------------------------------------------------

 Structure from the checkpoint file:  "G4.Frag_845.chk"
 --------
 Frag_845
 --------
 Charge =  0 Multiplicity = 1

 SCF Done:  E(RHF) =  -228.595370554     A.U. after   14 cycles
 E2 =    -0.6841056619D+00 EUMP2 =    -0.22927947621632D+03
 Normal termination of Gaussian 09 at Wed Aug 24 23:00:04 2022.

 ---------------------------------------------------------
 #P Geom=AllCheck Guess=TCheck SCRF=Check MP4=FrzG4/GTBas3
 ---------------------------------------------------------

 Structure from the checkpoint file:  "G4.Frag_845.chk"
 --------
 Frag_845
 --------
 Charge =  0 Multiplicity = 1

 SCF Done:  E(RHF) =  -228.612287346     A.U. after   12 cycles
 E2 =    -0.8139496029D+00 EUMP2 =    -0.22942623694931D+03
 Normal termination of Gaussian 09 at Wed Aug 24 23:23:43 2022.

 -----------------------------------------------------------
 #P Geom=AllCheck Guess=TCheck SCRF=Check MP2=Full/GTLargeXP
 -----------------------------------------------------------

 Structure from the checkpoint file:  "G4.Frag_845.chk"
 --------
 Frag_845
 --------
 Charge =  0 Multiplicity = 1

 SCF Done:  E(RHF) =  -228.668985012     A.U. after   14 cycles
 E2 =    -0.1078996073D+01 EUMP2 =    -0.22974798108435D+03
 Normal termination of Gaussian 09 at Wed Aug 24 23:25:24 2022.
 SCF Done:  E(RHF) =  -228.686871326     A.U. after   10 cycles
 Normal termination of Gaussian 09 at Wed Aug 24 23:28:01 2022.

                         Standard orientation:
 ---------------------------------------------------------------------
 Center     Atomic      Atomic             Coordinates (Angstroms)
 Number     Number       Type             X           Y           Z
 ---------------------------------------------------------------------
      1          6           0       -2.182065   -0.165711   -0.000054
      2          6           0       -0.990860    0.007335   -0.000193
      3          6           0        0.451874    0.205477   -0.000064
      4          6           0        1.279295   -1.061745    0.000042
      5          8           0        0.934045    1.316292    0.000070
      6          1           0       -3.236416   -0.301644    0.000858
      7          1           0        1.037602   -1.667468   -0.880053
      8          1           0        1.037344   -1.667495    0.880049
      9          1           0        2.339650   -0.805868    0.000201
 ---------------------------------------------------------------------

 SCF Done:  E(RHF) =  -228.690335949     A.U. after    7 cycles

 The electronic state is 1-A.
 Alpha  occ. eigenvalues --  -20.56413 -11.36476 -11.26432 -11.25490 -11.24744
 Alpha  occ. eigenvalues --   -1.40648  -1.07460  -1.01657  -0.86564  -0.73742
 Alpha  occ. eigenvalues --   -0.68973  -0.64205  -0.61650  -0.57386  -0.52385
 Alpha  occ. eigenvalues --   -0.45074  -0.42442  -0.42132
 Alpha virt. eigenvalues --    0.03263   0.03739   0.05244   0.05558   0.06598
 Alpha virt. eigenvalues --    0.06901   0.06994   0.08134   0.08698   0.09326
 Alpha virt. eigenvalues --    0.09495   0.10082   0.11514   0.13448   0.13977

 Mulliken charges:
               1
     1  C   -0.453371
     2  C    0.200181
     3  C    0.386813
     4  C   -0.547907
     5  O   -0.462999
     6  H    0.260034
     7  H    0.200685
     8  H    0.200678
     9  H    0.215886
 Sum of Mulliken charges =  -0.00000

 Dipole moment (field-independent basis, Debye):
    X=             -1.3578    Y=             -3.1359    Z=              0.0008  Tot=              3.4173
 Quadrupole moment (field-independent basis, Debye-Ang):
   XX=            -22.8762   YY=            -33.3528   ZZ=            -29.6021
   XY=             -2.6089   XZ=             -0.0039   YZ=             -0.0007

 Normal termination of Gaussian 09 at Thu Aug 25 00:23:36 2022.
