 Gaussian 09, Revision E.01,
 Gaussian 09:  ES64L-G09RevE.01 30-Nov-2015

 -----
 #P G4
 -----

 ---------
 Frag_1122
 ---------
 Symbolic Z-matrix:
 Charge =  0 Multiplicity = 1

 SCF Done:  E(RB3LYP) =  -363.841927773     A.U. after   12 cycles
 SCF Done:  E(RB3LYP) =  -363.848707099     A.U. after   10 cycles
 SCF Done:  E(RB3LYP) =  -363.848878637     A.U. after   11 cycles
 SCF Done:  E(RB3LYP) =  -363.849336082     A.U. after   10 cycles
 SCF Done:  E(RB3LYP) =  -363.849415993     A.U. after    8 cycles
 SCF Done:  E(RB3LYP) =  -363.849444668     A.U. after    7 cycles
 SCF Done:  E(RB3LYP) =  -363.849428558     A.U. after    7 cycles
 SCF Done:  E(RB3LYP) =  -363.849434687     A.U. after    7 cycles
 SCF Done:  E(RB3LYP) =  -363.849386855     A.U. after    7 cycles
 SCF Done:  E(RB3LYP) =  -363.849418671     A.U. after    6 cycles
 SCF Done:  E(RB3LYP) =  -363.849414858     A.U. after    7 cycles
 SCF Done:  E(RB3LYP) =  -363.849372516     A.U. after    8 cycles
 SCF Done:  E(RB3LYP) =  -363.849392365     A.U. after    8 cycles
 Optimization completed.
    -- Stationary point found.
 Normal termination of Gaussian 09 at Fri Aug 26 14:43:53 2022.

 ----------------------------------------------------------
 #P Geom=AllCheck Guess=TCheck SCRF=Check B3LYP/GTBas3 Freq
 ----------------------------------------------------------

 Structure from the checkpoint file:  "G4.Frag_1122.chk"
 ---------
 Frag_1122
 ---------
 Charge =  0 Multiplicity = 1

 SCF Done:  E(RB3LYP) =  -363.849392365     A.U. after    1 cycles

  Exact polarizability:  83.555   0.003  74.428   0.000   0.000  74.423
 Approx polarizability: 113.669   0.003 107.444   0.002  -0.001 107.436

                      1                      2                      3
                      A                      A                      A
 Frequencies --    107.8088               220.3348               235.6304
 Red. masses --      3.2572                 1.0641                 1.2156
 Frc consts  --      0.0223                 0.0304                 0.0398
 IR Inten    --      0.0566                 3.7828                 8.1402

                      4                      5                      6
                      A                      A                      A
 Frequencies --    238.2209               278.1908               281.7655
 Red. masses --      1.1036                 2.1135                 2.0573
 Frc consts  --      0.0369                 0.0964                 0.0962
 IR Inten    --      7.0318                 3.8655                 4.2183

                      7                      8                      9
                      A                      A                      A
 Frequencies --    306.4555               310.3982               354.3085
 Red. masses --      1.2246                 1.2840                 1.5164
 Frc consts  --      0.0678                 0.0729                 0.1122
 IR Inten    --     12.0820                11.2051                54.3906

                     10                     11                     12
                      A                      A                      A
 Frequencies --    357.9751               360.1423               370.4990
 Red. masses --      2.1079                 1.9032                 1.5448
 Frc consts  --      0.1592                 0.1454                 0.1249
 IR Inten    --      0.1824                 2.9946                18.2375

                     13                     14                     15
                      A                      A                      A
 Frequencies --    420.5919               423.1638               519.6408
 Red. masses --      2.4324                 2.4157                 3.1480
 Frc consts  --      0.2535                 0.2549                 0.5008
 IR Inten    --     15.2896                16.1009                 6.3456

                     16                     17                     18
                      A                      A                      A
 Frequencies --    520.8517               528.1496               680.9628
 Red. masses --      3.1416                 2.3105                 2.8158
 Frc consts  --      0.5022                 0.3797                 0.7693
 IR Inten    --      6.1800                14.2190                 5.3214

                     19                     20                     21
                      A                      A                      A
 Frequencies --    833.1489               851.7637               893.8830
 Red. masses --      3.0095                 1.7347                 1.5515
 Frc consts  --      1.2308                 0.7415                 0.7304
 IR Inten    --      0.0585                 3.5628               169.1757

                     22                     23                     24
                      A                      A                      A
 Frequencies --    896.2094               940.3406               942.3108
 Red. masses --      1.5523                 1.6873                 1.6746
 Frc consts  --      0.7346                 0.8790                 0.8761
 IR Inten    --    170.6544                 0.6422                 0.6808

                     25                     26                     27
                      A                      A                      A
 Frequencies --    961.2949               971.5843              1019.8934
 Red. masses --      1.2380                 1.4617                 1.5861
 Frc consts  --      0.6741                 0.8130                 0.9721
 IR Inten    --      5.4744                17.0204                13.4783

                     28                     29                     30
                      A                      A                      A
 Frequencies --   1021.1375              1069.1932              1069.3190
 Red. masses --      1.6114                 1.5599                 1.5913
 Frc consts  --      0.9900                 1.0507                 1.0721
 IR Inten    --     14.6571                26.5549                29.0748

                     31                     32                     33
                      A                      A                      A
 Frequencies --   1236.8634              1237.1990              1247.7347
 Red. masses --      2.3578                 2.3543                 2.1398
 Frc consts  --      2.1252                 2.1232                 1.9627
 IR Inten    --     11.4663                11.8295                16.0376

                     34                     35                     36
                      A                      A                      A
 Frequencies --   1294.4757              1294.6387              1374.2636
 Red. masses --      2.1022                 2.0772                 1.9543
 Frc consts  --      2.0754                 2.0513                 2.1746
 IR Inten    --     21.6859                21.7565                11.4245

                     37                     38                     39
                      A                      A                      A
 Frequencies --   1385.4354              1388.2653              1421.0242
 Red. masses --      1.2464                 1.2425                 1.2648
 Frc consts  --      1.4096                 1.4109                 1.5048
 IR Inten    --      4.3189                 4.5323                24.7484

                     40                     41                     42
                      A                      A                      A
 Frequencies --   1481.8643              1499.3077              1499.9680
 Red. masses --      1.0500                 1.0491                 1.0497
 Frc consts  --      1.3585                 1.3895                 1.3915
 IR Inten    --      0.1124                 0.4870                 0.7262

                     43                     44                     45
                      A                      A                      A
 Frequencies --   1506.5898              1508.7067              1529.8333
 Red. masses --      1.0510                 1.0501                 1.0588
 Frc consts  --      1.4055                 1.4082                 1.4599
 IR Inten    --      1.7188                 1.7750                17.4100

                     46                     47                     48
                      A                      A                      A
 Frequencies --   1639.8418              1648.4850              1648.8486
 Red. masses --      1.1006                 1.1026                 1.1018
 Frc consts  --      1.7438                 1.7654                 1.7649
 IR Inten    --     48.0525                24.1354                24.1069

                     49                     50                     51
                      A                      A                      A
 Frequencies --   3032.2439              3032.4988              3039.7342
 Red. masses --      1.0350                 1.0351                 1.0361
 Frc consts  --      5.6069                 5.6082                 5.6405
 IR Inten    --     25.2807                25.4597                21.1934

                     52                     53                     54
                      A                      A                      A
 Frequencies --   3094.7891              3095.3675              3098.1519
 Red. masses --      1.1006                 1.1007                 1.1003
 Frc consts  --      6.2108                 6.2134                 6.2226
 IR Inten    --     14.2469                13.3648                48.2739

                     55                     56                     57
                      A                      A                      A
 Frequencies --   3118.9870              3119.7935              3120.3346
 Red. masses --      1.1017                 1.1012                 1.1012
 Frc consts  --      6.3143                 6.3147                 6.3171
 IR Inten    --     16.9698                20.1979                22.5560

                     58                     59                     60
                      A                      A                      A
 Frequencies --   3477.1726              3478.0537              3478.4825
 Red. masses --      1.0490                 1.0493                 1.0494
 Frc consts  --      7.4724                 7.4785                 7.4813
 IR Inten    --      4.2732                 0.5031                 0.4837

                     61                     62                     63
                      A                      A                      A
 Frequencies --   3560.7361              3561.8575              3562.4621
 Red. masses --      1.0919                 1.0916                 1.0914
 Frc consts  --      8.1564                 8.1594                 8.1609
 IR Inten    --      0.7912                 0.4304                 0.2731

 - Thermochemistry -
 -------------------
 Temperature   298.150 Kelvin.  Pressure   1.00000 Atm.
 Atom     1 has atomic number  6 and mass  12.00000

 Molecular mass:   117.12660 amu.
 Principal axes and moments of inertia in atomic units:
                           1         2         3
     Eigenvalues --   749.097001042.790121042.83534
           X            1.00000  -0.00001  -0.00002
           Y            0.00001   0.99909  -0.04269
           Z            0.00002   0.04269   0.99909
 This molecule is an asymmetric top.
 Rotational symmetry number  1.
 Warning -- assumption of classical behavior for rotation
           may cause significant error
 Rotational temperatures (Kelvin)      0.11562     0.08306     0.08306
 Rotational constants (GHZ):           2.40922     1.73068     1.73061
 Zero-point vibrational energy     554464.2 (Joules/Mol)
                                  132.52013 (Kcal/Mol)
 Warning -- explicit consideration of  17 degrees of freedom as
           vibrations may cause significant error
 Vibrational temperatures:    155.11   317.01   339.02   342.75   400.25
          (Kelvin)            405.40   440.92   446.59   509.77   515.05
                              518.16   533.06   605.14   608.84   747.65
                              749.39   759.89   979.75  1198.71  1225.50
                             1286.10  1289.44  1352.94  1355.77  1383.09
                             1397.89  1467.40  1469.19  1538.33  1538.51
                             1779.57  1780.05  1795.21  1862.46  1862.69
                             1977.26  1993.33  1997.40  2044.53  2132.07
                             2157.17  2158.12  2167.64  2170.69  2201.09
                             2359.36  2371.80  2372.32  4362.72  4363.08
                             4373.49  4452.71  4453.54  4457.54  4487.52
                             4488.68  4489.46  5002.87  5004.14  5004.75
                             5123.10  5124.71  5125.58

 Zero-point correction=                           0.211184 (Hartree/Particle)
 Thermal correction to Energy=                    0.221385
 Thermal correction to Enthalpy=                  0.222329
 Thermal correction to Gibbs Free Energy=         0.178039
 Sum of electronic and zero-point Energies=           -363.638208
 Sum of electronic and thermal Energies=              -363.628007
 Sum of electronic and thermal Enthalpies=            -363.627063
 Sum of electronic and thermal Free Energies=         -363.671353

                     E (Thermal)             CV                S
                      KCal/Mol        Cal/Mol-Kelvin    Cal/Mol-Kelvin
 Total                  138.921             40.625             93.217
 Electronic               0.000              0.000              0.000
 Translational            0.889              2.981             40.189
 Rotational               0.889              2.981             28.190
 Vibrational            137.144             34.663             24.837
 Vibration     1          0.606              1.943              3.308
 Vibration     2          0.647              1.810              1.956
 Vibration     3          0.655              1.786              1.836
 Vibration     4          0.656              1.782              1.816
 Vibration     5          0.679              1.714              1.545
 Vibration     6          0.681              1.707              1.523
 Vibration     7          0.697              1.661              1.381
 Vibration     8          0.699              1.654              1.360
 Vibration     9          0.730              1.566              1.147
 Vibration    10          0.733              1.559              1.131
 Vibration    11          0.735              1.554              1.121
 Vibration    12          0.742              1.533              1.078
 Vibration    13          0.783              1.425              0.890
 Vibration    14          0.785              1.420              0.881
 Vibration    15          0.875              1.206              0.611
 Vibration    16          0.876              1.204              0.608
 Vibration    17          0.883              1.188              0.591

 Normal termination of Gaussian 09 at Fri Aug 26 14:45:31 2022.

 -----------------------------------------------------------------
 #P Geom=AllCheck Guess=TCheck SCRF=Check CCSD(T,E4T,FrzG4)/GTBas1
 -----------------------------------------------------------------

 Structure from the checkpoint file:  "G4.Frag_1122.chk"
 ---------
 Frag_1122
 ---------
 Charge =  0 Multiplicity = 1

 SCF Done:  E(RHF) =  -361.401153198     A.U. after   11 cycles
 E2 =    -0.1164584295D+01 EUMP2 =    -0.36256573749340D+03
 CCSD(T)
 CCSD(T)= -0.36268397984D+03
 47447\CCSD(T)=-362.6839798\RMSD=7.033e-09\PG=C01 [X(C5H15N3)]\\@
 Normal termination of Gaussian 09 at Fri Aug 26 14:55:53 2022.

 ---------------------------------------------------------
 #P Geom=AllCheck Guess=TCheck SCRF=Check MP4=FrzG4/GTBas2
 ---------------------------------------------------------

 Structure from the checkpoint file:  "G4.Frag_1122.chk"
 ---------
 Frag_1122
 ---------
 Charge =  0 Multiplicity = 1

 SCF Done:  E(RHF) =  -361.412363330     A.U. after   11 cycles
 E2 =    -0.1183863050D+01 EUMP2 =    -0.36259622638047D+03
 Normal termination of Gaussian 09 at Fri Aug 26 14:59:36 2022.

 ---------------------------------------------------------
 #P Geom=AllCheck Guess=TCheck SCRF=Check MP4=FrzG4/GTBas3
 ---------------------------------------------------------

 Structure from the checkpoint file:  "G4.Frag_1122.chk"
 ---------
 Frag_1122
 ---------
 Charge =  0 Multiplicity = 1

 SCF Done:  E(RHF) =  -361.456114581     A.U. after   10 cycles
 E2 =    -0.1443039157D+01 EUMP2 =    -0.36289915373802D+03
 Normal termination of Gaussian 09 at Fri Aug 26 15:32:39 2022.

 -----------------------------------------------------------
 #P Geom=AllCheck Guess=TCheck SCRF=Check MP2=Full/GTLargeXP
 -----------------------------------------------------------

 Structure from the checkpoint file:  "G4.Frag_1122.chk"
 ---------
 Frag_1122
 ---------
 Charge =  0 Multiplicity = 1

 SCF Done:  E(RHF) =  -361.541762937     A.U. after   11 cycles
 E2 =    -0.1885217411D+01 EUMP2 =    -0.36342698034873D+03
 Normal termination of Gaussian 09 at Fri Aug 26 15:41:04 2022.
 SCF Done:  E(RHF) =  -361.569511730     A.U. after    9 cycles
 Normal termination of Gaussian 09 at Fri Aug 26 15:44:33 2022.

                         Standard orientation:
 ---------------------------------------------------------------------
 Center     Atomic      Atomic             Coordinates (Angstroms)
 Number     Number       Type             X           Y           Z
 ---------------------------------------------------------------------
      1          6           0        1.313529   -0.328620    1.410403
      2          6           0        0.786897    0.000050    0.000019
      3          6           0        1.313957    1.385696   -0.420762
      4          6           0        1.313918   -1.057270   -0.989474
      5          6           0       -0.786723    0.000102   -0.000080
      6          7           0       -1.267185    0.157392   -1.378873
      7          7           0       -1.266937    1.115436    0.825761
      8          7           0       -1.267289   -1.272677    0.552886
      9          1           0        1.109839   -1.368323    1.684995
     10          1           0        2.399565   -0.192316    1.444343
     11          1           0        0.863341    0.329331    2.158346
     12          1           0        0.863489    1.704602   -1.364391
     13          1           0        2.399907    1.346426   -0.556354
     14          1           0        1.111219    2.143566    0.342423
     15          1           0        1.109654   -0.776515   -2.027448
     16          1           0        2.400100   -1.153675   -0.888790
     17          1           0        0.864872   -2.034404   -0.792768
     18          1           0       -1.116399   -0.704529   -1.895553
     19          1           0       -2.271342    0.316741   -1.363582
     20          1           0       -1.115279    1.994209    0.338547
     21          1           0       -2.271211    1.023149    0.955604
     22          1           0       -2.271585   -1.338632    0.407978
     23          1           0       -1.115761   -1.290431    1.557589
 ---------------------------------------------------------------------

 SCF Done:  E(RHF) =  -361.575590648     A.U. after    8 cycles

 The electronic state is 1-A.
 Alpha  occ. eigenvalues --  -15.53951 -15.53950 -15.53948 -11.31436 -11.22754
 Alpha  occ. eigenvalues --  -11.19921 -11.19920 -11.19917  -1.26184  -1.12630
 Alpha  occ. eigenvalues --   -1.12626  -1.07313  -0.91864  -0.91860  -0.85062
 Alpha  occ. eigenvalues --   -0.71867  -0.67505  -0.66589  -0.66583  -0.61362
 Alpha  occ. eigenvalues --   -0.61357  -0.58112  -0.56147  -0.56144  -0.52174
 Alpha  occ. eigenvalues --   -0.52169  -0.50368  -0.46067  -0.45408  -0.45407
 Alpha  occ. eigenvalues --   -0.41074  -0.41069  -0.39941
 Alpha virt. eigenvalues --    0.02921   0.03975   0.04468   0.04468   0.06285
 Alpha virt. eigenvalues --    0.06285   0.06357   0.07428   0.07429   0.09544
 Alpha virt. eigenvalues --    0.09545   0.09700   0.10304   0.11223   0.11224

 Mulliken charges:
               1
     1  C   -0.682549
     2  C    0.548253
     3  C   -0.682641
     4  C   -0.682382
     5  C    0.417756
     6  N   -0.763801
     7  N   -0.763742
     8  N   -0.763760
     9  H    0.169052
    10  H    0.170558
    11  H    0.200731
    12  H    0.200799
    13  H    0.170560
    14  H    0.169065
    15  H    0.169052
    16  H    0.170497
    17  H    0.200642
    18  H    0.311162
    19  H    0.272871
    20  H    0.311118
    21  H    0.272818
    22  H    0.272822
    23  H    0.311118
 Sum of Mulliken charges =  -0.00000

 Dipole moment (field-independent basis, Debye):
    X=             -1.9918    Y=              0.0007    Z=              0.0013  Tot=              1.9918
 Quadrupole moment (field-independent basis, Debye-Ang):
   XX=            -45.4502   YY=            -55.1556   ZZ=            -55.1630
   XY=             -0.0012   XZ=             -0.0004   YZ=             -0.0007

 Normal termination of Gaussian 09 at Fri Aug 26 16:08:35 2022.
