 Gaussian 09, Revision E.01,
 Gaussian 09:  ES64L-G09RevE.01 30-Nov-2015

 -----
 #P G4
 -----

 ---------
 Frag_1033
 ---------
 Symbolic Z-matrix:
 Charge =  0 Multiplicity = 1

 SCF Done:  E(RB3LYP) =  -319.796725038     A.U. after   15 cycles
 SCF Done:  E(RB3LYP) =  -319.823224509     A.U. after   13 cycles
 SCF Done:  E(RB3LYP) =  -319.827371901     A.U. after   13 cycles
 SCF Done:  E(RB3LYP) =  -319.827286945     A.U. after   13 cycles
 SCF Done:  E(RB3LYP) =  -319.827759788     A.U. after    8 cycles
 SCF Done:  E(RB3LYP) =  -319.828317047     A.U. after   13 cycles
 SCF Done:  E(RB3LYP) =  -319.828667633     A.U. after   12 cycles
 SCF Done:  E(RB3LYP) =  -319.829101835     A.U. after   13 cycles
 SCF Done:  E(RB3LYP) =  -319.829669158     A.U. after   14 cycles
 SCF Done:  E(RB3LYP) =  -319.830258479     A.U. after   13 cycles
 SCF Done:  E(RB3LYP) =  -319.833046108     A.U. after    9 cycles
 SCF Done:  E(RB3LYP) =  -319.833045938     A.U. after    7 cycles
 SCF Done:  E(RB3LYP) =  -319.833045853     A.U. after    7 cycles
 Optimization completed.
    -- Stationary point found.
 Normal termination of Gaussian 09 at Fri Aug 26 07:11:34 2022.

 ----------------------------------------------------------
 #P Geom=AllCheck Guess=TCheck SCRF=Check B3LYP/GTBas3 Freq
 ----------------------------------------------------------

 Structure from the checkpoint file:  "G4.Frag_1033.chk"
 ---------
 Frag_1033
 ---------
 Charge =  0 Multiplicity = 1

 SCF Done:  E(RB3LYP) =  -319.833045853     A.U. after    1 cycles

  Exact polarizability:  53.693   3.687  45.467  -3.110  -6.570  46.790
 Approx polarizability:  76.266  10.532  71.153  -9.850 -22.441  84.424

                      1                      2                      3
                      A                      A                      A
 Frequencies --     60.0292               188.7860               237.8957
 Red. masses --      4.1502                 1.0942                 1.0439
 Frc consts  --      0.0088                 0.0230                 0.0348
 IR Inten    --      3.8396                53.9167                 0.2785

                      4                      5                      6
                      A                      A                      A
 Frequencies --    278.9069               341.0903               370.8399
 Red. masses --      3.3517                 4.5062                 2.9527
 Frc consts  --      0.1536                 0.3089                 0.2392
 IR Inten    --     10.3648                 2.7247                 4.6825

                      7                      8                      9
                      A                      A                      A
 Frequencies --    538.7530               647.5368               703.7175
 Red. masses --      3.3779                 2.8424                 3.7128
 Frc consts  --      0.5777                 0.7022                 1.0833
 IR Inten    --      2.6594                 8.7963                39.1943

                     10                     11                     12
                      A                      A                      A
 Frequencies --    821.3417               829.8319               874.7756
 Red. masses --      1.3014                 4.9346                 2.0159
 Frc consts  --      0.5173                 2.0021                 0.9089
 IR Inten    --     20.3184                 5.9642               103.2123

                     13                     14                     15
                      A                      A                      A
 Frequencies --    929.3904              1028.2403              1108.0674
 Red. masses --      1.3315                 1.5087                 2.7345
 Frc consts  --      0.6776                 0.9398                 1.9782
 IR Inten    --     57.7234                10.9074                30.5284

                     16                     17                     18
                      A                      A                      A
 Frequencies --   1157.5099              1251.5537              1283.1137
 Red. masses --      1.4398                 1.8207                 2.1977
 Frc consts  --      1.1365                 1.6803                 2.1318
 IR Inten    --      8.2048                13.9275               105.5654

                     19                     20                     21
                      A                      A                      A
 Frequencies --   1341.4069              1396.2958              1400.4128
 Red. masses --      1.3226                 1.2445                 1.2832
 Frc consts  --      1.4022                 1.4295                 1.4827
 IR Inten    --     11.2606                 6.3685                20.5700

                     22                     23                     24
                      A                      A                      A
 Frequencies --   1473.1905              1481.9891              1498.0977
 Red. masses --      2.9243                 1.0488                 1.0764
 Frc consts  --      3.7393                 1.3572                 1.4234
 IR Inten    --    145.7395                 3.6333                 6.4214

                     25                     26                     27
                      A                      A                      A
 Frequencies --   1614.1691              1673.3073              3041.8747
 Red. masses --      1.2782                 2.7154                 1.0352
 Frc consts  --      1.9623                 4.4796                 5.6435
 IR Inten    --    108.2942                51.9932                10.7494

                     28                     29                     30
                      A                      A                      A
 Frequencies --   3062.9348              3114.0231              3138.7011
 Red. masses --      1.0860                 1.1019                 1.1022
 Frc consts  --      6.0026                 6.2954                 6.3976
 IR Inten    --     18.6885                17.5357                 8.7680

                     31                     32                     33
                      A                      A                      A
 Frequencies --   3446.2743              3490.7257              3579.4282
 Red. masses --      1.0734                 1.0491                 1.0918
 Frc consts  --      7.5111                 7.5319                 8.2415
 IR Inten    --      1.2682                 6.8140                 8.9804

 - Thermochemistry -
 -------------------
 Temperature   298.150 Kelvin.  Pressure   1.00000 Atm.
 Atom     1 has atomic number  6 and mass  12.00000

 Molecular mass:    89.05891 amu.
 Principal axes and moments of inertia in atomic units:
                           1         2         3
     Eigenvalues --   348.15358 602.87510 666.62676
           X            0.99951  -0.00812  -0.03035
           Y            0.00892   0.99961   0.02640
           Z            0.03012  -0.02666   0.99919
 This molecule is an asymmetric top.
 Rotational symmetry number  1.
 Rotational temperatures (Kelvin)      0.24878     0.14367     0.12993
 Rotational constants (GHZ):           5.18375     2.99356     2.70727
 Zero-point vibrational energy     283540.1 (Joules/Mol)
                                   67.76772 (Kcal/Mol)
 Warning -- explicit consideration of   7 degrees of freedom as
           vibrations may cause significant error
 Vibrational temperatures:     86.37   271.62   342.28   401.28   490.75
          (Kelvin)            533.56   775.14   931.66  1012.49  1181.73
                             1193.94  1258.61  1337.18  1479.41  1594.26
                             1665.40  1800.70  1846.11  1929.98  2008.96
                             2014.88  2119.59  2132.25  2155.43  2322.43
                             2407.51  4376.57  4406.87  4480.38  4515.89
                             4958.41  5022.37  5149.99

 Zero-point correction=                           0.107995 (Hartree/Particle)
 Thermal correction to Energy=                    0.114723
 Thermal correction to Enthalpy=                  0.115667
 Thermal correction to Gibbs Free Energy=         0.077460
 Sum of electronic and zero-point Energies=           -319.725051
 Sum of electronic and thermal Energies=              -319.718323
 Sum of electronic and thermal Enthalpies=            -319.717378
 Sum of electronic and thermal Free Energies=         -319.755586

                     E (Thermal)             CV                S
                      KCal/Mol        Cal/Mol-Kelvin    Cal/Mol-Kelvin
 Total                   71.990             23.401             80.414
 Electronic               0.000              0.000              0.000
 Translational            0.889              2.981             39.373
 Rotational               0.889              2.981             26.440
 Vibrational             70.212             17.439             14.602
 Vibration     1          0.597              1.973              4.456
 Vibration     2          0.633              1.855              2.240
 Vibration     3          0.656              1.783              1.819
 Vibration     4          0.679              1.713              1.540
 Vibration     5          0.721              1.593              1.207
 Vibration     6          0.743              1.532              1.076
 Vibration     7          0.894              1.164              0.568

 Optimization completed.
    -- Stationary point found.
 Normal termination of Gaussian 09 at Fri Aug 26 07:12:05 2022.

 -----------------------------------------------------------------
 #P Geom=AllCheck Guess=TCheck SCRF=Check CCSD(T,E4T,FrzG4)/GTBas1
 -----------------------------------------------------------------

 Structure from the checkpoint file:  "G4.Frag_1033.chk"
 ---------
 Frag_1033
 ---------
 Charge =  0 Multiplicity = 1

 SCF Done:  E(RHF) =  -317.885720052     A.U. after   14 cycles
 E2 =    -0.9532323627D+00 EUMP2 =    -0.31883895241476D+03
 CCSD(T)
 CCSD(T)= -0.31890796571D+03
 Normal termination of Gaussian 09 at Fri Aug 26 07:14:10 2022.

 ---------------------------------------------------------
 #P Geom=AllCheck Guess=TCheck SCRF=Check MP4=FrzG4/GTBas2
 ---------------------------------------------------------

 Structure from the checkpoint file:  "G4.Frag_1033.chk"
 ---------
 Frag_1033
 ---------
 Charge =  0 Multiplicity = 1

 SCF Done:  E(RHF) =  -317.897840934     A.U. after   13 cycles
 E2 =    -0.9676961460D+00 EUMP2 =    -0.31886553708040D+03
 Normal termination of Gaussian 09 at Fri Aug 26 07:14:44 2022.

 ---------------------------------------------------------
 #P Geom=AllCheck Guess=TCheck SCRF=Check MP4=FrzG4/GTBas3
 ---------------------------------------------------------

 Structure from the checkpoint file:  "G4.Frag_1033.chk"
 ---------
 Frag_1033
 ---------
 Charge =  0 Multiplicity = 1

 SCF Done:  E(RHF) =  -317.929318405     A.U. after   13 cycles
 E2 =    -0.1154127169D+01 EUMP2 =    -0.31908344557455D+03
 Normal termination of Gaussian 09 at Fri Aug 26 07:18:08 2022.

 -----------------------------------------------------------
 #P Geom=AllCheck Guess=TCheck SCRF=Check MP2=Full/GTLargeXP
 -----------------------------------------------------------

 Structure from the checkpoint file:  "G4.Frag_1033.chk"
 ---------
 Frag_1033
 ---------
 Charge =  0 Multiplicity = 1

 SCF Done:  E(RHF) =  -318.014419688     A.U. after   13 cycles
 E2 =    -0.1495212647D+01 EUMP2 =    -0.31950963233457D+03
 Normal termination of Gaussian 09 at Fri Aug 26 07:20:02 2022.
 SCF Done:  E(RHF) =  -318.039805032     A.U. after   10 cycles
 Normal termination of Gaussian 09 at Fri Aug 26 07:21:54 2022.

                         Standard orientation:
 ---------------------------------------------------------------------
 Center     Atomic      Atomic             Coordinates (Angstroms)
 Number     Number       Type             X           Y           Z
 ---------------------------------------------------------------------
      1          6           0       -1.256835    1.157951    0.504069
      2          6           0       -0.599516    0.164891   -0.457164
      3          7           0       -1.189938   -1.153944   -0.536158
      4          7           0        0.834894   -0.049799    0.018730
      5          7           0        1.828542    0.446675   -0.588162
      6          8           0        0.931030   -0.710530    1.060831
      7          1           0       -0.743105    2.124651    0.497681
      8          1           0       -1.239646    0.753643    1.518866
      9          1           0       -2.295361    1.319726    0.200697
     10          1           0       -0.533141    0.587273   -1.464496
     11          1           0       -1.096095   -1.593085    0.376835
     12          1           0       -2.179970   -1.071043   -0.744295
     13          1           0        1.462693    0.925491   -1.414234
 ---------------------------------------------------------------------

 SCF Done:  E(RHF) =  -318.045190863     A.U. after    8 cycles

 The electronic state is 1-A.
 Alpha  occ. eigenvalues --  -20.55483 -15.78886 -15.60993 -15.56931 -11.34195
 Alpha  occ. eigenvalues --  -11.24896  -1.52390  -1.27684  -1.22727  -1.04568
 Alpha  occ. eigenvalues --   -0.94131  -0.83528  -0.76934  -0.69218  -0.68047
 Alpha  occ. eigenvalues --   -0.66209  -0.62258  -0.59754  -0.57662  -0.54557
 Alpha  occ. eigenvalues --   -0.49173  -0.45548  -0.42426  -0.39353
 Alpha virt. eigenvalues --    0.02614   0.03732   0.04450   0.05722   0.06729
 Alpha virt. eigenvalues --    0.07278   0.07529   0.09172   0.09352   0.10656
 Alpha virt. eigenvalues --    0.11537   0.12550   0.12998   0.13014   0.13974

 Mulliken charges:
               1
     1  C   -0.546804
     2  C    0.058846
     3  N   -0.667999
     4  N    0.471124
     5  N   -0.482045
     6  O   -0.508060
     7  H    0.182123
     8  H    0.212406
     9  H    0.175799
    10  H    0.195015
    11  H    0.330760
    12  H    0.289204
    13  H    0.289633
 Sum of Mulliken charges =  -0.00000

 Dipole moment (field-independent basis, Debye):
    X=             -4.5002    Y=              2.5246    Z=             -2.0248  Tot=              5.5430
 Quadrupole moment (field-independent basis, Debye-Ang):
   XX=            -39.0707   YY=            -37.3144   ZZ=            -37.1112
   XY=              1.7213   XZ=             -2.7287   YZ=             -2.1049

 Normal termination of Gaussian 09 at Fri Aug 26 07:28:34 2022.
