 Gaussian 09, Revision E.01,
 Gaussian 09:  ES64L-G09RevE.01 30-Nov-2015

 -----
 #P G4
 -----

 --------
 Frag_503
 --------
 Symbolic Z-matrix:
 Charge =  0 Multiplicity = 1

 SCF Done:  E(RB3LYP) =  -327.117565374     A.U. after   13 cycles
 SCF Done:  E(RB3LYP) =  -327.123305008     A.U. after   11 cycles
 SCF Done:  E(RB3LYP) =  -327.125594075     A.U. after   12 cycles
 SCF Done:  E(RB3LYP) =  -327.127385603     A.U. after   12 cycles
 SCF Done:  E(RB3LYP) =  -327.128322441     A.U. after   11 cycles
 SCF Done:  E(RB3LYP) =  -327.129234596     A.U. after   11 cycles
 SCF Done:  E(RB3LYP) =  -327.130294904     A.U. after   11 cycles
 SCF Done:  E(RB3LYP) =  -327.130965472     A.U. after   11 cycles
 SCF Done:  E(RB3LYP) =  -327.131604165     A.U. after   11 cycles
 SCF Done:  E(RB3LYP) =  -327.132099051     A.U. after   11 cycles
 SCF Done:  E(RB3LYP) =  -327.135131903     A.U. after   10 cycles
 SCF Done:  E(RB3LYP) =  -327.135139800     A.U. after    9 cycles
 SCF Done:  E(RB3LYP) =  -327.135139744     A.U. after    7 cycles
 Optimization completed.
    -- Stationary point found.
 Normal termination of Gaussian 09 at Sat Aug 20 05:20:58 2022.

 ----------------------------------------------------------
 #P Geom=AllCheck Guess=TCheck SCRF=Check B3LYP/GTBas3 Freq
 ----------------------------------------------------------

 Structure from the checkpoint file:  "G4.Frag_503.chk"
 --------
 Frag_503
 --------
 Charge =  0 Multiplicity = 1

 SCF Done:  E(RB3LYP) =  -327.135139744     A.U. after    1 cycles

  Exact polarizability:  70.368  -3.507  73.514   0.228  -0.663  52.863
 Approx polarizability:  93.576  -7.666 111.776   1.615  -3.931  77.476

                      1                      2                      3
                      A                      A                      A
 Frequencies --     65.9363               184.2221               221.0741
 Red. masses --      2.7957                 1.1014                 1.0695
 Frc consts  --      0.0072                 0.0220                 0.0308
 IR Inten    --      0.6310                 0.7393                 3.9536

                      4                      5                      6
                      A                      A                      A
 Frequencies --    244.1285               271.7205               285.0115
 Red. masses --      1.8917                 1.3532                 2.5967
 Frc consts  --      0.0664                 0.0589                 0.1243
 IR Inten    --      7.1768                16.1042                10.3159

                      7                      8                      9
                      A                      A                      A
 Frequencies --    358.5202               366.7729               379.1709
 Red. masses --      1.7314                 1.8362                 2.9194
 Frc consts  --      0.1311                 0.1455                 0.2473
 IR Inten    --     32.2399                25.0580                 6.7771

                     10                     11                     12
                      A                      A                      A
 Frequencies --    464.0648               507.9901               539.2275
 Red. masses --      2.2860                 2.3691                 2.7963
 Frc consts  --      0.2901                 0.3602                 0.4790
 IR Inten    --     18.1621                 2.2384                29.1475

                     13                     14                     15
                      A                      A                      A
 Frequencies --    576.6857               704.3198               748.6948
 Red. masses --      2.3149                 3.3502                 1.1790
 Frc consts  --      0.4536                 0.9792                 0.3894
 IR Inten    --     10.1482                 6.9927                 3.3650

                     16                     17                     18
                      A                      A                      A
 Frequencies --    850.9998               904.5223               934.0356
 Red. masses --      1.5755                 2.5000                 1.3455
 Frc consts  --      0.6723                 1.2051                 0.6916
 IR Inten    --    149.0811                27.6607                32.6651

                     19                     20                     21
                      A                      A                      A
 Frequencies --    951.4496               973.0661              1003.3396
 Red. masses --      1.8529                 1.4379                 1.8623
 Frc consts  --      0.9883                 0.8022                 1.1046
 IR Inten    --     12.3871                16.0134                25.9817

                     22                     23                     24
                      A                      A                      A
 Frequencies --   1026.5725              1072.7005              1110.6010
 Red. masses --      1.4201                 1.4905                 1.7537
 Frc consts  --      0.8818                 1.0105                 1.2745
 IR Inten    --      4.9263                10.5717               113.6749

                     25                     26                     27
                      A                      A                      A
 Frequencies --   1211.8800              1252.8313              1309.6858
 Red. masses --      3.4820                 2.1241                 1.7784
 Frc consts  --      3.0130                 1.9643                 1.7972
 IR Inten    --     47.7189                16.5141                11.9827

                     28                     29                     30
                      A                      A                      A
 Frequencies --   1382.5227              1401.0173              1407.6657
 Red. masses --      1.6243                 1.3658                 1.2198
 Frc consts  --      1.8292                 1.5796                 1.4241
 IR Inten    --     48.1864                 7.4269                 4.0917

                     31                     32                     33
                      A                      A                      A
 Frequencies --   1445.5059              1475.0413              1490.7453
 Red. masses --      1.1817                 1.0475                 1.0670
 Frc consts  --      1.4548                 1.3428                 1.3971
 IR Inten    --      2.4196                 5.2405                 5.0076

                     34                     35                     36
                      A                      A                      A
 Frequencies --   1492.1232              1495.0836              1648.8162
 Red. masses --      1.0597                 1.0575                 1.1130
 Frc consts  --      1.3901                 1.3927                 1.7827
 IR Inten    --      1.9228                12.4515                24.7190

                     37                     38                     39
                      A                      A                      A
 Frequencies --   1720.0570              3036.1528              3040.7025
 Red. masses --      5.5577                 1.0382                 1.0365
 Frc consts  --      9.6880                 5.6386                 5.6464
 IR Inten    --      8.2780                18.5397                15.7231

                     40                     41                     42
                      A                      A                      A
 Frequencies --   3095.6701              3109.9813              3124.1089
 Red. masses --      1.0947                 1.1021                 1.1026
 Frc consts  --      6.1811                 6.2803                 6.3402
 IR Inten    --     19.6522                22.5886                16.4651

                     43                     44                     45
                      A                      A                      A
 Frequencies --   3139.3642              3149.2859              3226.0777
 Red. masses --      1.0997                 1.0609                 1.1137
 Frc consts  --      6.3857                 6.1991                 6.8292
 IR Inten    --     16.5035                 8.1296                14.6763

                     46                     47                     48
                      A                      A                      A
 Frequencies --   3497.5645              3586.6772              3795.3648
 Red. masses --      1.0489                 1.0928                 1.0650
 Frc consts  --      7.5600                 8.2824                 9.0391
 IR Inten    --      0.3245                 1.8341                24.2131

 - Thermochemistry -
 -------------------
 Temperature   298.150 Kelvin.  Pressure   1.00000 Atm.
 Atom     1 has atomic number  6 and mass  12.00000

 Molecular mass:   101.08406 amu.
 Principal axes and moments of inertia in atomic units:
                           1         2         3
     Eigenvalues --   547.19315 773.82893 934.76627
           X            0.99934   0.02839  -0.02271
           Y           -0.02731   0.99854   0.04662
           Z            0.02400  -0.04597   0.99865
 This molecule is an asymmetric top.
 Rotational symmetry number  1.
 Warning -- assumption of classical behavior for rotation
           may cause significant error
 Rotational temperatures (Kelvin)      0.15829     0.11193     0.09266
 Rotational constants (GHZ):           3.29818     2.33222     1.93069
 Zero-point vibrational energy     414379.0 (Joules/Mol)
                                   99.03895 (Kcal/Mol)
 Warning -- explicit consideration of  13 degrees of freedom as
           vibrations may cause significant error
 Vibrational temperatures:     94.87   265.05   318.08   351.25   390.94
          (Kelvin)            410.07   515.83   527.70   545.54   667.68
                              730.88   775.83   829.72  1013.36  1077.20
                             1224.40  1301.40  1343.87  1368.92  1400.02
                             1443.58  1477.01  1543.37  1597.91  1743.62
                             1802.54  1884.34  1989.14  2015.75  2025.31
                             2079.76  2122.25  2144.85  2146.83  2151.09
                             2372.28  2474.78  4368.34  4374.89  4453.97
                             4474.56  4494.89  4516.84  4531.11  4641.60
                             5032.21  5160.42  5460.68

 Zero-point correction=                           0.157829 (Hartree/Particle)
 Thermal correction to Energy=                    0.166505
 Thermal correction to Enthalpy=                  0.167450
 Thermal correction to Gibbs Free Energy=         0.125618
 Sum of electronic and zero-point Energies=           -326.977311
 Sum of electronic and thermal Energies=              -326.968634
 Sum of electronic and thermal Enthalpies=            -326.967690
 Sum of electronic and thermal Free Energies=         -327.009522

                     E (Thermal)             CV                S
                      KCal/Mol        Cal/Mol-Kelvin    Cal/Mol-Kelvin
 Total                  104.484             32.756             88.042
 Electronic               0.000              0.000              0.000
 Translational            0.889              2.981             39.750
 Rotational               0.889              2.981             27.473
 Vibrational            102.706             26.795             20.819
 Vibration     1          0.597              1.971              4.271
 Vibration     2          0.631              1.861              2.285
 Vibration     3          0.648              1.809              1.950
 Vibration     4          0.659              1.772              1.773
 Vibration     5          0.675              1.725              1.585
 Vibration     6          0.683              1.701              1.503
 Vibration     7          0.733              1.558              1.129
 Vibration     8          0.740              1.541              1.093
 Vibration     9          0.749              1.515              1.042
 Vibration    10          0.822              1.330              0.754
 Vibration    11          0.863              1.232              0.638
 Vibration    12          0.894              1.163              0.567
 Vibration    13          0.933              1.082              0.492

 Optimization completed.
    -- Stationary point found.
 Normal termination of Gaussian 09 at Sat Aug 20 05:26:24 2022.

 -----------------------------------------------------------------
 #P Geom=AllCheck Guess=TCheck SCRF=Check CCSD(T,E4T,FrzG4)/GTBas1
 -----------------------------------------------------------------

 Structure from the checkpoint file:  "G4.Frag_503.chk"
 --------
 Frag_503
 --------
 Charge =  0 Multiplicity = 1

 SCF Done:  E(RHF) =  -325.022655532     A.U. after   12 cycles
 E2 =    -0.9955975981D+00 EUMP2 =    -0.32601825313003D+03
 CCSD(T)
 CCSD(T)= -0.32611615209D+03
 24\CCSD(T)=-326.1161521\RMSD=5.957e-09\PG=C01 [X(C5H11N1O1)]\\@
 Normal termination of Gaussian 09 at Sat Aug 20 05:43:08 2022.

 ---------------------------------------------------------
 #P Geom=AllCheck Guess=TCheck SCRF=Check MP4=FrzG4/GTBas2
 ---------------------------------------------------------

 Structure from the checkpoint file:  "G4.Frag_503.chk"
 --------
 Frag_503
 --------
 Charge =  0 Multiplicity = 1

 SCF Done:  E(RHF) =  -325.033725806     A.U. after   13 cycles
 E2 =    -0.1010798422D+01 EUMP2 =    -0.32604452422801D+03
 Normal termination of Gaussian 09 at Sat Aug 20 06:04:10 2022.

 ---------------------------------------------------------
 #P Geom=AllCheck Guess=TCheck SCRF=Check MP4=FrzG4/GTBas3
 ---------------------------------------------------------

 Structure from the checkpoint file:  "G4.Frag_503.chk"
 --------
 Frag_503
 --------
 Charge =  0 Multiplicity = 1

 SCF Done:  E(RHF) =  -325.068408981     A.U. after   11 cycles
 E2 =    -0.1228993249D+01 EUMP2 =    -0.32629740222992D+03
 Normal termination of Gaussian 09 at Sat Aug 20 11:22:48 2022.

 -----------------------------------------------------------
 #P Geom=AllCheck Guess=TCheck SCRF=Check MP2=Full/GTLargeXP
 -----------------------------------------------------------

 Structure from the checkpoint file:  "G4.Frag_503.chk"
 --------
 Frag_503
 --------
 Charge =  0 Multiplicity = 1

 SCF Done:  E(RHF) =  -325.149555717     A.U. after   12 cycles
 E2 =    -0.1614478536D+01 EUMP2 =    -0.32676403425349D+03
 Normal termination of Gaussian 09 at Sat Aug 20 11:36:09 2022.
 SCF Done:  E(RHF) =  -325.175240234     A.U. after    8 cycles
 Normal termination of Gaussian 09 at Sat Aug 20 11:46:31 2022.

                         Standard orientation:
 ---------------------------------------------------------------------
 Center     Atomic      Atomic             Coordinates (Angstroms)
 Number     Number       Type             X           Y           Z
 ---------------------------------------------------------------------
      1          6           0        1.429903   -1.434071    0.106068
      2          6           0        0.919868   -0.208195    0.008332
      3          6           0        1.796161    1.017202   -0.037877
      4          6           0       -0.595115    0.035400   -0.038667
      5          6           0       -1.099106    0.538396    1.327471
      6          7           0       -1.413665   -1.108647   -0.424399
      7          8           0       -0.783620    1.039027   -1.033396
      8          1           0        2.501353   -1.595591    0.164403
      9          1           0        0.807264   -2.321224    0.135755
     10          1           0        1.628284    1.571935   -0.965096
     11          1           0        2.852860    0.746631    0.030445
     12          1           0        1.568340    1.707269    0.782818
     13          1           0       -0.897299   -0.191541    2.117942
     14          1           0       -0.608106    1.477173    1.589804
     15          1           0       -2.178535    0.712169    1.277027
     16          1           0       -0.973841   -1.605135   -1.193907
     17          1           0       -1.519528   -1.764012    0.342649
     18          1           0       -1.726442    1.018241   -1.235835
 ---------------------------------------------------------------------

 SCF Done:  E(RHF) =  -325.180748283     A.U. after    8 cycles

 The electronic state is 1-A.
 Alpha  occ. eigenvalues --  -20.55042 -15.54766 -11.32122 -11.23941 -11.21882
 Alpha  occ. eigenvalues --  -11.21536 -11.21464  -1.37161  -1.18185  -1.07402
 Alpha  occ. eigenvalues --   -0.98505  -0.92972  -0.84710  -0.72418  -0.69675
 Alpha  occ. eigenvalues --   -0.66867  -0.64430  -0.60756  -0.58098  -0.56268
 Alpha  occ. eigenvalues --   -0.55018  -0.53424  -0.53169  -0.51659  -0.48681
 Alpha  occ. eigenvalues --   -0.45402  -0.40854  -0.35742
 Alpha virt. eigenvalues --    0.03211   0.04158   0.04404   0.04920   0.06337
 Alpha virt. eigenvalues --    0.06631   0.06808   0.07073   0.07399   0.09471
 Alpha virt. eigenvalues --    0.09680   0.09798   0.10177   0.11097   0.11487

 Mulliken charges:
               1
     1  C   -0.496094
     2  C    0.181136
     3  C   -0.599361
     4  C    0.458446
     5  C   -0.571011
     6  N   -0.782293
     7  O   -0.609437
     8  H    0.182971
     9  H    0.169225
    10  H    0.211595
    11  H    0.159038
    12  H    0.169416
    13  H    0.174854
    14  H    0.183278
    15  H    0.177293
    16  H    0.306614
    17  H    0.301074
    18  H    0.383255
 Sum of Mulliken charges =  -0.00000

 Dipole moment (field-independent basis, Debye):
    X=             -0.1904    Y=             -1.0475    Z=              1.0695  Tot=              1.5091
 Quadrupole moment (field-independent basis, Debye-Ang):
   XX=            -43.9773   YY=            -42.8205   ZZ=            -45.9704
   XY=             -0.2387   XZ=             -0.3257   YZ=              0.8469

 Normal termination of Gaussian 09 at Sat Aug 20 16:53:54 2022.
