 Gaussian 09, Revision E.01,
 Gaussian 09:  ES64L-G09RevE.01 30-Nov-2015

 -----
 #P G4
 -----

 --------
 Frag_610
 --------
 Symbolic Z-matrix:
 Charge =  0 Multiplicity = 1

 SCF Done:  E(RB3LYP) =  -228.615426888     A.U. after   13 cycles
 SCF Done:  E(RB3LYP) =  -228.621124783     A.U. after   13 cycles
 SCF Done:  E(RB3LYP) =  -228.622558754     A.U. after   13 cycles
 SCF Done:  E(RB3LYP) =  -228.624182773     A.U. after   15 cycles
 SCF Done:  E(RB3LYP) =  -228.625077607     A.U. after   12 cycles
 SCF Done:  E(RB3LYP) =  -228.625384604     A.U. after   11 cycles
 SCF Done:  E(RB3LYP) =  -228.625468735     A.U. after   12 cycles
 SCF Done:  E(RB3LYP) =  -228.625501178     A.U. after   10 cycles
 SCF Done:  E(RB3LYP) =  -228.625521166     A.U. after    8 cycles
 SCF Done:  E(RB3LYP) =  -228.625526780     A.U. after    9 cycles
 SCF Done:  E(RB3LYP) =  -228.625528607     A.U. after    8 cycles
 SCF Done:  E(RB3LYP) =  -228.625529281     A.U. after    7 cycles
 Optimization completed.
    -- Stationary point found.
 Normal termination of Gaussian 09 at Fri Aug 26 07:52:10 2022.

 ----------------------------------------------------------
 #P Geom=AllCheck Guess=TCheck SCRF=Check B3LYP/GTBas3 Freq
 ----------------------------------------------------------

 Structure from the checkpoint file:  "G4.Frag_610.chk"
 --------
 Frag_610
 --------
 Charge =  0 Multiplicity = 1

 SCF Done:  E(RB3LYP) =  -228.625529281     A.U. after    1 cycles

  Exact polarizability:  59.902   0.465  45.546  -4.202  -2.014  38.147
 Approx polarizability:  80.188   2.958  64.133  -8.631  -5.812  58.361

                      1                      2                      3
                      A                      A                      A
 Frequencies --    133.8178               194.6822               247.2569
 Red. masses --      2.9259                 1.0556                 1.0660
 Frc consts  --      0.0309                 0.0236                 0.0384
 IR Inten    --      6.3373                29.6775                 4.2529

                      4                      5                      6
                      A                      A                      A
 Frequencies --    343.6774               389.9540               444.8369
 Red. masses --      2.7560                 2.5312                 2.2089
 Frc consts  --      0.1918                 0.2268                 0.2575
 IR Inten    --     16.0467                 1.7736                 9.5783

                      7                      8                      9
                      A                      A                      A
 Frequencies --    614.4434               749.8346               799.8646
 Red. masses --      2.7606                 1.3447                 1.9586
 Frc consts  --      0.6141                 0.4455                 0.7383
 IR Inten    --      2.7911                 4.3372                55.7286

                     10                     11                     12
                      A                      A                      A
 Frequencies --    847.0717               950.4214              1003.0057
 Red. masses --      1.6462                 1.7629                 1.6271
 Frc consts  --      0.6960                 0.9383                 0.9645
 IR Inten    --     54.4727                12.6733                 1.3871

                     13                     14                     15
                      A                      A                      A
 Frequencies --   1075.4741              1090.5641              1156.4348
 Red. masses --      1.4037                 1.7819                 2.0517
 Frc consts  --      0.9566                 1.2487                 1.6166
 IR Inten    --     16.7347                11.6526                23.3067

                     16                     17                     18
                      A                      A                      A
 Frequencies --   1228.6898              1253.0161              1372.3799
 Red. masses --      1.5249                 1.3321                 1.4347
 Frc consts  --      1.3564                 1.2323                 1.5921
 IR Inten    --     12.9152                 4.5206                17.9749

                     19                     20                     21
                      A                      A                      A
 Frequencies --   1377.4102              1401.0048              1480.0939
 Red. masses --      1.2642                 1.3229                 1.1176
 Frc consts  --      1.4132                 1.5299                 1.4425
 IR Inten    --     21.4913                11.1906                 8.3875

                     22                     23                     24
                      A                      A                      A
 Frequencies --   1488.8295              1496.8450              1651.8556
 Red. masses --      1.0430                 1.0611                 1.0937
 Frc consts  --      1.3621                 1.4008                 1.7583
 IR Inten    --      6.4775                 1.4768                30.2162

                     25                     26                     27
                      A                      A                      A
 Frequencies --   1734.7478              2954.9381              3040.5793
 Red. masses --      6.8804                 1.0819                 1.0361
 Frc consts  --     12.1993                 5.5661                 5.6439
 IR Inten    --     17.5581                56.3279                22.1298

                     28                     29                     30
                      A                      A                      A
 Frequencies --   3053.4983              3111.0250              3139.7321
 Red. masses --      1.0544                 1.1017                 1.1020
 Frc consts  --      5.7924                 6.2821                 6.4008
 IR Inten    --     28.3819                26.5546                 6.3206

                     31                     32                     33
                      A                      A                      A
 Frequencies --   3141.1934              3504.1912              3587.3955
 Red. masses --      1.1142                 1.0499                 1.0923
 Frc consts  --      6.4774                 7.5957                 8.2826
 IR Inten    --     36.2595                 0.1280                 0.9273

 - Thermochemistry -
 -------------------
 Temperature   298.150 Kelvin.  Pressure   1.00000 Atm.
 Atom     1 has atomic number  6 and mass  12.00000

 Molecular mass:    72.06875 amu.
 Principal axes and moments of inertia in atomic units:
                           1         2         3
     Eigenvalues --   232.52774 411.25284 563.04168
           X            0.99906   0.04237  -0.00940
           Y           -0.04210   0.99874   0.02717
           Z            0.01054  -0.02674   0.99959
 This molecule is an asymmetric top.
 Rotational symmetry number  1.
 Rotational temperatures (Kelvin)      0.37249     0.21061     0.15383
 Rotational constants (GHZ):           7.76140     4.38840     3.20534
 Zero-point vibrational energy     299417.9 (Joules/Mol)
                                   71.56260 (Kcal/Mol)
 Warning -- explicit consideration of   7 degrees of freedom as
           vibrations may cause significant error
 Vibrational temperatures:    192.53   280.10   355.75   494.47   561.06
          (Kelvin)            640.02   884.05  1078.84  1150.83  1218.75
                             1367.44  1443.10  1547.37  1569.08  1663.85
                             1767.81  1802.81  1974.55  1981.78  2015.73
                             2129.52  2142.09  2153.62  2376.65  2495.91
                             4251.49  4374.71  4393.30  4476.07  4517.37
                             4519.47  5041.74  5161.46

 Zero-point correction=                           0.114042 (Hartree/Particle)
 Thermal correction to Energy=                    0.120179
 Thermal correction to Enthalpy=                  0.121123
 Thermal correction to Gibbs Free Energy=         0.085163
 Sum of electronic and zero-point Energies=           -228.511487
 Sum of electronic and thermal Energies=              -228.505350
 Sum of electronic and thermal Enthalpies=            -228.504406
 Sum of electronic and thermal Free Energies=         -228.540366

                     E (Thermal)             CV                S
                      KCal/Mol        Cal/Mol-Kelvin    Cal/Mol-Kelvin
 Total                   75.414             21.553             75.685
 Electronic               0.000              0.000              0.000
 Translational            0.889              2.981             38.742
 Rotational               0.889              2.981             25.491
 Vibrational             73.636             15.592             11.453
 Vibration     1          0.613              1.920              2.890
 Vibration     2          0.635              1.847              2.183
 Vibration     3          0.661              1.767              1.750
 Vibration     4          0.722              1.588              1.195
 Vibration     5          0.758              1.492              1.000
 Vibration     6          0.804              1.372              0.812
 Vibration     7          0.974              1.001              0.425

 Optimization completed.
    -- Stationary point found.
 Normal termination of Gaussian 09 at Fri Aug 26 07:52:33 2022.

 -----------------------------------------------------------------
 #P Geom=AllCheck Guess=TCheck SCRF=Check CCSD(T,E4T,FrzG4)/GTBas1
 -----------------------------------------------------------------

 Structure from the checkpoint file:  "G4.Frag_610.chk"
 --------
 Frag_610
 --------
 Charge =  0 Multiplicity = 1

 SCF Done:  E(RHF) =  -227.122227713     A.U. after   13 cycles
 E2 =    -0.7139082342D+00 EUMP2 =    -0.22783613594749D+03
 CCSD(T)
 CCSD(T)= -0.22790921915D+03
 Q=-227.907943\MP4SDQ=-227.8840346\CCSD=-227.8851159\CCSD(T)=-227.90921
 Normal termination of Gaussian 09 at Fri Aug 26 07:53:36 2022.

 ---------------------------------------------------------
 #P Geom=AllCheck Guess=TCheck SCRF=Check MP4=FrzG4/GTBas2
 ---------------------------------------------------------

 Structure from the checkpoint file:  "G4.Frag_610.chk"
 --------
 Frag_610
 --------
 Charge =  0 Multiplicity = 1

 SCF Done:  E(RHF) =  -227.129935584     A.U. after   12 cycles
 E2 =    -0.7242828765D+00 EUMP2 =    -0.22785421846032D+03
 Normal termination of Gaussian 09 at Fri Aug 26 07:53:53 2022.

 ---------------------------------------------------------
 #P Geom=AllCheck Guess=TCheck SCRF=Check MP4=FrzG4/GTBas3
 ---------------------------------------------------------

 Structure from the checkpoint file:  "G4.Frag_610.chk"
 --------
 Frag_610
 --------
 Charge =  0 Multiplicity = 1

 SCF Done:  E(RHF) =  -227.152852578     A.U. after   12 cycles
 E2 =    -0.8741415926D+00 EUMP2 =    -0.22802699417020D+03
 Normal termination of Gaussian 09 at Fri Aug 26 07:55:26 2022.

 -----------------------------------------------------------
 #P Geom=AllCheck Guess=TCheck SCRF=Check MP2=Full/GTLargeXP
 -----------------------------------------------------------

 Structure from the checkpoint file:  "G4.Frag_610.chk"
 --------
 Frag_610
 --------
 Charge =  0 Multiplicity = 1

 SCF Done:  E(RHF) =  -227.208863316     A.U. after   12 cycles
 E2 =    -0.1147092340D+01 EUMP2 =    -0.22835595565624D+03
 Normal termination of Gaussian 09 at Fri Aug 26 07:56:24 2022.
 SCF Done:  E(RHF) =  -227.226393670     A.U. after    9 cycles
 Normal termination of Gaussian 09 at Fri Aug 26 07:57:35 2022.

                         Standard orientation:
 ---------------------------------------------------------------------
 Center     Atomic      Atomic             Coordinates (Angstroms)
 Number     Number       Type             X           Y           Z
 ---------------------------------------------------------------------
      1          6           0        1.824663   -0.122404   -0.272219
      2          7           0        0.866757   -0.664205    0.351270
      3          6           0       -0.422937    0.020429    0.432334
      4          6           0       -1.461804   -0.845342   -0.286336
      5          7           0       -0.430020    1.371055   -0.131734
      6          1           0        2.775244   -0.655532   -0.330746
      7          1           0        1.754023    0.849441   -0.769795
      8          1           0       -0.665031    0.016869    1.508262
      9          1           0       -1.271269   -0.833671   -1.363957
     10          1           0       -1.399917   -1.875591    0.068635
     11          1           0       -2.474134   -0.470324   -0.103780
     12          1           0       -0.033464    2.036415    0.524696
     13          1           0       -1.382145    1.668342   -0.312741
 ---------------------------------------------------------------------

 SCF Done:  E(RHF) =  -227.230111555     A.U. after    8 cycles

 The electronic state is 1-A.
 Alpha  occ. eigenvalues --  -15.55281 -15.54509 -11.28509 -11.26136 -11.21489
 Alpha  occ. eigenvalues --   -1.24421  -1.15501  -0.99566  -0.87024  -0.75914
 Alpha  occ. eigenvalues --   -0.67514  -0.67023  -0.63221  -0.59077  -0.53903
 Alpha  occ. eigenvalues --   -0.51875  -0.51569  -0.42406  -0.40564  -0.39785
 Alpha virt. eigenvalues --    0.03797   0.04281   0.04501   0.05425   0.06590
 Alpha virt. eigenvalues --    0.06968   0.07402   0.07930   0.08908   0.10151
 Alpha virt. eigenvalues --    0.11485   0.12609   0.13311   0.14376   0.15252

 Mulliken charges:
               1
     1  C   -0.260226
     2  N   -0.348188
     3  C    0.196690
     4  C   -0.541530
     5  N   -0.746245
     6  H    0.208632
     7  H    0.212692
     8  H    0.154096
     9  H    0.178490
    10  H    0.195851
    11  H    0.152376
    12  H    0.298834
    13  H    0.298529
 Sum of Mulliken charges =  -0.00000

 Dipole moment (field-independent basis, Debye):
    X=             -0.7445    Y=              1.6941    Z=              0.1338  Tot=              1.8553
 Quadrupole moment (field-independent basis, Debye-Ang):
   XX=            -27.9935   YY=            -32.3409   ZZ=            -33.3036
   XY=              0.3620   XZ=             -1.5886   YZ=              2.6199

 Normal termination of Gaussian 09 at Fri Aug 26 08:02:14 2022.
