 Gaussian 09, Revision E.01,
 Gaussian 09:  ES64L-G09RevE.01 30-Nov-2015

 -----
 #P G4
 -----

 --------
 Frag_677
 --------
 Symbolic Z-matrix:
 Charge =  0 Multiplicity = 1

 SCF Done:  E(RB3LYP) =  -289.038035533     A.U. after   13 cycles
 SCF Done:  E(RB3LYP) =  -289.043089914     A.U. after   11 cycles
 SCF Done:  E(RB3LYP) =  -289.043361876     A.U. after   10 cycles
 SCF Done:  E(RB3LYP) =  -289.043449210     A.U. after    9 cycles
 SCF Done:  E(RB3LYP) =  -289.043481384     A.U. after   10 cycles
 SCF Done:  E(RB3LYP) =  -289.043501518     A.U. after    9 cycles
 SCF Done:  E(RB3LYP) =  -289.043517596     A.U. after    9 cycles
 SCF Done:  E(RB3LYP) =  -289.043524290     A.U. after    9 cycles
 SCF Done:  E(RB3LYP) =  -289.043526590     A.U. after    7 cycles
 SCF Done:  E(RB3LYP) =  -289.043528315     A.U. after    7 cycles
 SCF Done:  E(RB3LYP) =  -289.043528948     A.U. after    7 cycles
 Optimization completed.
    -- Stationary point found.
 Normal termination of Gaussian 09 at Fri Aug 26 10:49:43 2022.

 ----------------------------------------------------------
 #P Geom=AllCheck Guess=TCheck SCRF=Check B3LYP/GTBas3 Freq
 ----------------------------------------------------------

 Structure from the checkpoint file:  "G4.Frag_677.chk"
 --------
 Frag_677
 --------
 Charge =  0 Multiplicity = 1

 SCF Done:  E(RB3LYP) =  -289.043528948     A.U. after    1 cycles

  Exact polarizability:  60.839  -1.527  56.694   0.857  -0.464  51.575
 Approx polarizability:  78.215  -1.826  78.423  -0.545  -3.083  76.049

                      1                      2                      3
                      A                      A                      A
 Frequencies --     90.5109               196.9834               209.9104
 Red. masses --      2.6647                 1.0625                 1.1868
 Frc consts  --      0.0129                 0.0243                 0.0308
 IR Inten    --      2.8911                 1.6953                17.3884

                      4                      5                      6
                      A                      A                      A
 Frequencies --    233.0905               263.3419               274.1767
 Red. masses --      1.1433                 2.3461                 1.7210
 Frc consts  --      0.0366                 0.0959                 0.0762
 IR Inten    --     23.2727                 6.2923                62.0017

                      7                      8                      9
                      A                      A                      A
 Frequencies --    281.6908               356.6478               449.2908
 Red. masses --      1.4347                 2.3167                 2.8671
 Frc consts  --      0.0671                 0.1736                 0.3410
 IR Inten    --     43.1870                 0.3609                 0.9242

                     10                     11                     12
                      A                      A                      A
 Frequencies --    525.3352               640.3178               775.2149
 Red. masses --      3.1244                 2.8684                 2.2941
 Frc consts  --      0.5080                 0.6929                 0.8123
 IR Inten    --      7.1487                13.3289                29.7931

                     13                     14                     15
                      A                      A                      A
 Frequencies --    867.7073               922.3920               936.5065
 Red. masses --      1.5654                 1.4470                 1.5083
 Frc consts  --      0.6944                 0.7254                 0.7794
 IR Inten    --    105.3277                 2.5824                19.6438

                     16                     17                     18
                      A                      A                      A
 Frequencies --    967.5511               999.6784              1058.4627
 Red. masses --      1.5312                 2.5244                 1.8500
 Frc consts  --      0.8446                 1.4864                 1.2211
 IR Inten    --      5.8041                44.3017                33.9099

                     19                     20                     21
                      A                      A                      A
 Frequencies --   1104.0462              1143.0417              1199.9771
 Red. masses --      1.6133                 2.2261                 1.8461
 Frc consts  --      1.1586                 1.7136                 1.5662
 IR Inten    --     20.4318                24.5518                 0.1916

                     22                     23                     24
                      A                      A                      A
 Frequencies --   1249.7038              1291.0517              1340.0958
 Red. masses --      1.3043                 1.2086                 1.4314
 Frc consts  --      1.2001                 1.1870                 1.5145
 IR Inten    --      5.5348                58.4477                 5.7206

                     25                     26                     27
                      A                      A                      A
 Frequencies --   1351.3139              1389.3696              1402.6279
 Red. masses --      1.5297                 1.2577                 1.3063
 Frc consts  --      1.6458                 1.4305                 1.5142
 IR Inten    --      9.8157                 7.6940                 6.5859

                     28                     29                     30
                      A                      A                      A
 Frequencies --   1430.2020              1446.0248              1483.6134
 Red. masses --      1.4657                 1.3516                 1.0461
 Frc consts  --      1.7664                 1.6652                 1.3567
 IR Inten    --     33.8113                 9.5627                 0.7217

                     31                     32                     33
                      A                      A                      A
 Frequencies --   1491.7141              1505.8315              1515.7130
 Red. masses --      1.0475                 1.0479                 1.0610
 Frc consts  --      1.3733                 1.4000                 1.4361
 IR Inten    --      0.4229                 6.3953                 9.6368

                     34                     35                     36
                      A                      A                      A
 Frequencies --   1638.7687              2864.1575              2990.3920
 Red. masses --      1.1056                 1.0814                 1.0823
 Frc consts  --      1.7494                 5.2266                 5.7025
 IR Inten    --     35.6538               118.0190                33.7329

                     37                     38                     39
                      A                      A                      A
 Frequencies --   3021.5977              3043.4598              3083.7172
 Red. masses --      1.0366                 1.0370                 1.1009
 Frc consts  --      5.5764                 5.6593                 6.1682
 IR Inten    --     27.6428                22.6963                36.8559

                     40                     41                     42
                      A                      A                      A
 Frequencies --   3101.5055              3111.0745              3133.5983
 Red. masses --      1.0992                 1.1004                 1.1000
 Frc consts  --      6.2296                 6.2754                 6.3640
 IR Inten    --     18.6813                35.1689                17.0339

                     43                     44                     45
                      A                      A                      A
 Frequencies --   3503.0053              3588.4387              3838.4403
 Red. masses --      1.0490                 1.0927                 1.0658
 Frc consts  --      7.5842                 8.2901                 9.2524
 IR Inten    --      0.3930                 1.2420                18.4662

 - Thermochemistry -
 -------------------
 Temperature   298.150 Kelvin.  Pressure   1.00000 Atm.
 Atom     1 has atomic number  6 and mass  12.00000

 Molecular mass:    89.08406 amu.
 Principal axes and moments of inertia in atomic units:
                           1         2         3
     Eigenvalues --   396.06429 660.80259 776.95398
           X            0.99950  -0.01999   0.02433
           Y            0.01848   0.99798   0.06082
           Z           -0.02549  -0.06034   0.99785
 This molecule is an asymmetric top.
 Rotational symmetry number  1.
 Rotational temperatures (Kelvin)      0.21869     0.13107     0.11148
 Rotational constants (GHZ):           4.55669     2.73114     2.32284
 Zero-point vibrational energy     402610.9 (Joules/Mol)
                                   96.22632 (Kcal/Mol)
 Warning -- explicit consideration of  10 degrees of freedom as
           vibrations may cause significant error
 Vibrational temperatures:    130.22   283.41   302.01   335.36   378.89
          (Kelvin)            394.48   405.29   513.14   646.43   755.84
                              921.27  1115.36  1248.44  1327.11  1347.42
                             1392.09  1438.31  1522.89  1588.47  1644.58
                             1726.50  1798.04  1857.53  1928.10  1944.24
                             1998.99  2018.07  2057.74  2080.50  2134.59
                             2146.24  2166.55  2180.77  2357.82  4120.88
                             4302.50  4347.40  4378.85  4436.78  4462.37
                             4476.14  4508.54  5040.04  5162.96  5522.65

 Zero-point correction=                           0.153346 (Hartree/Particle)
 Thermal correction to Energy=                    0.161390
 Thermal correction to Enthalpy=                  0.162334
 Thermal correction to Gibbs Free Energy=         0.122025
 Sum of electronic and zero-point Energies=           -288.890183
 Sum of electronic and thermal Energies=              -288.882139
 Sum of electronic and thermal Enthalpies=            -288.881195
 Sum of electronic and thermal Free Energies=         -288.921504

                     E (Thermal)             CV                S
                      KCal/Mol        Cal/Mol-Kelvin    Cal/Mol-Kelvin
 Total                  101.274             28.938             84.837
 Electronic               0.000              0.000              0.000
 Translational            0.889              2.981             39.374
 Rotational               0.889              2.981             26.811
 Vibrational             99.496             22.976             18.653
 Vibration     1          0.602              1.956              3.649
 Vibration     2          0.636              1.844              2.161
 Vibration     3          0.642              1.826              2.044
 Vibration     4          0.654              1.790              1.855
 Vibration     5          0.670              1.740              1.640
 Vibration     6          0.676              1.721              1.570
 Vibration     7          0.681              1.708              1.523
 Vibration     8          0.732              1.562              1.137
 Vibration     9          0.808              1.362              0.798
 Vibration    10          0.880              1.194              0.598

 Optimization completed.
    -- Stationary point found.
 Normal termination of Gaussian 09 at Fri Aug 26 10:50:24 2022.

 -----------------------------------------------------------------
 #P Geom=AllCheck Guess=TCheck SCRF=Check CCSD(T,E4T,FrzG4)/GTBas1
 -----------------------------------------------------------------

 Structure from the checkpoint file:  "G4.Frag_677.chk"
 --------
 Frag_677
 --------
 Charge =  0 Multiplicity = 1

 SCF Done:  E(RHF) =  -287.170045262     A.U. after   12 cycles
 E2 =    -0.8720115358D+00 EUMP2 =    -0.28804205679791D+03
 CCSD(T)
 CCSD(T)= -0.28812909644D+03
 .1028983\CCSD=-288.1039169\CCSD(T)=-288.1290964\RMSD=3.671e-09\PG=C01
 Normal termination of Gaussian 09 at Fri Aug 26 10:53:01 2022.

 ---------------------------------------------------------
 #P Geom=AllCheck Guess=TCheck SCRF=Check MP4=FrzG4/GTBas2
 ---------------------------------------------------------

 Structure from the checkpoint file:  "G4.Frag_677.chk"
 --------
 Frag_677
 --------
 Charge =  0 Multiplicity = 1

 SCF Done:  E(RHF) =  -287.178783346     A.U. after   11 cycles
 E2 =    -0.8859604511D+00 EUMP2 =    -0.28806474379758D+03
 Normal termination of Gaussian 09 at Fri Aug 26 10:53:50 2022.

 ---------------------------------------------------------
 #P Geom=AllCheck Guess=TCheck SCRF=Check MP4=FrzG4/GTBas3
 ---------------------------------------------------------

 Structure from the checkpoint file:  "G4.Frag_677.chk"
 --------
 Frag_677
 --------
 Charge =  0 Multiplicity = 1

 SCF Done:  E(RHF) =  -287.213055083     A.U. after   11 cycles
 E2 =    -0.1088474575D+01 EUMP2 =    -0.28830152965836D+03
 Normal termination of Gaussian 09 at Fri Aug 26 10:58:46 2022.

 -----------------------------------------------------------
 #P Geom=AllCheck Guess=TCheck SCRF=Check MP2=Full/GTLargeXP
 -----------------------------------------------------------

 Structure from the checkpoint file:  "G4.Frag_677.chk"
 --------
 Frag_677
 --------
 Charge =  0 Multiplicity = 1

 SCF Done:  E(RHF) =  -287.285189116     A.U. after   12 cycles
 E2 =    -0.1424406122D+01 EUMP2 =    -0.28870959523727D+03
 Normal termination of Gaussian 09 at Fri Aug 26 11:01:22 2022.
 SCF Done:  E(RHF) =  -287.308308817     A.U. after    8 cycles
 Normal termination of Gaussian 09 at Fri Aug 26 11:03:47 2022.

                         Standard orientation:
 ---------------------------------------------------------------------
 Center     Atomic      Atomic             Coordinates (Angstroms)
 Number     Number       Type             X           Y           Z
 ---------------------------------------------------------------------
      1          6           0        0.887356    1.336906    0.676038
      2          6           0        0.672542    0.290874   -0.423643
      3          6           0        1.777037   -0.773745   -0.412059
      4          6           0       -0.717534   -0.373759   -0.319907
      5          7           0       -1.768048    0.619748   -0.434219
      6          8           0       -0.932282   -0.991020    0.942374
      7          1           0        1.867221    1.813904    0.572456
      8          1           0        0.114199    2.106819    0.639120
      9          1           0        0.835834    0.864246    1.661235
     10          1           0        0.702212    0.792105   -1.403130
     11          1           0        2.761243   -0.319884   -0.561751
     12          1           0        1.807531   -1.297420    0.551117
     13          1           0        1.631290   -1.520949   -1.200936
     14          1           0       -0.776419   -1.156423   -1.104715
     15          1           0       -1.706448    1.088922   -1.331914
     16          1           0       -2.671203    0.158331   -0.390344
     17          1           0       -0.447276   -1.821385    0.946831
 ---------------------------------------------------------------------

 SCF Done:  E(RHF) =  -287.313396226     A.U. after    8 cycles

 The electronic state is 1-A.
 Alpha  occ. eigenvalues --  -20.55354 -15.53873 -11.30635 -11.22610 -11.21753
 Alpha  occ. eigenvalues --  -11.19911  -1.36862  -1.17299  -1.06245  -0.92622
 Alpha  occ. eigenvalues --   -0.88353  -0.77382  -0.70479  -0.66252  -0.63916
 Alpha  occ. eigenvalues --   -0.59134  -0.58784  -0.55470  -0.53289  -0.52558
 Alpha  occ. eigenvalues --   -0.50820  -0.47396  -0.46936  -0.44185  -0.39181
 Alpha virt. eigenvalues --    0.03201   0.04125   0.04414   0.04823   0.06636
 Alpha virt. eigenvalues --    0.06906   0.07218   0.07652   0.08135   0.09838
 Alpha virt. eigenvalues --    0.10563   0.10751   0.11051   0.12423   0.13174

 Mulliken charges:
               1
     1  C   -0.534195
     2  C    0.021249
     3  C   -0.571522
     4  C    0.190883
     5  N   -0.710209
     6  O   -0.600121
     7  H    0.154108
     8  H    0.182792
     9  H    0.177415
    10  H    0.126354
    11  H    0.168663
    12  H    0.155601
    13  H    0.161155
    14  H    0.124357
    15  H    0.290867
    16  H    0.296480
    17  H    0.366123
 Sum of Mulliken charges =  -0.00000

 Dipole moment (field-independent basis, Debye):
    X=              0.7003    Y=             -1.2508    Z=             -2.2487  Tot=              2.6668
 Quadrupole moment (field-independent basis, Debye-Ang):
   XX=            -39.0522   YY=            -37.6793   ZZ=            -39.6874
   XY=              0.3301   XZ=              3.9037   YZ=             -1.8383

 Normal termination of Gaussian 09 at Fri Aug 26 11:12:55 2022.
