 Gaussian 09, Revision E.01,
 Gaussian 09:  ES64L-G09RevE.01 30-Nov-2015

 -----
 #P G4
 -----

 --------
 Frag_509
 --------
 Symbolic Z-matrix:
 Charge =  0 Multiplicity = 1

 SCF Done:  E(RB3LYP) =  -173.264812820     A.U. after   13 cycles
 SCF Done:  E(RB3LYP) =  -173.268788872     A.U. after   12 cycles
 SCF Done:  E(RB3LYP) =  -173.270217582     A.U. after   12 cycles
 SCF Done:  E(RB3LYP) =  -173.271452358     A.U. after   14 cycles
 SCF Done:  E(RB3LYP) =  -173.271824633     A.U. after   10 cycles
 SCF Done:  E(RB3LYP) =  -173.271912851     A.U. after   10 cycles
 SCF Done:  E(RB3LYP) =  -173.271957393     A.U. after   10 cycles
 SCF Done:  E(RB3LYP) =  -173.271962088     A.U. after    8 cycles
 SCF Done:  E(RB3LYP) =  -173.271961840     A.U. after    7 cycles
 Optimization completed.
    -- Stationary point found.
 Normal termination of Gaussian 09 at Tue Aug 23 03:40:40 2022.

 ----------------------------------------------------------
 #P Geom=AllCheck Guess=TCheck SCRF=Check B3LYP/GTBas3 Freq
 ----------------------------------------------------------

 Structure from the checkpoint file:  "G4.Frag_509.chk"
 --------
 Frag_509
 --------
 Charge =  0 Multiplicity = 1

 SCF Done:  E(RB3LYP) =  -173.271961840     A.U. after    1 cycles

  Exact polarizability:  53.742   2.798  34.286  -4.462   2.398  35.355
 Approx polarizability:  69.654   3.367  48.127 -10.074   4.242  54.156

                      1                      2                      3
                      A                      A                      A
 Frequencies --    114.5051               234.1451               364.0290
 Red. masses --      2.7911                 1.0858                 2.1478
 Frc consts  --      0.0216                 0.0351                 0.1677
 IR Inten    --      6.3258                 0.3403                 5.6759

                      4                      5                      6
                      A                      A                      A
 Frequencies --    482.1820               728.2005               818.4891
 Red. masses --      2.2468                 1.2053                 1.1216
 Frc consts  --      0.3078                 0.3766                 0.4427
 IR Inten    --      4.8139                 1.7608                 0.9131

                      7                      8                      9
                      A                      A                      A
 Frequencies --    865.1866              1038.2315              1062.4421
 Red. masses --      2.1749                 3.0266                 1.3539
 Frc consts  --      0.9592                 1.9222                 0.9005
 IR Inten    --      3.6483                 6.3460                14.3814

                     10                     11                     12
                      A                      A                      A
 Frequencies --   1111.1234              1153.0868              1237.2255
 Red. masses --      1.7590                 1.4569                 1.7057
 Frc consts  --      1.2795                 1.1413                 1.5383
 IR Inten    --      2.9473                 2.3279                19.0210

                     13                     14                     15
                      A                      A                      A
 Frequencies --   1293.8250              1373.9618              1404.8763
 Red. masses --      1.1346                 1.3261                 1.2539
 Frc consts  --      1.1191                 1.4749                 1.4581
 IR Inten    --      1.7823                17.8454                 3.2304

                     16                     17                     18
                      A                      A                      A
 Frequencies --   1485.4079              1489.3335              1496.8071
 Red. masses --      1.0635                 1.0430                 1.1006
 Frc consts  --      1.3826                 1.3631                 1.4529
 IR Inten    --      3.2192                 3.5489                 7.1524

                     19                     20                     21
                      A                      A                      A
 Frequencies --   1513.4987              1746.5328              2953.2789
 Red. masses --      1.1060                 6.6499                 1.0687
 Frc consts  --      1.4926                11.9515                 5.4916
 IR Inten    --      6.9023                21.3954                50.7696

                     22                     23                     24
                      A                      A                      A
 Frequencies --   2987.7549              3040.3458              3042.9530
 Red. masses --      1.0658                 1.0662                 1.0579
 Frc consts  --      5.6053                 5.8069                 5.7715
 IR Inten    --     58.5074                14.7400                25.9705

                     25                     26                     27
                      A                      A                      A
 Frequencies --   3113.4232              3122.7357              3129.2966
 Red. masses --      1.1021                 1.1022                 1.1027
 Frc consts  --      6.2943                 6.3323                 6.3620
 IR Inten    --     31.1658                23.5766                34.1771

 - Thermochemistry -
 -------------------
 Temperature   298.150 Kelvin.  Pressure   1.00000 Atm.
 Atom     1 has atomic number  6 and mass  12.00000

 Molecular mass:    57.05785 amu.
 Principal axes and moments of inertia in atomic units:
                           1         2         3
     Eigenvalues --    73.65818 394.79907 406.41237
           X            0.99990  -0.00497  -0.01289
           Y            0.00564   0.99863   0.05212
           Z            0.01261  -0.05218   0.99856
 This molecule is an asymmetric top.
 Rotational symmetry number  1.
 Rotational temperatures (Kelvin)      1.17589     0.21939     0.21312
 Rotational constants (GHZ):          24.50157     4.57129     4.44067
 Zero-point vibrational energy     253625.5 (Joules/Mol)
                                   60.61796 (Kcal/Mol)
 Warning -- explicit consideration of   4 degrees of freedom as
           vibrations may cause significant error
 Vibrational temperatures:    164.75   336.88   523.76   693.75  1047.72
          (Kelvin)           1177.62  1244.81  1493.78  1528.62  1598.66
                             1659.03  1780.09  1861.52  1976.82  2021.30
                             2137.17  2142.82  2153.57  2177.58  2512.87
                             4249.10  4298.71  4374.37  4378.13  4479.52
                             4492.91  4502.35

 Zero-point correction=                           0.096601 (Hartree/Particle)
 Thermal correction to Energy=                    0.101638
 Thermal correction to Enthalpy=                  0.102582
 Thermal correction to Gibbs Free Energy=         0.069361
 Sum of electronic and zero-point Energies=           -173.175361
 Sum of electronic and thermal Energies=              -173.170324
 Sum of electronic and thermal Enthalpies=            -173.169380
 Sum of electronic and thermal Free Energies=         -173.202601

                     E (Thermal)             CV                S
                      KCal/Mol        Cal/Mol-Kelvin    Cal/Mol-Kelvin
 Total                   63.779             16.517             69.920
 Electronic               0.000              0.000              0.000
 Translational            0.889              2.981             38.046
 Rotational               0.889              2.981             23.984
 Vibrational             62.001             10.556              7.890
 Vibration     1          0.607              1.937              3.191
 Vibration     2          0.654              1.789              1.847
 Vibration     3          0.738              1.546              1.105
 Vibration     4          0.838              1.290              0.704

 Optimization completed.
    -- Stationary point found.
 Normal termination of Gaussian 09 at Tue Aug 23 03:41:25 2022.

 -----------------------------------------------------------------
 #P Geom=AllCheck Guess=TCheck SCRF=Check CCSD(T,E4T,FrzG4)/GTBas1
 -----------------------------------------------------------------

 Structure from the checkpoint file:  "G4.Frag_509.chk"
 --------
 Frag_509
 --------
 Charge =  0 Multiplicity = 1

 SCF Done:  E(RHF) =  -172.098124932     A.U. after   13 cycles
 E2 =    -0.5492690287D+00 EUMP2 =    -0.17264739396087D+03
 CCSD(T)
 CCSD(T)= -0.17271010477D+03
 MP4SDQ=-172.6897438\CCSD=-172.6908163\CCSD(T)=-172.7101048\RMSD=5.681e
 Normal termination of Gaussian 09 at Tue Aug 23 03:41:55 2022.

 ---------------------------------------------------------
 #P Geom=AllCheck Guess=TCheck SCRF=Check MP4=FrzG4/GTBas2
 ---------------------------------------------------------

 Structure from the checkpoint file:  "G4.Frag_509.chk"
 --------
 Frag_509
 --------
 Charge =  0 Multiplicity = 1

 SCF Done:  E(RHF) =  -172.102545741     A.U. after   12 cycles
 E2 =    -0.5555720941D+00 EUMP2 =    -0.17265811783524D+03
 Normal termination of Gaussian 09 at Tue Aug 23 03:42:10 2022.

 ---------------------------------------------------------
 #P Geom=AllCheck Guess=TCheck SCRF=Check MP4=FrzG4/GTBas3
 ---------------------------------------------------------

 Structure from the checkpoint file:  "G4.Frag_509.chk"
 --------
 Frag_509
 --------
 Charge =  0 Multiplicity = 1

 SCF Done:  E(RHF) =  -172.119592364     A.U. after   11 cycles
 E2 =    -0.6747228235D+00 EUMP2 =    -0.17279431518724D+03
 Normal termination of Gaussian 09 at Tue Aug 23 03:49:26 2022.

 -----------------------------------------------------------
 #P Geom=AllCheck Guess=TCheck SCRF=Check MP2=Full/GTLargeXP
 -----------------------------------------------------------

 Structure from the checkpoint file:  "G4.Frag_509.chk"
 --------
 Frag_509
 --------
 Charge =  0 Multiplicity = 1

 SCF Done:  E(RHF) =  -172.159440933     A.U. after   12 cycles
 E2 =    -0.8891579372D+00 EUMP2 =    -0.17304859887015D+03
 Normal termination of Gaussian 09 at Tue Aug 23 03:50:20 2022.
 SCF Done:  E(RHF) =  -172.172973051     A.U. after    9 cycles
 Normal termination of Gaussian 09 at Tue Aug 23 03:52:11 2022.

                         Standard orientation:
 ---------------------------------------------------------------------
 Center     Atomic      Atomic             Coordinates (Angstroms)
 Number     Number       Type             X           Y           Z
 ---------------------------------------------------------------------
      1          6           0       -1.733603   -0.109152    0.233042
      2          7           0       -0.694151   -0.216215   -0.476042
      3          6           0        0.467375    0.579619   -0.111073
      4          6           0        1.668479   -0.326757    0.167264
      5          1           0       -2.616932   -0.700486   -0.013629
      6          1           0       -1.813126    0.558138    1.105060
      7          1           0        0.268232    1.231602    0.757012
      8          1           0        0.698668    1.229708   -0.964444
      9          1           0        2.561600    0.271398    0.371373
     10          1           0        1.478832   -0.967243    1.034129
     11          1           0        1.868271   -0.971870   -0.692606
 ---------------------------------------------------------------------

 SCF Done:  E(RHF) =  -172.175780429     A.U. after    7 cycles

 The electronic state is 1-A.
 Alpha  occ. eigenvalues --  -15.56124 -11.27136 -11.25256 -11.21422  -1.22944
 Alpha  occ. eigenvalues --   -1.01739  -0.87295  -0.78304  -0.65560  -0.64593
 Alpha  occ. eigenvalues --   -0.59523  -0.53772  -0.52551  -0.48986  -0.41742
 Alpha  occ. eigenvalues --   -0.40681
 Alpha virt. eigenvalues --    0.04103   0.04350   0.04585   0.05420   0.06646
 Alpha virt. eigenvalues --    0.07093   0.07533   0.08317   0.09315   0.10418
 Alpha virt. eigenvalues --    0.13926   0.14393   0.14982   0.15190   0.16562

 Mulliken charges:
               1
     1  C   -0.220261
     2  N   -0.306553
     3  C   -0.153906
     4  C   -0.491423
     5  H    0.206636
     6  H    0.162530
     7  H    0.133579
     8  H    0.168564
     9  H    0.160142
    10  H    0.159096
    11  H    0.181596
 Sum of Mulliken charges =  -0.00000

 Dipole moment (field-independent basis, Debye):
    X=             -0.2592    Y=              0.9422    Z=              1.3802  Tot=              1.6911
 Quadrupole moment (field-independent basis, Debye-Ang):
   XX=            -23.0865   YY=            -26.8414   ZZ=            -27.2805
   XY=              0.2783   XZ=             -1.9584   YZ=             -0.5283

 Normal termination of Gaussian 09 at Tue Aug 23 04:36:25 2022.
