 Gaussian 09, Revision E.01,
 Gaussian 09:  ES64L-G09RevE.01 30-Nov-2015

 -----
 #P G4
 -----

 ---------
 Frag_1011
 ---------
 Symbolic Z-matrix:
 Charge =  0 Multiplicity = 1

 SCF Done:  E(RB3LYP) =  -362.971761899     A.U. after   16 cycles
 SCF Done:  E(RB3LYP) =  -362.987157083     A.U. after   13 cycles
 SCF Done:  E(RB3LYP) =  -362.991725071     A.U. after   13 cycles
 SCF Done:  E(RB3LYP) =  -362.995598977     A.U. after   13 cycles
 SCF Done:  E(RB3LYP) =  -362.998263285     A.U. after   14 cycles
 SCF Done:  E(RB3LYP) =  -362.999371973     A.U. after   12 cycles
 SCF Done:  E(RB3LYP) =  -362.999526836     A.U. after   11 cycles
 SCF Done:  E(RB3LYP) =  -362.999561328     A.U. after   11 cycles
 SCF Done:  E(RB3LYP) =  -362.999579521     A.U. after    9 cycles
 SCF Done:  E(RB3LYP) =  -362.999584331     A.U. after    8 cycles
 SCF Done:  E(RB3LYP) =  -362.999589948     A.U. after   10 cycles
 SCF Done:  E(RB3LYP) =  -362.999593219     A.U. after   10 cycles
 SCF Done:  E(RB3LYP) =  -362.999594639     A.U. after    9 cycles
 Optimization completed.
    -- Stationary point found.
 Normal termination of Gaussian 09 at Fri Aug 26 06:58:43 2022.

 ----------------------------------------------------------
 #P Geom=AllCheck Guess=TCheck SCRF=Check B3LYP/GTBas3 Freq
 ----------------------------------------------------------

 Structure from the checkpoint file:  "G4.Frag_1011.chk"
 ---------
 Frag_1011
 ---------
 Charge =  0 Multiplicity = 1

 SCF Done:  E(RB3LYP) =  -362.999594639     A.U. after    1 cycles

  Exact polarizability:  64.410   3.361  67.523   0.410   1.772  47.764
 Approx polarizability:  88.148   4.236 124.085   1.774   8.829  67.341

                      1                      2                      3
                      A                      A                      A
 Frequencies --     38.7006               220.3695               254.5721
 Red. masses --      4.6918                 1.0921                 1.6207
 Frc consts  --      0.0041                 0.0312                 0.0619
 IR Inten    --      2.4898                 0.1404                 0.3934

                      4                      5                      6
                      A                      A                      A
 Frequencies --    258.5075               311.2897               356.8603
 Red. masses --      1.3594                 2.5786                 2.5503
 Frc consts  --      0.0535                 0.1472                 0.1914
 IR Inten    --      0.3094                 1.8569                 3.0820

                      7                      8                      9
                      A                      A                      A
 Frequencies --    419.1196               425.1235               506.1650
 Red. masses --      3.2731                 4.2234                 2.8668
 Frc consts  --      0.3388                 0.4497                 0.4327
 IR Inten    --     11.3326                22.8399                11.5475

                     10                     11                     12
                      A                      A                      A
 Frequencies --    562.3535               611.9305               632.1715
 Red. masses --      2.9281                 1.1568                 1.8215
 Frc consts  --      0.5456                 0.2552                 0.4289
 IR Inten    --     11.3650                95.4469                 1.4707

                     13                     14                     15
                      A                      A                      A
 Frequencies --    689.8879               722.0030               824.4461
 Red. masses --      3.0812                 1.5462                 1.5652
 Frc consts  --      0.8640                 0.4749                 0.6268
 IR Inten    --      5.9387                10.6887                37.9237

                     16                     17                     18
                      A                      A                      A
 Frequencies --    837.7239               931.3308              1005.4034
 Red. masses --      3.2119                 1.4776                 1.4977
 Frc consts  --      1.3280                 0.7551                 0.8920
 IR Inten    --      1.5217                 0.9128                15.7205

                     19                     20                     21
                      A                      A                      A
 Frequencies --   1019.0197              1096.5579              1136.5846
 Red. masses --      1.6119                 2.0902                 1.6810
 Frc consts  --      0.9862                 1.4808                 1.2794
 IR Inten    --     13.2575                39.8261                25.4227

                     22                     23                     24
                      A                      A                      A
 Frequencies --   1214.7650              1270.8271              1324.1959
 Red. masses --      3.0338                 3.3444                 2.6273
 Frc consts  --      2.6377                 3.1823                 2.7143
 IR Inten    --     47.0817               160.4695                16.8762

                     25                     26                     27
                      A                      A                      A
 Frequencies --   1391.9001              1405.7591              1434.1400
 Red. masses --      1.2459                 1.2907                 1.3611
 Frc consts  --      1.4222                 1.5028                 1.6494
 IR Inten    --     21.7540                71.5759                69.7190

                     28                     29                     30
                      A                      A                      A
 Frequencies --   1462.1243              1475.7852              1484.5640
 Red. masses --      1.2380                 1.0549                 1.0954
 Frc consts  --      1.5593                 1.3537                 1.4223
 IR Inten    --     23.7750                 0.4805                18.5728

                     31                     32                     33
                      A                      A                      A
 Frequencies --   1499.0211              1507.0400              1661.7953
 Red. masses --      1.0550                 1.1392                 6.5779
 Frc consts  --      1.3968                 1.5244                10.7027
 IR Inten    --      0.8880                23.9615                77.3615

                     34                     35                     36
                      A                      A                      A
 Frequencies --   3046.5519              3055.9605              3124.3578
 Red. masses --      1.0340                 1.0349                 1.1022
 Frc consts  --      5.6543                 5.6945                 6.3390
 IR Inten    --      9.0626                 7.4362                 1.7899

                     37                     38                     39
                      A                      A                      A
 Frequencies --   3130.7675              3134.9394              3140.5063
 Red. masses --      1.1016                 1.1028                 1.1033
 Frc consts  --      6.3616                 6.3856                 6.4115
 IR Inten    --     21.8141                11.2097                14.1120

                     40                     41                     42
                      A                      A                      A
 Frequencies --   3197.3212              3325.2087              3501.6162
 Red. masses --      1.0527                 1.1227                 1.0623
 Frc consts  --      6.3406                 7.3141                 7.6744
 IR Inten    --      1.0620                 0.0593               165.0778

 - Thermochemistry -
 -------------------
 Temperature   298.150 Kelvin.  Pressure   1.00000 Atm.
 Atom     1 has atomic number  6 and mass  12.00000

 Molecular mass:   103.06333 amu.
 Principal axes and moments of inertia in atomic units:
                           1         2         3
     Eigenvalues --   522.32493 723.71314 856.24984
           X            0.99985   0.00348  -0.01687
           Y           -0.00462   0.99766  -0.06827
           Z            0.01659   0.06833   0.99752
 This molecule is an asymmetric top.
 Rotational symmetry number  1.
 Warning -- assumption of classical behavior for rotation
           may cause significant error
 Rotational temperatures (Kelvin)      0.16582     0.11968     0.10115
 Rotational constants (GHZ):           3.45521     2.49372     2.10773
 Zero-point vibrational energy     350800.5 (Joules/Mol)
                                   83.84334 (Kcal/Mol)
 Warning -- explicit consideration of  11 degrees of freedom as
           vibrations may cause significant error
 Vibrational temperatures:     55.68   317.06   366.27   371.93   447.88
          (Kelvin)            513.44   603.02   611.66   728.26   809.10
                              880.43   909.55   992.59  1038.80  1186.19
                             1205.30  1339.98  1446.55  1466.14  1577.70
                             1635.29  1747.77  1828.43  1905.22  2002.63
                             2022.57  2063.40  2103.67  2123.32  2135.95
                             2156.75  2168.29  2390.95  4383.30  4396.84
                             4495.25  4504.47  4510.47  4518.48  4600.23
                             4784.23  5038.04

 Zero-point correction=                           0.133613 (Hartree/Particle)
 Thermal correction to Energy=                    0.141438
 Thermal correction to Enthalpy=                  0.142382
 Thermal correction to Gibbs Free Energy=         0.101720
 Sum of electronic and zero-point Energies=           -362.865982
 Sum of electronic and thermal Energies=              -362.858157
 Sum of electronic and thermal Enthalpies=            -362.857213
 Sum of electronic and thermal Free Energies=         -362.897875

                     E (Thermal)             CV                S
                      KCal/Mol        Cal/Mol-Kelvin    Cal/Mol-Kelvin
 Total                   88.754             29.431             85.581
 Electronic               0.000              0.000              0.000
 Translational            0.889              2.981             39.808
 Rotational               0.889              2.981             27.273
 Vibrational             86.976             23.470             18.501
 Vibration     1          0.594              1.981              5.325
 Vibration     2          0.647              1.810              1.956
 Vibration     3          0.665              1.755              1.699
 Vibration     4          0.667              1.748              1.672
 Vibration     5          0.700              1.652              1.355
 Vibration     6          0.732              1.561              1.136
 Vibration     7          0.782              1.429              0.895
 Vibration     8          0.787              1.416              0.875
 Vibration     9          0.861              1.236              0.643
 Vibration    10          0.918              1.113              0.519
 Vibration    11          0.971              1.007              0.430

 Optimization completed.
    -- Stationary point found.
 Normal termination of Gaussian 09 at Fri Aug 26 06:59:31 2022.

 -----------------------------------------------------------------
 #P Geom=AllCheck Guess=TCheck SCRF=Check CCSD(T,E4T,FrzG4)/GTBas1
 -----------------------------------------------------------------

 Structure from the checkpoint file:  "G4.Frag_1011.chk"
 ---------
 Frag_1011
 ---------
 Charge =  0 Multiplicity = 1

 SCF Done:  E(RHF) =  -360.780038331     A.U. after   14 cycles
 E2 =    -0.1063132887D+01 EUMP2 =    -0.36184317121737D+03
 CCSD(T)
 CCSD(T)= -0.36192894785D+03
 4SDTQ=-361.9332882\MP4SDQ=-361.8924111\CCSD=-361.8904478\CCSD(T)=-361.
 Normal termination of Gaussian 09 at Fri Aug 26 07:04:22 2022.

 ---------------------------------------------------------
 #P Geom=AllCheck Guess=TCheck SCRF=Check MP4=FrzG4/GTBas2
 ---------------------------------------------------------

 Structure from the checkpoint file:  "G4.Frag_1011.chk"
 ---------
 Frag_1011
 ---------
 Charge =  0 Multiplicity = 1

 SCF Done:  E(RHF) =  -360.791905133     A.U. after   13 cycles
 E2 =    -0.1078957618D+01 EUMP2 =    -0.36187086275103D+03
 Normal termination of Gaussian 09 at Fri Aug 26 07:05:40 2022.

 ---------------------------------------------------------
 #P Geom=AllCheck Guess=TCheck SCRF=Check MP4=FrzG4/GTBas3
 ---------------------------------------------------------

 Structure from the checkpoint file:  "G4.Frag_1011.chk"
 ---------
 Frag_1011
 ---------
 Charge =  0 Multiplicity = 1

 SCF Done:  E(RHF) =  -360.825206847     A.U. after   12 cycles
 E2 =    -0.1303518665D+01 EUMP2 =    -0.36212872551209D+03
 Normal termination of Gaussian 09 at Fri Aug 26 07:15:57 2022.

 -----------------------------------------------------------
 #P Geom=AllCheck Guess=TCheck SCRF=Check MP2=Full/GTLargeXP
 -----------------------------------------------------------

 Structure from the checkpoint file:  "G4.Frag_1011.chk"
 ---------
 Frag_1011
 ---------
 Charge =  0 Multiplicity = 1

 SCF Done:  E(RHF) =  -360.919441095     A.U. after   13 cycles
 E2 =    -0.1698600572D+01 EUMP2 =    -0.36261804166666D+03
 Normal termination of Gaussian 09 at Fri Aug 26 07:20:04 2022.
 SCF Done:  E(RHF) =  -360.948335096     A.U. after   10 cycles
 Normal termination of Gaussian 09 at Fri Aug 26 07:24:02 2022.

                         Standard orientation:
 ---------------------------------------------------------------------
 Center     Atomic      Atomic             Coordinates (Angstroms)
 Number     Number       Type             X           Y           Z
 ---------------------------------------------------------------------
      1          6           0       -1.573586   -1.182632   -0.131714
      2          7           0       -0.955007   -0.056476    0.029180
      3          8           0       -1.523040    1.073913    0.140912
      4          6           0        0.602479    0.042530    0.029905
      5          6           0        1.250148   -1.170461    0.686525
      6          6           0        1.007965    0.231263   -1.437367
      7          8           0        0.885860    1.165941    0.787409
      8          1           0       -1.004971   -2.093436   -0.217579
      9          1           0       -2.652883   -1.163641   -0.178696
     10          1           0        1.161343   -2.075520    0.081319
     11          1           0        2.314249   -0.951480    0.806609
     12          1           0        0.823766   -1.345583    1.676566
     13          1           0        2.080932    0.434281   -1.480744
     14          1           0        0.787264   -0.655109   -2.038944
     15          1           0        0.473645    1.088501   -1.854401
     16          1           0        0.077101    1.714288    0.690948
 ---------------------------------------------------------------------

 SCF Done:  E(RHF) =  -360.954461993     A.U. after    8 cycles

 The electronic state is 1-A.
 Alpha  occ. eigenvalues --  -20.55423 -20.52579 -15.72525 -11.35050 -11.29209
 Alpha  occ. eigenvalues --  -11.23862 -11.23184  -1.46612  -1.37272  -1.16411
 Alpha  occ. eigenvalues --   -1.05450  -0.96575  -0.89474  -0.77821  -0.76190
 Alpha  occ. eigenvalues --   -0.68354  -0.66217  -0.63124  -0.61880  -0.60856
 Alpha  occ. eigenvalues --   -0.57295  -0.55669  -0.54762  -0.53413  -0.51967
 Alpha  occ. eigenvalues --   -0.45932  -0.42742  -0.35875
 Alpha virt. eigenvalues --    0.02647   0.03754   0.03922   0.05300   0.06020
 Alpha virt. eigenvalues --    0.06618   0.06814   0.07302   0.07476   0.09305
 Alpha virt. eigenvalues --    0.09739   0.10276   0.10752   0.11720   0.12882

 Mulliken charges:
               1
     1  C   -0.357909
     2  N    0.242800
     3  O   -0.625764
     4  C    0.468285
     5  C   -0.565749
     6  C   -0.591031
     7  O   -0.610631
     8  H    0.229154
     9  H    0.243725
    10  H    0.173652
    11  H    0.210400
    12  H    0.190253
    13  H    0.188231
    14  H    0.176448
    15  H    0.208154
    16  H    0.419981
 Sum of Mulliken charges =  -0.00000

 Dipole moment (field-independent basis, Debye):
    X=              0.8798    Y=             -4.1181    Z=             -1.4034  Tot=              4.4387
 Quadrupole moment (field-independent basis, Debye-Ang):
   XX=            -44.8314   YY=            -42.1114   ZZ=            -44.2081
   XY=              3.5486   XZ=             -0.8764   YZ=             -1.0761

 Normal termination of Gaussian 09 at Fri Aug 26 07:36:16 2022.
