 Gaussian 09, Revision E.01,
 Gaussian 09:  ES64L-G09RevE.01 30-Nov-2015

 -----
 #P G4
 -----

 --------
 Frag_487
 --------
 Symbolic Z-matrix:
 Charge =  0 Multiplicity = 1

 SCF Done:  E(RB3LYP) =  -288.982729106     A.U. after   12 cycles
 SCF Done:  E(RB3LYP) =  -288.987138713     A.U. after   11 cycles
 SCF Done:  E(RB3LYP) =  -288.987760606     A.U. after   11 cycles
 SCF Done:  E(RB3LYP) =  -288.987874402     A.U. after   11 cycles
 SCF Done:  E(RB3LYP) =  -288.987892192     A.U. after   10 cycles
 SCF Done:  E(RB3LYP) =  -288.987908594     A.U. after    9 cycles
 SCF Done:  E(RB3LYP) =  -288.987909354     A.U. after    7 cycles
 Optimization completed.
    -- Stationary point found.
 Normal termination of Gaussian 09 at Fri Aug 26 08:36:56 2022.

 ----------------------------------------------------------
 #P Geom=AllCheck Guess=TCheck SCRF=Check B3LYP/GTBas3 Freq
 ----------------------------------------------------------

 Structure from the checkpoint file:  "G4.Frag_487.chk"
 --------
 Frag_487
 --------
 Charge =  0 Multiplicity = 1

 SCF Done:  E(RB3LYP) =  -288.987909354     A.U. after    1 cycles

  Exact polarizability:  62.958  -0.354  60.264  -1.124  -1.291  50.984
 Approx polarizability:  80.047   2.698  82.322  -1.129  -1.658  79.500

                      1                      2                      3
                      A                      A                      A
 Frequencies --     97.0703               201.6656               225.9448
 Red. masses --      2.7961                 1.1045                 1.0783
 Frc consts  --      0.0155                 0.0265                 0.0324
 IR Inten    --      1.9704                 0.0527                 0.6562

                      4                      5                      6
                      A                      A                      A
 Frequencies --    246.2441               317.0185               351.1869
 Red. masses --      1.4504                 1.8686                 2.2794
 Frc consts  --      0.0518                 0.1106                 0.1656
 IR Inten    --      0.8696                 0.6537                10.2310

                      7                      8                      9
                      A                      A                      A
 Frequencies --    388.5052               427.3309               446.6652
 Red. masses --      1.9348                 1.2016                 2.4838
 Frc consts  --      0.1721                 0.1293                 0.2920
 IR Inten    --      0.8015                47.0663                13.1658

                     10                     11                     12
                      A                      A                      A
 Frequencies --    498.5437               533.1772               758.9827
 Red. masses --      3.2584                 2.4352                 2.9284
 Frc consts  --      0.4772                 0.4079                 0.9939
 IR Inten    --     22.8229                15.6126                13.9507

                     13                     14                     15
                      A                      A                      A
 Frequencies --    891.9300               934.0475               960.4833
 Red. masses --      2.8170                 1.1862                 1.4703
 Frc consts  --      1.3204                 0.6098                 0.7991
 IR Inten    --      9.1145                 1.3128                 1.0463

                     16                     17                     18
                      A                      A                      A
 Frequencies --    967.5322              1087.2918              1112.6896
 Red. masses --      2.3779                 3.0822                 1.4604
 Frc consts  --      1.3115                 2.1469                 1.0653
 IR Inten    --      4.3502                 6.6424                 2.8303

                     19                     20                     21
                      A                      A                      A
 Frequencies --   1151.1786              1185.7410              1203.4227
 Red. masses --      1.5009                 2.0931                 1.9482
 Frc consts  --      1.1719                 1.7339                 1.6623
 IR Inten    --     14.2228                 0.5763                 5.7530

                     22                     23                     24
                      A                      A                      A
 Frequencies --   1248.4525              1348.9790              1360.8667
 Red. masses --      2.6526                 1.2768                 1.4056
 Frc consts  --      2.4360                 1.3690                 1.5337
 IR Inten    --     10.3976                 8.8654                11.5244

                     25                     26                     27
                      A                      A                      A
 Frequencies --   1396.8995              1412.4774              1423.9499
 Red. masses --      1.3068                 1.2235                 1.2157
 Frc consts  --      1.5024                 1.4382                 1.4523
 IR Inten    --      8.1825                 4.5105                43.5346

                     28                     29                     30
                      A                      A                      A
 Frequencies --   1447.7926              1480.6943              1486.4045
 Red. masses --      1.1843                 1.0567                 1.0508
 Frc consts  --      1.4626                 1.3650                 1.3678
 IR Inten    --     16.7575                 0.9809                14.1354

                     31                     32                     33
                      A                      A                      A
 Frequencies --   1492.2807              1498.3815              1505.2987
 Red. masses --      1.0582                 1.0503                 1.0607
 Frc consts  --      1.3884                 1.3893                 1.4161
 IR Inten    --      2.7522                12.4004                 5.9913

                     34                     35                     36
                      A                      A                      A
 Frequencies --   1520.5684              2864.8475              2913.1939
 Red. masses --      1.0568                 1.0799                 1.0613
 Frc consts  --      1.4396                 5.2219                 5.3067
 IR Inten    --      5.8437                59.2620                82.8378

                     37                     38                     39
                      A                      A                      A
 Frequencies --   3042.3459              3047.0313              3096.5352
 Red. masses --      1.0361                 1.0370                 1.0694
 Frc consts  --      5.6501                 5.6725                 6.0413
 IR Inten    --     15.4838                19.5091                20.5623

                     40                     41                     42
                      A                      A                      A
 Frequencies --   3109.8844              3116.9194              3121.7579
 Red. masses --      1.1019                 1.1010                 1.1007
 Frc consts  --      6.2788                 6.3019                 6.3198
 IR Inten    --      4.5204                41.0009                29.1885

                     43                     44                     45
                      A                      A                      A
 Frequencies --   3143.7071              3146.5192              3575.7196
 Red. masses --      1.1034                 1.0989                 1.0669
 Frc consts  --      6.4250                 6.4102                 8.0369
 IR Inten    --     11.3845                15.2589                 4.9450

 - Thermochemistry -
 -------------------
 Temperature   298.150 Kelvin.  Pressure   1.00000 Atm.
 Atom     1 has atomic number  6 and mass  12.00000

 Molecular mass:    89.08406 amu.
 Principal axes and moments of inertia in atomic units:
                           1         2         3
     Eigenvalues --   394.46451 570.03033 887.42446
           X            0.99626  -0.08536  -0.01359
           Y            0.08526   0.99633  -0.00747
           Z            0.01418   0.00628   0.99988
 This molecule is an asymmetric top.
 Rotational symmetry number  1.
 Rotational temperatures (Kelvin)      0.21957     0.15195     0.09760
 Rotational constants (GHZ):           4.57517     3.16604     2.03368
 Zero-point vibrational energy     399481.9 (Joules/Mol)
                                   95.47847 (Kcal/Mol)
 Warning -- explicit consideration of  11 degrees of freedom as
           vibrations may cause significant error
 Vibrational temperatures:    139.66   290.15   325.08   354.29   456.12
          (Kelvin)            505.28   558.97   614.83   642.65   717.29
                              767.12  1092.01  1283.29  1343.88  1381.92
                             1392.06  1564.37  1600.91  1656.29  1706.01
                             1731.45  1796.24  1940.88  1957.98  2009.82
                             2032.24  2048.74  2083.05  2130.39  2138.60
                             2147.06  2155.83  2165.79  2187.76  4121.87
                             4191.43  4377.25  4383.99  4455.22  4474.42
                             4484.55  4491.51  4523.09  4527.13  5144.66

 Zero-point correction=                           0.152155 (Hartree/Particle)
 Thermal correction to Energy=                    0.159827
 Thermal correction to Enthalpy=                  0.160771
 Thermal correction to Gibbs Free Energy=         0.121301
 Sum of electronic and zero-point Energies=           -288.835755
 Sum of electronic and thermal Energies=              -288.828082
 Sum of electronic and thermal Enthalpies=            -288.827138
 Sum of electronic and thermal Free Energies=         -288.866608

                     E (Thermal)             CV                S
                      KCal/Mol        Cal/Mol-Kelvin    Cal/Mol-Kelvin
 Total                  100.293             28.252             83.072
 Electronic               0.000              0.000              0.000
 Translational            0.889              2.981             39.374
 Rotational               0.889              2.981             26.792
 Vibrational             98.516             22.290             16.907
 Vibration     1          0.603              1.951              3.512
 Vibration     2          0.639              1.838              2.118
 Vibration     3          0.650              1.802              1.911
 Vibration     4          0.661              1.769              1.757
 Vibration     5          0.704              1.641              1.325
 Vibration     6          0.728              1.573              1.161
 Vibration     7          0.757              1.495              1.006
 Vibration     8          0.789              1.411              0.867
 Vibration     9          0.806              1.368              0.806
 Vibration    10          0.854              1.253              0.662
 Vibration    11          0.888              1.177              0.580

 Optimization completed.
    -- Stationary point found.
 Normal termination of Gaussian 09 at Fri Aug 26 08:37:36 2022.

 -----------------------------------------------------------------
 #P Geom=AllCheck Guess=TCheck SCRF=Check CCSD(T,E4T,FrzG4)/GTBas1
 -----------------------------------------------------------------

 Structure from the checkpoint file:  "G4.Frag_487.chk"
 --------
 Frag_487
 --------
 Charge =  0 Multiplicity = 1

 SCF Done:  E(RHF) =  -287.108338042     A.U. after   12 cycles
 E2 =    -0.8762452333D+00 EUMP2 =    -0.28798458327513D+03
 CCSD(T)
 CCSD(T)= -0.28807448345D+03
 -288.046295\CCSD=-288.0473202\CCSD(T)=-288.0744835\RMSD=7.980e-09\PG=C
 Normal termination of Gaussian 09 at Fri Aug 26 08:40:19 2022.

 ---------------------------------------------------------
 #P Geom=AllCheck Guess=TCheck SCRF=Check MP4=FrzG4/GTBas2
 ---------------------------------------------------------

 Structure from the checkpoint file:  "G4.Frag_487.chk"
 --------
 Frag_487
 --------
 Charge =  0 Multiplicity = 1

 SCF Done:  E(RHF) =  -287.115128447     A.U. after   12 cycles
 E2 =    -0.8890086275D+00 EUMP2 =    -0.28800413707405D+03
 Normal termination of Gaussian 09 at Fri Aug 26 08:41:08 2022.

 ---------------------------------------------------------
 #P Geom=AllCheck Guess=TCheck SCRF=Check MP4=FrzG4/GTBas3
 ---------------------------------------------------------

 Structure from the checkpoint file:  "G4.Frag_487.chk"
 --------
 Frag_487
 --------
 Charge =  0 Multiplicity = 1

 SCF Done:  E(RHF) =  -287.147278394     A.U. after   11 cycles
 E2 =    -0.1091272265D+01 EUMP2 =    -0.28823855065882D+03
 Normal termination of Gaussian 09 at Fri Aug 26 08:46:07 2022.

 -----------------------------------------------------------
 #P Geom=AllCheck Guess=TCheck SCRF=Check MP2=Full/GTLargeXP
 -----------------------------------------------------------

 Structure from the checkpoint file:  "G4.Frag_487.chk"
 --------
 Frag_487
 --------
 Charge =  0 Multiplicity = 1

 SCF Done:  E(RHF) =  -287.217244236     A.U. after   11 cycles
 E2 =    -0.1426378829D+01 EUMP2 =    -0.28864362306498D+03
 Normal termination of Gaussian 09 at Fri Aug 26 08:48:31 2022.
 SCF Done:  E(RHF) =  -287.240287504     A.U. after    8 cycles
 Normal termination of Gaussian 09 at Fri Aug 26 08:51:00 2022.

                         Standard orientation:
 ---------------------------------------------------------------------
 Center     Atomic      Atomic             Coordinates (Angstroms)
 Number     Number       Type             X           Y           Z
 ---------------------------------------------------------------------
      1          6           0        1.333883    1.357528   -0.010932
      2          6           0        0.645396    0.026481    0.311504
      3          6           0        1.523863   -1.152427   -0.115167
      4          7           0       -0.658218   -0.059693   -0.363973
      5          6           0       -1.586841    1.006258   -0.022778
      6          8           0       -1.280822   -1.288881   -0.001524
      7          1           0        2.355884    1.342793    0.377904
      8          1           0        0.825267    2.215988    0.434216
      9          1           0        1.383731    1.505579   -1.094621
     10          1           0        0.486456   -0.027449    1.410232
     11          1           0        2.471201   -1.134310    0.432216
     12          1           0        1.739636   -1.092469   -1.186723
     13          1           0        1.023598   -2.101973    0.077117
     14          1           0       -1.734510    1.110653    1.070775
     15          1           0       -1.228181    1.959069   -0.417006
     16          1           0       -2.549194    0.778300   -0.484172
     17          1           0       -1.417588   -1.254325    0.964298
 ---------------------------------------------------------------------

 SCF Done:  E(RHF) =  -287.245299653     A.U. after    8 cycles

 The electronic state is 1-A.
 Alpha  occ. eigenvalues --  -20.58009 -15.60378 -11.26250 -11.24890 -11.22014
 Alpha  occ. eigenvalues --  -11.20753  -1.40362  -1.15017  -1.03454  -0.93620
 Alpha  occ. eigenvalues --   -0.89634  -0.79112  -0.68144  -0.66731  -0.63725
 Alpha  occ. eigenvalues --   -0.60951  -0.57388  -0.55486  -0.53911  -0.53315
 Alpha  occ. eigenvalues --   -0.51101  -0.49111  -0.47656  -0.46073  -0.38347
 Alpha virt. eigenvalues --    0.03443   0.03928   0.04209   0.04888   0.06638
 Alpha virt. eigenvalues --    0.06847   0.06994   0.07694   0.08039   0.09546
 Alpha virt. eigenvalues --    0.09901   0.10732   0.10899   0.12151   0.13615

 Mulliken charges:
               1
     1  C   -0.563592
     2  C    0.041102
     3  C   -0.534061
     4  N    0.036761
     5  C   -0.481040
     6  O   -0.513058
     7  H    0.175416
     8  H    0.163340
     9  H    0.180324
    10  H    0.122081
    11  H    0.158852
    12  H    0.169418
    13  H    0.185263
    14  H    0.134929
    15  H    0.180365
    16  H    0.198141
    17  H    0.345759
 Sum of Mulliken charges =  -0.00000

 Dipole moment (field-independent basis, Debye):
    X=              0.4694    Y=              1.5656    Z=              1.9937  Tot=              2.5780
 Quadrupole moment (field-independent basis, Debye-Ang):
   XX=            -38.7075   YY=            -40.4884   ZZ=            -39.1433
   XY=             -1.8374   XZ=             -2.2311   YZ=             -2.3384

 Normal termination of Gaussian 09 at Fri Aug 26 09:00:00 2022.
