 Gaussian 09, Revision E.01,
 Gaussian 09:  ES64L-G09RevE.01 30-Nov-2015

 -----
 #P G4
 -----

 --------
 Frag_682
 --------
 Symbolic Z-matrix:
 Charge =  0 Multiplicity = 1

 SCF Done:  E(RB3LYP) =  -343.172036209     A.U. after   13 cycles
 SCF Done:  E(RB3LYP) =  -343.181915215     A.U. after   12 cycles
 SCF Done:  E(RB3LYP) =  -343.183655580     A.U. after   13 cycles
 SCF Done:  E(RB3LYP) =  -343.184582910     A.U. after   13 cycles
 SCF Done:  E(RB3LYP) =  -343.184810245     A.U. after   11 cycles
 SCF Done:  E(RB3LYP) =  -343.184887567     A.U. after   11 cycles
 SCF Done:  E(RB3LYP) =  -343.184904622     A.U. after   10 cycles
 SCF Done:  E(RB3LYP) =  -343.184912059     A.U. after    9 cycles
 SCF Done:  E(RB3LYP) =  -343.184913652     A.U. after    8 cycles
 SCF Done:  E(RB3LYP) =  -343.184913922     A.U. after    7 cycles
 SCF Done:  E(RB3LYP) =  -343.184914015     A.U. after    7 cycles
 SCF Done:  E(RB3LYP) =  -343.184914044     A.U. after    7 cycles
 SCF Done:  E(RB3LYP) =  -343.184914052     A.U. after    6 cycles
 Optimization completed.
    -- Stationary point found.
 Normal termination of Gaussian 09 at Fri Aug 26 15:07:25 2022.

 ----------------------------------------------------------
 #P Geom=AllCheck Guess=TCheck SCRF=Check B3LYP/GTBas3 Freq
 ----------------------------------------------------------

 Structure from the checkpoint file:  "G4.Frag_682.chk"
 --------
 Frag_682
 --------
 Charge =  0 Multiplicity = 1

 SCF Done:  E(RB3LYP) =  -343.184914052     A.U. after    1 cycles

  Exact polarizability:  64.192   0.786  66.974  -0.375   0.817  51.030
 Approx polarizability:  85.639  -3.273 104.253   1.281  -1.122  74.447

                      1                      2                      3
                      A                      A                      A
 Frequencies --     75.6391               188.5217               228.4666
 Red. masses --      3.4785                 1.0416                 1.3280
 Frc consts  --      0.0117                 0.0218                 0.0408
 IR Inten    --      0.9733                 3.0568                 7.3614

                      4                      5                      6
                      A                      A                      A
 Frequencies --    233.1837               263.3933               291.4107
 Red. masses --      1.8344                 1.5027                 1.8820
 Frc consts  --      0.0588                 0.0614                 0.0942
 IR Inten    --      0.3298                29.1186                 7.6191

                      7                      8                      9
                      A                      A                      A
 Frequencies --    333.7993               374.9564               386.3963
 Red. masses --      1.1441                 2.3673                 3.5635
 Frc consts  --      0.0751                 0.1961                 0.3135
 IR Inten    --    104.9604                 1.5777                 6.3863

                     10                     11                     12
                      A                      A                      A
 Frequencies --    440.5556               497.5069               549.4126
 Red. masses --      2.8514                 2.9511                 3.0896
 Frc consts  --      0.3261                 0.4304                 0.5495
 IR Inten    --     25.2789                10.6526                34.2378

                     13                     14                     15
                      A                      A                      A
 Frequencies --    598.8538               692.4660               859.6693
 Red. masses --      2.5125                 3.2619                 2.3938
 Frc consts  --      0.5309                 0.9215                 1.0423
 IR Inten    --     10.9459                 3.5047                41.0253

                     16                     17                     18
                      A                      A                      A
 Frequencies --    900.5622               941.3027               970.4865
 Red. masses --      1.6637                 1.9489                 1.8317
 Frc consts  --      0.7950                 1.0174                 1.0164
 IR Inten    --     57.8379                57.9232                12.8469

                     19                     20                     21
                      A                      A                      A
 Frequencies --    999.7742              1033.9623              1092.2084
 Red. masses --      1.5037                 1.6270                 1.4251
 Frc consts  --      0.8855                 1.0248                 1.0016
 IR Inten    --     12.8537                 5.8002                15.1397

                     22                     23                     24
                      A                      A                      A
 Frequencies --   1099.0139              1131.6917              1170.5195
 Red. masses --      1.5789                 1.7709                 1.9765
 Frc consts  --      1.1236                 1.3363                 1.5955
 IR Inten    --     14.5507               115.3029                43.2241

                     25                     26                     27
                      A                      A                      A
 Frequencies --   1327.5132              1356.8095              1369.0418
 Red. masses --      1.5884                 1.7749                 1.4798
 Frc consts  --      1.6492                 1.9251                 1.6341
 IR Inten    --     58.5292                90.5506                12.4258

                     28                     29                     30
                      A                      A                      A
 Frequencies --   1399.2698              1412.2814              1479.6066
 Red. masses --      1.2763                 1.7548                 1.0525
 Frc consts  --      1.4723                 2.0622                 1.3576
 IR Inten    --     11.3778                42.8567                 7.1254

                     31                     32                     33
                      A                      A                      A
 Frequencies --   1480.6500              1489.4734              1493.5271
 Red. masses --      1.0548                 1.0497                 1.0804
 Frc consts  --      1.3625                 1.3721                 1.4199
 IR Inten    --      2.5115                 5.6345                 3.2527

                     34                     35                     36
                      A                      A                      A
 Frequencies --   1660.1191              1731.8315              3027.9060
 Red. masses --      1.1197                 7.7701                 1.0422
 Frc consts  --      1.8182                13.7305                 5.6299
 IR Inten    --     34.0097                41.1679                 9.8015

                     37                     38                     39
                      A                      A                      A
 Frequencies --   3039.2339              3088.2765              3107.0818
 Red. masses --      1.0357                 1.0939                 1.1015
 Frc consts  --      5.6366                 6.1469                 6.2655
 IR Inten    --     15.2799                13.0436                23.8152

                     40                     41                     42
                      A                      A                      A
 Frequencies --   3134.1915              3150.4571              3410.9711
 Red. masses --      1.1012                 1.0994                 1.0719
 Frc consts  --      6.3736                 6.4293                 7.3481
 IR Inten    --     11.7989                 7.6235                 4.4917

                     43                     44                     45
                      A                      A                      A
 Frequencies --   3495.4741              3575.1846              3811.2661
 Red. masses --      1.0489                 1.0925                 1.0656
 Frc consts  --      7.5509                 8.2272                 9.1199
 IR Inten    --      1.3814                 2.2627                 9.6198

 - Thermochemistry -
 -------------------
 Temperature   298.150 Kelvin.  Pressure   1.00000 Atm.
 Atom     1 has atomic number  6 and mass  12.00000

 Molecular mass:   102.07931 amu.
 Principal axes and moments of inertia in atomic units:
                           1         2         3
     Eigenvalues --   542.20347 766.40767 923.14413
           X            0.99462   0.10043  -0.02535
           Y           -0.09860   0.99297   0.06548
           Z            0.03175  -0.06263   0.99753
 This molecule is an asymmetric top.
 Rotational symmetry number  1.
 Warning -- assumption of classical behavior for rotation
           may cause significant error
 Rotational temperatures (Kelvin)      0.15974     0.11301     0.09382
 Rotational constants (GHZ):           3.32853     2.35481     1.95499
 Zero-point vibrational energy     385161.2 (Joules/Mol)
                                   92.05573 (Kcal/Mol)
 Warning -- explicit consideration of  13 degrees of freedom as
           vibrations may cause significant error
 Vibrational temperatures:    108.83   271.24   328.71   335.50   378.96
          (Kelvin)            419.27   480.26   539.48   555.94   633.86
                              715.80   790.48   861.62   996.30  1236.87
                             1295.71  1354.32  1396.31  1438.45  1487.64
                             1571.44  1581.23  1628.25  1684.11  1909.99
                             1952.14  1969.74  2013.23  2031.96  2128.82
                             2130.32  2143.02  2148.85  2388.54  2491.72
                             4356.48  4372.77  4443.34  4470.39  4509.40
                             4532.80  4907.62  5029.20  5143.89  5483.56

 Zero-point correction=                           0.146700 (Hartree/Particle)
 Thermal correction to Energy=                    0.155254
 Thermal correction to Enthalpy=                  0.156198
 Thermal correction to Gibbs Free Energy=         0.114613
 Sum of electronic and zero-point Energies=           -343.038214
 Sum of electronic and thermal Energies=              -343.029660
 Sum of electronic and thermal Enthalpies=            -343.028716
 Sum of electronic and thermal Free Energies=         -343.070301

                     E (Thermal)             CV                S
                      KCal/Mol        Cal/Mol-Kelvin    Cal/Mol-Kelvin
 Total                   97.423             31.739             87.523
 Electronic               0.000              0.000              0.000
 Translational            0.889              2.981             39.779
 Rotational               0.889              2.981             27.442
 Vibrational             95.646             25.778             20.302
 Vibration     1          0.599              1.965              4.001
 Vibration     2          0.633              1.856              2.242
 Vibration     3          0.651              1.798              1.891
 Vibration     4          0.654              1.790              1.854
 Vibration     5          0.670              1.740              1.639
 Vibration     6          0.687              1.690              1.466
 Vibration     7          0.715              1.608              1.242
 Vibration     8          0.746              1.523              1.059
 Vibration     9          0.755              1.499              1.014
 Vibration    10          0.800              1.382              0.825
 Vibration    11          0.853              1.256              0.664
 Vibration    12          0.905              1.141              0.545
 Vibration    13          0.957              1.034              0.452

 Optimization completed.
    -- Stationary point found.
 Normal termination of Gaussian 09 at Fri Aug 26 15:08:16 2022.

 -----------------------------------------------------------------
 #P Geom=AllCheck Guess=TCheck SCRF=Check CCSD(T,E4T,FrzG4)/GTBas1
 -----------------------------------------------------------------

 Structure from the checkpoint file:  "G4.Frag_682.chk"
 --------
 Frag_682
 --------
 Charge =  0 Multiplicity = 1

 SCF Done:  E(RHF) =  -341.028923539     A.U. after   13 cycles
 E2 =    -0.1027955788D+01 EUMP2 =    -0.34205687932719D+03
 CCSD(T)
 CCSD(T)= -0.34214943819D+03
 371\CCSD=-342.1160537\CCSD(T)=-342.1494382\RMSD=4.815e-09\PG=C01 [X(C4
 Normal termination of Gaussian 09 at Fri Aug 26 15:12:48 2022.

 ---------------------------------------------------------
 #P Geom=AllCheck Guess=TCheck SCRF=Check MP4=FrzG4/GTBas2
 ---------------------------------------------------------

 Structure from the checkpoint file:  "G4.Frag_682.chk"
 --------
 Frag_682
 --------
 Charge =  0 Multiplicity = 1

 SCF Done:  E(RHF) =  -341.040257997     A.U. after   13 cycles
 E2 =    -0.1044537757D+01 EUMP2 =    -0.34208479575332D+03
 Normal termination of Gaussian 09 at Fri Aug 26 15:14:13 2022.

 ---------------------------------------------------------
 #P Geom=AllCheck Guess=TCheck SCRF=Check MP4=FrzG4/GTBas3
 ---------------------------------------------------------

 Structure from the checkpoint file:  "G4.Frag_682.chk"
 --------
 Frag_682
 --------
 Charge =  0 Multiplicity = 1

 SCF Done:  E(RHF) =  -341.076381494     A.U. after   12 cycles
 E2 =    -0.1261384471D+01 EUMP2 =    -0.34233776596483D+03
 Normal termination of Gaussian 09 at Fri Aug 26 15:25:35 2022.

 -----------------------------------------------------------
 #P Geom=AllCheck Guess=TCheck SCRF=Check MP2=Full/GTLargeXP
 -----------------------------------------------------------

 Structure from the checkpoint file:  "G4.Frag_682.chk"
 --------
 Frag_682
 --------
 Charge =  0 Multiplicity = 1

 SCF Done:  E(RHF) =  -341.163528086     A.U. after   12 cycles
 E2 =    -0.1651513552D+01 EUMP2 =    -0.34281504163801D+03
 Normal termination of Gaussian 09 at Fri Aug 26 15:29:27 2022.
 SCF Done:  E(RHF) =  -341.190117763     A.U. after    9 cycles
 Normal termination of Gaussian 09 at Fri Aug 26 15:33:17 2022.

                         Standard orientation:
 ---------------------------------------------------------------------
 Center     Atomic      Atomic             Coordinates (Angstroms)
 Number     Number       Type             X           Y           Z
 ---------------------------------------------------------------------
      1          6           0        1.883700    0.867648   -0.048296
      2          6           0        0.920049   -0.291196    0.024351
      3          7           0        1.368520   -1.473353    0.145862
      4          6           0       -0.589329    0.048795   -0.040525
      5          6           0       -1.104346    0.426365    1.356313
      6          7           0       -1.307686   -1.106961   -0.516740
      7          8           0       -0.812717    1.133604   -0.958440
      8          1           0        2.899330    0.503286    0.108026
      9          1           0        1.822241    1.356273   -1.026140
     10          1           0        1.662074    1.629320    0.709937
     11          1           0        0.578580   -2.126969    0.166256
     12          1           0       -0.991421   -0.412360    2.046644
     13          1           0       -0.552892    1.280732    1.760862
     14          1           0       -2.161758    0.703878    1.295859
     15          1           0       -2.305698   -0.922002   -0.489392
     16          1           0       -1.063280   -1.275051   -1.488964
     17          1           0       -0.471731    1.946590   -0.570485
 ---------------------------------------------------------------------

 SCF Done:  E(RHF) =  -341.195824228     A.U. after    8 cycles

 The electronic state is 1-A.
 Alpha  occ. eigenvalues --  -20.56784 -15.55449 -15.53803 -11.33277 -11.28113
 Alpha  occ. eigenvalues --  -11.23451 -11.22757  -1.38314  -1.22296  -1.17621
 Alpha  occ. eigenvalues --   -1.01389  -0.98318  -0.86305  -0.74720  -0.71583
 Alpha  occ. eigenvalues --   -0.69162  -0.65641  -0.61508  -0.59364  -0.56455
 Alpha  occ. eigenvalues --   -0.55806  -0.54308  -0.53654  -0.53057  -0.48821
 Alpha  occ. eigenvalues --   -0.43806  -0.41846  -0.39941
 Alpha virt. eigenvalues --    0.02978   0.03967   0.04554   0.05175   0.06396
 Alpha virt. eigenvalues --    0.06792   0.07199   0.07273   0.07337   0.09473
 Alpha virt. eigenvalues --    0.09795   0.10331   0.10643   0.11944   0.12379

 Mulliken charges:
               1
     1  C   -0.597076
     2  C    0.317003
     3  N   -0.635171
     4  C    0.408341
     5  C   -0.565948
     6  N   -0.754895
     7  O   -0.597340
     8  H    0.216056
     9  H    0.202797
    10  H    0.170768
    11  H    0.308869
    12  H    0.196618
    13  H    0.172721
    14  H    0.178228
    15  H    0.294941
    16  H    0.314226
    17  H    0.369862
 Sum of Mulliken charges =  -0.00000

 Dipole moment (field-independent basis, Debye):
    X=             -1.7951    Y=              2.3771    Z=              0.6179  Tot=              3.0422
 Quadrupole moment (field-independent basis, Debye-Ang):
   XX=            -46.0470   YY=            -44.2359   ZZ=            -44.3117
   XY=              5.8791   XZ=             -1.3089   YZ=              3.1749

 Normal termination of Gaussian 09 at Fri Aug 26 15:45:55 2022.
