 Gaussian 09, Revision E.01,
 Gaussian 09:  ES64L-G09RevE.01 30-Nov-2015

 -----
 #P G4
 -----

 --------
 Frag_578
 --------
 Symbolic Z-matrix:
 Charge =  0 Multiplicity = 1

 SCF Done:  E(RB3LYP) =  -230.260279973     A.U. after   12 cycles
 SCF Done:  E(RB3LYP) =  -230.264080601     A.U. after   11 cycles
 SCF Done:  E(RB3LYP) =  -230.264434238     A.U. after   10 cycles
 SCF Done:  E(RB3LYP) =  -230.264809184     A.U. after   10 cycles
 SCF Done:  E(RB3LYP) =  -230.265259219     A.U. after   11 cycles
 SCF Done:  E(RB3LYP) =  -230.265457555     A.U. after    9 cycles
 SCF Done:  E(RB3LYP) =  -230.265501516     A.U. after    9 cycles
 SCF Done:  E(RB3LYP) =  -230.265508093     A.U. after    9 cycles
 SCF Done:  E(RB3LYP) =  -230.265510283     A.U. after    8 cycles
 SCF Done:  E(RB3LYP) =  -230.265510608     A.U. after    7 cycles
 SCF Done:  E(RB3LYP) =  -230.265510570     A.U. after    6 cycles
 Optimization completed.
    -- Stationary point found.
 Normal termination of Gaussian 09 at Wed Aug 24 17:24:16 2022.

 ----------------------------------------------------------
 #P Geom=AllCheck Guess=TCheck SCRF=Check B3LYP/GTBas3 Freq
 ----------------------------------------------------------

 Structure from the checkpoint file:  "G4.Frag_578.chk"
 --------
 Frag_578
 --------
 Charge =  0 Multiplicity = 1

 SCF Done:  E(RB3LYP) =  -230.265510570     A.U. after    1 cycles

  Exact polarizability:  30.796   0.000  32.116   0.094  -0.000  31.473
 Approx polarizability:  39.064   0.000  44.263  -0.302  -0.000  44.747

                      1                      2                      3
                      A                      A                      A
 Frequencies --     78.5586               100.1667               274.9356
 Red. masses --      1.5318                 1.1017                 1.5849
 Frc consts  --      0.0056                 0.0065                 0.0706
 IR Inten    --     10.7156               186.8779                28.2842

                      4                      5                      6
                      A                      A                      A
 Frequencies --    311.5693               538.8994               871.2047
 Red. masses --      2.8345                 2.1877                 3.0608
 Frc consts  --      0.1621                 0.3743                 1.3688
 IR Inten    --      8.9040                 7.0080                29.4162

                      7                      8                      9
                      A                      A                      A
 Frequencies --    885.9433              1056.7323              1088.3828
 Red. masses --      1.7699                 1.3747                 3.7287
 Frc consts  --      0.8185                 0.9044                 2.6024
 IR Inten    --     13.8471                32.4952                49.9737

                     10                     11                     12
                      A                      A                      A
 Frequencies --   1132.1690              1174.3730              1282.6726
 Red. masses --      4.5562                 1.0900                 1.0942
 Frc consts  --      3.4409                 0.8857                 1.0607
 IR Inten    --     97.6902                21.3899                 0.9737

                     13                     14                     15
                      A                      A                      A
 Frequencies --   1341.3973              1387.7547              1425.8884
 Red. masses --      1.3702                 1.2372                 1.2250
 Frc consts  --      1.4526                 1.4038                 1.4674
 IR Inten    --     15.0545                 2.7453                48.7744

                     16                     17                     18
                      A                      A                      A
 Frequencies --   1434.0125              1507.6037              1511.8430
 Red. masses --      1.3454                 1.0930                 1.0804
 Frc consts  --      1.6301                 1.4637                 1.4550
 IR Inten    --     46.5931                 1.5422                 2.3707

                     19                     20                     21
                      A                      A                      A
 Frequencies --   2956.8109              2971.9513              3024.7652
 Red. masses --      1.0675                 1.0727                 1.0881
 Frc consts  --      5.4989                 5.5821                 5.8657
 IR Inten    --     17.7167               116.9577                 0.0900

                     22                     23                     24
                      A                      A                      A
 Frequencies --   3048.2032              3814.0501              3815.1713
 Red. masses --      1.0949                 1.0662                 1.0660
 Frc consts  --      5.9939                 9.1378                 9.1418
 IR Inten    --     77.0160                25.1546                10.4843

 - Thermochemistry -
 -------------------
 Temperature   298.150 Kelvin.  Pressure   1.00000 Atm.
 Atom     1 has atomic number  8 and mass  15.99491

 Molecular mass:    62.03678 amu.
 Principal axes and moments of inertia in atomic units:
                           1         2         3
     Eigenvalues --   119.55882 329.99983 397.56807
           X            0.99995   0.00000   0.00962
           Y            0.00000   1.00000  -0.00000
           Z           -0.00962   0.00000   0.99995
 This molecule is an asymmetric top.
 Rotational symmetry number  1.
 Rotational temperatures (Kelvin)      0.72445     0.26247     0.21786
 Rotational constants (GHZ):          15.09501     5.46892     4.53945
 Zero-point vibrational energy     221518.8 (Joules/Mol)
                                   52.94427 (Kcal/Mol)
 Warning -- explicit consideration of   5 degrees of freedom as
           vibrations may cause significant error
 Vibrational temperatures:    113.03   144.12   395.57   448.28   775.36
          (Kelvin)           1253.47  1274.67  1520.40  1565.94  1628.94
                             1689.66  1845.48  1929.97  1996.67  2051.53
                             2063.22  2169.10  2175.20  4254.19  4275.97
                             4351.96  4385.68  5487.56  5489.17

 Zero-point correction=                           0.084372 (Hartree/Particle)
 Thermal correction to Energy=                    0.090036
 Thermal correction to Enthalpy=                  0.090980
 Thermal correction to Gibbs Free Energy=         0.055775
 Sum of electronic and zero-point Energies=           -230.181138
 Sum of electronic and thermal Energies=              -230.175475
 Sum of electronic and thermal Enthalpies=            -230.174531
 Sum of electronic and thermal Free Energies=         -230.209735

                     E (Thermal)             CV                S
                      KCal/Mol        Cal/Mol-Kelvin    Cal/Mol-Kelvin
 Total                   56.498             17.287             74.094
 Electronic               0.000              0.000              0.000
 Translational            0.889              2.981             38.295
 Rotational               0.889              2.981             24.265
 Vibrational             54.721             11.326             11.534
 Vibration     1          0.600              1.964              3.927
 Vibration     2          0.604              1.949              3.451
 Vibration     3          0.677              1.720              1.565
 Vibration     4          0.700              1.652              1.354
 Vibration     5          0.894              1.164              0.568

 Optimization completed.
    -- Stationary point found.
 Normal termination of Gaussian 09 at Wed Aug 24 17:24:52 2022.

 -----------------------------------------------------------------
 #P Geom=AllCheck Guess=TCheck SCRF=Check CCSD(T,E4T,FrzG4)/GTBas1
 -----------------------------------------------------------------

 Structure from the checkpoint file:  "G4.Frag_578.chk"
 --------
 Frag_578
 --------
 Charge =  0 Multiplicity = 1

 SCF Done:  E(RHF) =  -228.918616239     A.U. after   11 cycles
 E2 =    -0.6184166898D+00 EUMP2 =    -0.22953703292828D+03
 CCSD(T)
 CCSD(T)= -0.22958671049D+03
 051\MP4SDTQ=-229.5863111\MP4SDQ=-229.571404\CCSD=-229.5717503\CCSD(T)=
 Normal termination of Gaussian 09 at Wed Aug 24 17:25:23 2022.

 ---------------------------------------------------------
 #P Geom=AllCheck Guess=TCheck SCRF=Check MP4=FrzG4/GTBas2
 ---------------------------------------------------------

 Structure from the checkpoint file:  "G4.Frag_578.chk"
 --------
 Frag_578
 --------
 Charge =  0 Multiplicity = 1

 SCF Done:  E(RHF) =  -228.928330640     A.U. after   11 cycles
 E2 =    -0.6302513701D+00 EUMP2 =    -0.22955858201041D+03
 Normal termination of Gaussian 09 at Wed Aug 24 17:25:41 2022.

 ---------------------------------------------------------
 #P Geom=AllCheck Guess=TCheck SCRF=Check MP4=FrzG4/GTBas3
 ---------------------------------------------------------

 Structure from the checkpoint file:  "G4.Frag_578.chk"
 --------
 Frag_578
 --------
 Charge =  0 Multiplicity = 1

 SCF Done:  E(RHF) =  -228.953271249     A.U. after   10 cycles
 E2 =    -0.7751447423D+00 EUMP2 =    -0.22972841599102D+03
 Normal termination of Gaussian 09 at Wed Aug 24 17:33:51 2022.

 -----------------------------------------------------------
 #P Geom=AllCheck Guess=TCheck SCRF=Check MP2=Full/GTLargeXP
 -----------------------------------------------------------

 Structure from the checkpoint file:  "G4.Frag_578.chk"
 --------
 Frag_578
 --------
 Charge =  0 Multiplicity = 1

 SCF Done:  E(RHF) =  -229.020577605     A.U. after   11 cycles
 E2 =    -0.1011967114D+01 EUMP2 =    -0.23003254471897D+03
 Normal termination of Gaussian 09 at Wed Aug 24 17:34:41 2022.
 SCF Done:  E(RHF) =  -229.040075423     A.U. after    9 cycles
 Normal termination of Gaussian 09 at Wed Aug 24 17:36:19 2022.

                         Standard orientation:
 ---------------------------------------------------------------------
 Center     Atomic      Atomic             Coordinates (Angstroms)
 Number     Number       Type             X           Y           Z
 ---------------------------------------------------------------------
      1          8           0        1.430909   -0.599413    0.062609
      2          6           0        0.720261    0.581627   -0.253044
      3          6           0       -0.720256    0.581626    0.253050
      4          8           0       -1.430903   -0.599413   -0.062612
      5          1           0        1.235458   -0.830595    0.976540
      6          1           0        0.729877    0.649476   -1.349315
      7          1           0        1.224594    1.486629    0.126684
      8          1           0       -1.224590    1.486632   -0.126665
      9          1           0       -0.729870    0.649458    1.349322
     10          1           0       -1.235551   -0.830518   -0.976584
 ---------------------------------------------------------------------

 SCF Done:  E(RHF) =  -229.044395602     A.U. after    8 cycles

 The electronic state is 1-A.
 Alpha  occ. eigenvalues --  -20.56065 -20.56065 -11.28493 -11.28430  -1.37862
 Alpha  occ. eigenvalues --   -1.35478  -1.00207  -0.85789  -0.70607  -0.67447
 Alpha  occ. eigenvalues --   -0.65574  -0.62014  -0.57921  -0.54500  -0.48843
 Alpha  occ. eigenvalues --   -0.46781  -0.44098
 Alpha virt. eigenvalues --    0.04389   0.04562   0.04873   0.05548   0.07671
 Alpha virt. eigenvalues --    0.07945   0.08250   0.11197   0.12424   0.14857
 Alpha virt. eigenvalues --    0.15775   0.16044   0.17719   0.18123   0.19203

 Mulliken charges:
               1
     1  O   -0.554166
     2  C   -0.112332
     3  C   -0.112342
     4  O   -0.554163
     5  H    0.363577
     6  H    0.158321
     7  H    0.144602
     8  H    0.144603
     9  H    0.158326
    10  H    0.363574
 Sum of Mulliken charges =  -0.00000

 Dipole moment (field-independent basis, Debye):
    X=             -0.0002    Y=              1.7434    Z=             -0.0001  Tot=              1.7434
 Quadrupole moment (field-independent basis, Debye-Ang):
   XX=            -31.2251   YY=            -25.0743   ZZ=            -20.7318
   XY=              0.0000   XZ=              3.0263   YZ=             -0.0001

 Normal termination of Gaussian 09 at Wed Aug 24 18:20:59 2022.
