 Gaussian 09, Revision E.01,
 Gaussian 09:  ES64L-G09RevE.01 30-Nov-2015

 -----
 #P G4
 -----

 --------
 Frag_885
 --------
 Symbolic Z-matrix:
 Charge =  0 Multiplicity = 1

 SCF Done:  E(RB3LYP) =  -305.083923982     A.U. after   12 cycles
 SCF Done:  E(RB3LYP) =  -305.090082534     A.U. after   11 cycles
 SCF Done:  E(RB3LYP) =  -305.090368750     A.U. after   10 cycles
 SCF Done:  E(RB3LYP) =  -305.090436316     A.U. after   10 cycles
 SCF Done:  E(RB3LYP) =  -305.090446118     A.U. after    7 cycles
 SCF Done:  E(RB3LYP) =  -305.090449912     A.U. after    7 cycles
 SCF Done:  E(RB3LYP) =  -305.090451969     A.U. after    7 cycles
 SCF Done:  E(RB3LYP) =  -305.090456583     A.U. after    8 cycles
 SCF Done:  E(RB3LYP) =  -305.090461867     A.U. after    9 cycles
 SCF Done:  E(RB3LYP) =  -305.090468522     A.U. after   10 cycles
 SCF Done:  E(RB3LYP) =  -305.090490105     A.U. after   10 cycles
 SCF Done:  E(RB3LYP) =  -305.090497860     A.U. after   10 cycles
 SCF Done:  E(RB3LYP) =  -305.090498236     A.U. after    8 cycles
 Optimization completed.
    -- Stationary point found.
 Normal termination of Gaussian 09 at Sat Aug 20 19:44:23 2022.

 ----------------------------------------------------------
 #P Geom=AllCheck Guess=TCheck SCRF=Check B3LYP/GTBas3 Freq
 ----------------------------------------------------------

 Structure from the checkpoint file:  "G4.Frag_885.chk"
 --------
 Frag_885
 --------
 Charge =  0 Multiplicity = 1

 SCF Done:  E(RB3LYP) =  -305.090498236     A.U. after    1 cycles

  Exact polarizability:  53.762   0.044  51.423   0.242  -1.136  52.444
 Approx polarizability:  69.688   1.060  73.989   0.157  -2.025  75.365

                      1                      2                      3
                      A                      A                      A
 Frequencies --    118.7459               139.3210               219.9404
 Red. masses --      1.7638                 1.1481                 1.2307
 Frc consts  --      0.0147                 0.0131                 0.0351
 IR Inten    --      2.9267                34.8306                 5.3162

                      4                      5                      6
                      A                      A                      A
 Frequencies --    255.0158               278.2381               318.0910
 Red. masses --      2.5993                 1.1302                 1.1356
 Frc consts  --      0.0996                 0.0516                 0.0677
 IR Inten    --      2.4455                21.5021                63.7182

                      7                      8                      9
                      A                      A                      A
 Frequencies --    373.6576               424.3536               490.3886
 Red. masses --      2.1446                 2.9136                 3.1610
 Frc consts  --      0.1764                 0.3091                 0.4479
 IR Inten    --     30.1696                 1.0666                 2.4922

                     10                     11                     12
                      A                      A                      A
 Frequencies --    498.8225               555.4463               762.7533
 Red. masses --      2.8214                 2.9633                 3.5552
 Frc consts  --      0.4136                 0.5387                 1.2187
 IR Inten    --     32.2461                 9.8996                10.0276

                     13                     14                     15
                      A                      A                      A
 Frequencies --    795.2949               863.7947               913.5580
 Red. masses --      1.1857                 1.8655                 1.3889
 Frc consts  --      0.4418                 0.8201                 0.6830
 IR Inten    --     10.5357               126.1245               182.0202

                     16                     17                     18
                      A                      A                      A
 Frequencies --    961.1588               987.6494              1044.2681
 Red. masses --      1.8428                 2.4136                 2.4836
 Frc consts  --      1.0030                 1.3871                 1.5957
 IR Inten    --     23.9004                97.9648                17.2897

                     19                     20                     21
                      A                      A                      A
 Frequencies --   1050.1934              1099.3926              1156.0009
 Red. masses --      1.4231                 1.7559                 1.5106
 Frc consts  --      0.9248                 1.2504                 1.1893
 IR Inten    --      2.3659                24.4611                 5.9953

                     22                     23                     24
                      A                      A                      A
 Frequencies --   1232.3138              1269.5868              1350.0247
 Red. masses --      1.5332                 1.3120                 1.5786
 Frc consts  --      1.3718                 1.2460                 1.6952
 IR Inten    --    153.9951                 4.7046                22.2321

                     25                     26                     27
                      A                      A                      A
 Frequencies --   1366.5046              1401.9266              1427.6832
 Red. masses --      1.7153                 1.3471                 1.7702
 Frc consts  --      1.8872                 1.5599                 2.1258
 IR Inten    --     11.8695                 7.5460                64.3866

                     28                     29                     30
                      A                      A                      A
 Frequencies --   1480.4554              1496.3352              1511.9463
 Red. masses --      1.0781                 1.0414                 1.0588
 Frc consts  --      1.3921                 1.3738                 1.4261
 IR Inten    --      0.6209                 4.7351                 6.1141

                     31                     32                     33
                      A                      A                      A
 Frequencies --   1639.8335              1649.6024              3006.6759
 Red. masses --      1.1137                 1.1069                 1.0643
 Frc consts  --      1.7645                 1.7747                 5.6689
 IR Inten    --     31.7929                27.7464                36.5709

                     34                     35                     36
                      A                      A                      A
 Frequencies --   3039.0793              3052.6287              3101.5688
 Red. masses --      1.0380                 1.0955                 1.1002
 Frc consts  --      5.6485                 6.0148                 6.2356
 IR Inten    --     20.5907                25.5212                38.5521

                     37                     38                     39
                      A                      A                      A
 Frequencies --   3125.6920              3492.4688              3499.5080
 Red. masses --      1.1012                 1.0491                 1.0488
 Frc consts  --      6.3387                 7.5390                 7.5675
 IR Inten    --     18.9157                 0.5046                 1.5422

                     40                     41                     42
                      A                      A                      A
 Frequencies --   3580.0988              3582.0355              3796.3219
 Red. masses --      1.0920                 1.0921                 1.0656
 Frc consts  --      8.2463                 8.2557                 9.0481
 IR Inten    --      0.3515                 2.5634                 5.4514

 - Thermochemistry -
 -------------------
 Temperature   298.150 Kelvin.  Pressure   1.00000 Atm.
 Atom     1 has atomic number  6 and mass  12.00000

 Molecular mass:    90.07931 amu.
 Principal axes and moments of inertia in atomic units:
                           1         2         3
     Eigenvalues --   382.15008 679.70617 692.69227
           X            0.99988  -0.01110   0.01072
           Y            0.01233   0.99229  -0.12334
           Z           -0.00926   0.12346   0.99231
 This molecule is an asymmetric top.
 Rotational symmetry number  1.
 Rotational temperatures (Kelvin)      0.22665     0.12743     0.12504
 Rotational constants (GHZ):           4.72260     2.65518     2.60540
 Zero-point vibrational energy     373285.0 (Joules/Mol)
                                   89.21725 (Kcal/Mol)
 Warning -- explicit consideration of  11 degrees of freedom as
           vibrations may cause significant error
 Vibrational temperatures:    170.85   200.45   316.44   366.91   400.32
          (Kelvin)            457.66   537.61   610.55   705.56   717.69
                              799.16  1097.43  1144.25  1242.81  1314.40
                             1382.89  1421.01  1502.47  1510.99  1581.78
                             1663.23  1773.02  1826.65  1942.38  1966.09
                             2017.06  2054.12  2130.04  2152.89  2175.35
                             2359.35  2373.41  4325.93  4372.55  4392.05
                             4462.46  4497.17  5024.88  5035.01  5150.96
                             5153.74  5462.05

 Zero-point correction=                           0.142177 (Hartree/Particle)
 Thermal correction to Energy=                    0.150041
 Thermal correction to Enthalpy=                  0.150985
 Thermal correction to Gibbs Free Energy=         0.111179
 Sum of electronic and zero-point Energies=           -304.948321
 Sum of electronic and thermal Energies=              -304.940457
 Sum of electronic and thermal Enthalpies=            -304.939513
 Sum of electronic and thermal Free Energies=         -304.979319

                     E (Thermal)             CV                S
                      KCal/Mol        Cal/Mol-Kelvin    Cal/Mol-Kelvin
 Total                   94.152             28.825             83.780
 Electronic               0.000              0.000              0.000
 Translational            0.889              2.981             39.407
 Rotational               0.889              2.981             26.689
 Vibrational             92.375             22.864             17.684
 Vibration     1          0.609              1.934              3.121
 Vibration     2          0.615              1.914              2.813
 Vibration     3          0.647              1.811              1.960
 Vibration     4          0.665              1.754              1.696
 Vibration     5          0.679              1.714              1.544
 Vibration     6          0.704              1.639              1.320
 Vibration     7          0.745              1.526              1.065
 Vibration     8          0.786              1.417              0.877
 Vibration     9          0.846              1.271              0.683
 Vibration    10          0.854              1.253              0.661
 Vibration    11          0.911              1.128              0.533

 Normal termination of Gaussian 09 at Sat Aug 20 19:47:34 2022.

 -----------------------------------------------------------------
 #P Geom=AllCheck Guess=TCheck SCRF=Check CCSD(T,E4T,FrzG4)/GTBas1
 -----------------------------------------------------------------

 Structure from the checkpoint file:  "G4.Frag_885.chk"
 --------
 Frag_885
 --------
 Charge =  0 Multiplicity = 1

 SCF Done:  E(RHF) =  -303.171627169     A.U. after   12 cycles
 E2 =    -0.9046895549D+00 EUMP2 =    -0.30407631672356D+03
 CCSD(T)
 CCSD(T)= -0.30415775976D+03
 DTQ=-304.1570096\MP4SDQ=-304.1314983\CCSD=-304.1322686\CCSD(T)=-304.15
 Normal termination of Gaussian 09 at Sat Aug 20 19:54:18 2022.

 ---------------------------------------------------------
 #P Geom=AllCheck Guess=TCheck SCRF=Check MP4=FrzG4/GTBas2
 ---------------------------------------------------------

 Structure from the checkpoint file:  "G4.Frag_885.chk"
 --------
 Frag_885
 --------
 Charge =  0 Multiplicity = 1

 SCF Done:  E(RHF) =  -303.183026686     A.U. after   11 cycles
 E2 =    -0.9206835068D+00 EUMP2 =    -0.30410371019313D+03
 Normal termination of Gaussian 09 at Sat Aug 20 20:03:58 2022.

 ---------------------------------------------------------
 #P Geom=AllCheck Guess=TCheck SCRF=Check MP4=FrzG4/GTBas3
 ---------------------------------------------------------

 Structure from the checkpoint file:  "G4.Frag_885.chk"
 --------
 Frag_885
 --------
 Charge =  0 Multiplicity = 1

 SCF Done:  E(RHF) =  -303.218525237     A.U. after   11 cycles
 E2 =    -0.1121623369D+01 EUMP2 =    -0.30434014860548D+03
 Normal termination of Gaussian 09 at Sat Aug 20 23:45:19 2022.

 -----------------------------------------------------------
 #P Geom=AllCheck Guess=TCheck SCRF=Check MP2=Full/GTLargeXP
 -----------------------------------------------------------

 Structure from the checkpoint file:  "G4.Frag_885.chk"
 --------
 Frag_885
 --------
 Charge =  0 Multiplicity = 1

 SCF Done:  E(RHF) =  -303.299143658     A.U. after   12 cycles
 E2 =    -0.1463415522D+01 EUMP2 =    -0.30476255918013D+03
 Normal termination of Gaussian 09 at Sat Aug 20 23:52:28 2022.
 SCF Done:  E(RHF) =  -303.323231786     A.U. after    9 cycles
 Normal termination of Gaussian 09 at Sat Aug 20 23:59:40 2022.

                         Standard orientation:
 ---------------------------------------------------------------------
 Center     Atomic      Atomic             Coordinates (Angstroms)
 Number     Number       Type             X           Y           Z
 ---------------------------------------------------------------------
      1          6           0        2.134950    0.060299   -0.021644
      2          6           0        0.869543   -0.798934   -0.013849
      3          6           0       -0.458115   -0.004692   -0.001683
      4          7           0       -0.553866    0.810877   -1.186244
      5          7           0       -0.623374    0.910566    1.127299
      6          8           0       -1.541148   -0.936382    0.009692
      7          1           0        3.030250   -0.564358   -0.094749
      8          1           0        2.123433    0.751822   -0.867921
      9          1           0        2.222821    0.652122    0.895611
     10          1           0        0.856410   -1.458579   -0.890226
     11          1           0        0.872739   -1.458519    0.865670
     12          1           0       -0.583843    0.209439   -2.003692
     13          1           0       -1.436481    1.312803   -1.146429
     14          1           0        0.097680    1.624519    1.085126
     15          1           0       -0.501041    0.412081    2.004203
     16          1           0       -1.390376   -1.580413    0.710547
 ---------------------------------------------------------------------

 SCF Done:  E(RHF) =  -303.328604876     A.U. after    8 cycles

 The electronic state is 1-A.
 Alpha  occ. eigenvalues --  -20.55291 -15.54258 -15.53789 -11.34027 -11.22874
 Alpha  occ. eigenvalues --  -11.21694  -1.37629  -1.20829  -1.13111  -1.03420
 Alpha  occ. eigenvalues --   -0.88633  -0.79764  -0.69852  -0.68522  -0.66895
 Alpha  occ. eigenvalues --   -0.61426  -0.58473  -0.57742  -0.56430  -0.51016
 Alpha  occ. eigenvalues --   -0.50349  -0.49181  -0.46580  -0.42029  -0.40305
 Alpha virt. eigenvalues --    0.03517   0.04080   0.04871   0.05227   0.06819
 Alpha virt. eigenvalues --    0.07164   0.07393   0.07700   0.08101   0.10198
 Alpha virt. eigenvalues --    0.11384   0.11992   0.12497   0.13060   0.13424

 Mulliken charges:
               1
     1  C   -0.536449
     2  C   -0.278357
     3  C    0.510107
     4  N   -0.750427
     5  N   -0.713986
     6  O   -0.592435
     7  H    0.167619
     8  H    0.196653
     9  H    0.145708
    10  H    0.170013
    11  H    0.138761
    12  H    0.294612
    13  H    0.315115
    14  H    0.306792
    15  H    0.273365
    16  H    0.352907
 Sum of Mulliken charges =  -0.00000

 Dipole moment (field-independent basis, Debye):
    X=              1.7106    Y=             -1.2463    Z=              0.9468  Tot=              2.3186
 Quadrupole moment (field-independent basis, Debye-Ang):
   XX=            -42.9943   YY=            -38.2342   ZZ=            -34.4026
   XY=              0.0083   XZ=              1.4923   YZ=             -1.4873

 Normal termination of Gaussian 09 at Sun Aug 21 03:13:08 2022.
