 Gaussian 09, Revision E.01,
 Gaussian 09:  ES64L-G09RevE.01 30-Nov-2015

 -----
 #P G4
 -----

 --------
 Frag_832
 --------
 Symbolic Z-matrix:
 Charge =  0 Multiplicity = 1

 SCF Done:  E(RB3LYP) =  -328.261769977     A.U. after   13 cycles
 SCF Done:  E(RB3LYP) =  -328.270708347     A.U. after   12 cycles
 SCF Done:  E(RB3LYP) =  -328.271642539     A.U. after   11 cycles
 SCF Done:  E(RB3LYP) =  -328.271848465     A.U. after   11 cycles
 SCF Done:  E(RB3LYP) =  -328.271930509     A.U. after   10 cycles
 SCF Done:  E(RB3LYP) =  -328.271952860     A.U. after   11 cycles
 SCF Done:  E(RB3LYP) =  -328.271958657     A.U. after    8 cycles
 SCF Done:  E(RB3LYP) =  -328.271959768     A.U. after    7 cycles
 SCF Done:  E(RB3LYP) =  -328.271959847     A.U. after    7 cycles
 SCF Done:  E(RB3LYP) =  -328.271959838     A.U. after    5 cycles
 Optimization completed.
    -- Stationary point found.
 Normal termination of Gaussian 09 at Fri Aug 26 11:14:33 2022.

 ----------------------------------------------------------
 #P Geom=AllCheck Guess=TCheck SCRF=Check B3LYP/GTBas3 Freq
 ----------------------------------------------------------

 Structure from the checkpoint file:  "G4.Frag_832.chk"
 --------
 Frag_832
 --------
 Charge =  0 Multiplicity = 1

 SCF Done:  E(RB3LYP) =  -328.271959838     A.U. after    1 cycles

  Exact polarizability:  73.278   0.675  68.469   0.282   0.557  63.278
 Approx polarizability:  98.423  -3.434 100.449  -1.709   4.986  94.462

                      1                      2                      3
                      A                      A                      A
 Frequencies --     82.2539               207.2225               245.9071
 Red. masses --      2.4107                 1.0204                 1.1183
 Frc consts  --      0.0096                 0.0258                 0.0398
 IR Inten    --      2.4585                 0.1782                 0.8581

                      4                      5                      6
                      A                      A                      A
 Frequencies --    261.1426               280.6300               308.1692
 Red. masses --      1.2019                 1.1668                 2.4905
 Frc consts  --      0.0483                 0.0541                 0.1394
 IR Inten    --      0.7328                 0.3665                10.4420

                      7                      8                      9
                      A                      A                      A
 Frequencies --    308.9833               364.3819               391.4541
 Red. masses --      2.1285                 2.2729                 2.4029
 Frc consts  --      0.1197                 0.1778                 0.2169
 IR Inten    --      0.4350                 4.1962                 4.5687

                     10                     11                     12
                      A                      A                      A
 Frequencies --    432.1239               477.9809               484.0594
 Red. masses --      3.0112                 3.4154                 3.0036
 Frc consts  --      0.3313                 0.4597                 0.4147
 IR Inten    --      9.8614                 9.0585                 9.5854

                     13                     14                     15
                      A                      A                      A
 Frequencies --    552.4185               667.5958               864.5755
 Red. masses --      2.7532                 3.0215                 2.4190
 Frc consts  --      0.4950                 0.7934                 1.0653
 IR Inten    --      7.7336                 1.9126                 2.1820

                     16                     17                     18
                      A                      A                      A
 Frequencies --    881.7772               922.0774               934.9162
 Red. masses --      2.5601                 1.9675                 1.2422
 Frc consts  --      1.1728                 0.9856                 0.6397
 IR Inten    --      1.7465                 0.9945                 0.6737

                     19                     20                     21
                      A                      A                      A
 Frequencies --    951.5603               989.1696              1082.3576
 Red. masses --      1.6212                 2.9995                 1.2678
 Frc consts  --      0.8649                 1.7292                 0.8751
 IR Inten    --      6.2668                21.5298                 2.8281

                     22                     23                     24
                      A                      A                      A
 Frequencies --   1122.9158              1148.2756              1188.2595
 Red. masses --      1.5297                 1.9664                 1.9842
 Frc consts  --      1.1364                 1.5276                 1.6507
 IR Inten    --     14.2945                 6.2881                15.1877

                     25                     26                     27
                      A                      A                      A
 Frequencies --   1195.8239              1230.8647              1261.2835
 Red. masses --      1.7677                 2.2349                 1.9117
 Frc consts  --      1.4893                 1.9949                 1.7918
 IR Inten    --      6.5865                 1.6395                 0.1731

                     28                     29                     30
                      A                      A                      A
 Frequencies --   1339.9877              1375.7394              1392.2609
 Red. masses --      1.4237                 1.2286                 1.3306
 Frc consts  --      1.5061                 1.3700                 1.5197
 IR Inten    --      3.3160                 8.9084                10.3477

                     31                     32                     33
                      A                      A                      A
 Frequencies --   1407.4753              1411.9549              1439.7028
 Red. masses --      1.1736                 1.2289                 1.1862
 Frc consts  --      1.3697                 1.4435                 1.4487
 IR Inten    --      0.9443                12.6656                 2.4346

                     34                     35                     36
                      A                      A                      A
 Frequencies --   1461.3490              1476.8031              1484.6512
 Red. masses --      1.0475                 1.0541                 1.0581
 Frc consts  --      1.3179                 1.3545                 1.3741
 IR Inten    --      0.4164                 8.1799                 5.6434

                     37                     38                     39
                      A                      A                      A
 Frequencies --   1490.4540              1494.6145              1504.1130
 Red. masses --      1.0547                 1.0492                 1.0507
 Frc consts  --      1.3804                 1.3809                 1.4006
 IR Inten    --      6.3346                 4.9079                 2.5171

                     40                     41                     42
                      A                      A                      A
 Frequencies --   1509.5303              1520.5528              3039.8856
 Red. masses --      1.0460                 1.0503                 1.0374
 Frc consts  --      1.4043                 1.4308                 5.6482
 IR Inten    --      9.0825                 4.9965                15.4689

                     43                     44                     45
                      A                      A                      A
 Frequencies --   3044.3519              3047.3793              3057.5722
 Red. masses --      1.0373                 1.0385                 1.0377
 Frc consts  --      5.6641                 5.6818                 5.7156
 IR Inten    --     13.0744                12.3023                44.9364

                     46                     47                     48
                      A                      A                      A
 Frequencies --   3075.6218              3103.2373              3111.1366
 Red. masses --      1.0851                 1.1000                 1.0982
 Frc consts  --      6.0479                 6.2411                 6.2626
 IR Inten    --      3.0371                 0.6333                43.8856

                     49                     50                     51
                      A                      A                      A
 Frequencies --   3126.5827              3150.2415              3153.0208
 Red. masses --      1.0996                 1.0971                 1.1002
 Frc consts  --      6.3334                 6.4147                 6.4442
 IR Inten    --     32.2793                 3.7494                 1.1147

                     52                     53                     54
                      A                      A                      A
 Frequencies --   3156.7219              3177.5011              3189.3002
 Red. masses --      1.0972                 1.1053                 1.1042
 Frc consts  --      6.4418                 6.5750                 6.6175
 IR Inten    --     19.8508                 7.1538                 6.2520

 - Thermochemistry -
 -------------------
 Temperature   298.150 Kelvin.  Pressure   1.00000 Atm.
 Atom     1 has atomic number  6 and mass  12.00000

 Molecular mass:   103.09971 amu.
 Principal axes and moments of inertia in atomic units:
                           1         2         3
     Eigenvalues --   555.90267 773.29210 935.43862
           X            0.99729   0.07227   0.01399
           Y           -0.07146   0.99612  -0.05136
           Z           -0.01764   0.05022   0.99858
 This molecule is an asymmetric top.
 Rotational symmetry number  1.
 Warning -- assumption of classical behavior for rotation
           may cause significant error
 Rotational temperatures (Kelvin)      0.15581     0.11201     0.09259
 Rotational constants (GHZ):           3.24651     2.33384     1.92930
 Zero-point vibrational energy     475993.6 (Joules/Mol)
                                  113.76521 (Kcal/Mol)
 Warning -- explicit consideration of  13 degrees of freedom as
           vibrations may cause significant error
 Vibrational temperatures:    118.34   298.15   353.81   375.73   403.76
          (Kelvin)            443.39   444.56   524.26   563.21   621.73
                              687.71   696.45   794.81   960.52  1243.93
                             1268.68  1326.66  1345.13  1369.08  1423.19
                             1557.27  1615.62  1652.11  1709.64  1720.52
                             1770.94  1814.70  1927.94  1979.38  2003.15
                             2025.04  2031.49  2071.41  2102.55  2124.79
                             2136.08  2144.43  2150.41  2164.08  2171.87
                             2187.73  4373.71  4380.14  4384.49  4399.16
                             4425.13  4464.86  4476.23  4498.45  4532.49
                             4536.49  4541.81  4571.71  4588.69

 Zero-point correction=                           0.181296 (Hartree/Particle)
 Thermal correction to Energy=                    0.189928
 Thermal correction to Enthalpy=                  0.190872
 Thermal correction to Gibbs Free Energy=         0.149324
 Sum of electronic and zero-point Energies=           -328.090663
 Sum of electronic and thermal Energies=              -328.082032
 Sum of electronic and thermal Enthalpies=            -328.081088
 Sum of electronic and thermal Free Energies=         -328.122636

                     E (Thermal)             CV                S
                      KCal/Mol        Cal/Mol-Kelvin    Cal/Mol-Kelvin
 Total                  119.182             32.998             87.445
 Electronic               0.000              0.000              0.000
 Translational            0.889              2.981             39.809
 Rotational               0.889              2.981             27.488
 Vibrational            117.404             27.036             20.148
 Vibration     1          0.600              1.961              3.836
 Vibration     2          0.641              1.830              2.068
 Vibration     3          0.660              1.770              1.760
 Vibration     4          0.669              1.744              1.654
 Vibration     5          0.680              1.709              1.530
 Vibration     6          0.698              1.658              1.372
 Vibration     7          0.698              1.657              1.368
 Vibration     8          0.738              1.546              1.103
 Vibration     9          0.759              1.488              0.995
 Vibration    10          0.793              1.400              0.852
 Vibration    11          0.834              1.299              0.716
 Vibration    12          0.840              1.285              0.699
 Vibration    13          0.908              1.134              0.539

 Normal termination of Gaussian 09 at Fri Aug 26 11:15:35 2022.

 -----------------------------------------------------------------
 #P Geom=AllCheck Guess=TCheck SCRF=Check CCSD(T,E4T,FrzG4)/GTBas1
 -----------------------------------------------------------------

 Structure from the checkpoint file:  "G4.Frag_832.chk"
 --------
 Frag_832
 --------
 Charge =  0 Multiplicity = 1

 SCF Done:  E(RHF) =  -326.111209882     A.U. after   12 cycles
 E2 =    -0.1014988606D+01 EUMP2 =    -0.32712619848769D+03
 CCSD(T)
 CCSD(T)= -0.32723123255D+03
 1033\CCSD=-327.1976583\CCSD(T)=-327.2312326\RMSD=6.099e-09\PG=C01 [X(C
 Normal termination of Gaussian 09 at Fri Aug 26 11:21:19 2022.

 ---------------------------------------------------------
 #P Geom=AllCheck Guess=TCheck SCRF=Check MP4=FrzG4/GTBas2
 ---------------------------------------------------------

 Structure from the checkpoint file:  "G4.Frag_832.chk"
 --------
 Frag_832
 --------
 Charge =  0 Multiplicity = 1

 SCF Done:  E(RHF) =  -326.121739570     A.U. after   12 cycles
 E2 =    -0.1031275300D+01 EUMP2 =    -0.32715301486932D+03
 Normal termination of Gaussian 09 at Fri Aug 26 11:22:58 2022.

 ---------------------------------------------------------
 #P Geom=AllCheck Guess=TCheck SCRF=Check MP4=FrzG4/GTBas3
 ---------------------------------------------------------

 Structure from the checkpoint file:  "G4.Frag_832.chk"
 --------
 Frag_832
 --------
 Charge =  0 Multiplicity = 1

 SCF Done:  E(RHF) =  -326.150038343     A.U. after   11 cycles
 E2 =    -0.1263541276D+01 EUMP2 =    -0.32741357961912D+03
 Normal termination of Gaussian 09 at Fri Aug 26 11:37:12 2022.

 -----------------------------------------------------------
 #P Geom=AllCheck Guess=TCheck SCRF=Check MP2=Full/GTLargeXP
 -----------------------------------------------------------

 Structure from the checkpoint file:  "G4.Frag_832.chk"
 --------
 Frag_832
 --------
 Charge =  0 Multiplicity = 1

 SCF Done:  E(RHF) =  -326.230613044     A.U. after   12 cycles
 E2 =    -0.1652173484D+01 EUMP2 =    -0.32788278652799D+03
 Normal termination of Gaussian 09 at Fri Aug 26 11:42:44 2022.
 SCF Done:  E(RHF) =  -326.256234177     A.U. after    8 cycles
 Normal termination of Gaussian 09 at Fri Aug 26 11:47:23 2022.

                         Standard orientation:
 ---------------------------------------------------------------------
 Center     Atomic      Atomic             Coordinates (Angstroms)
 Number     Number       Type             X           Y           Z
 ---------------------------------------------------------------------
      1          6           0       -1.490303    1.356702    0.136234
      2          6           0       -0.839072    0.094597   -0.430629
      3          6           0       -1.618193   -1.170751   -0.090026
      4          7           0        0.650766   -0.104242   -0.052133
      5          6           0        1.454678    1.070146   -0.527433
      6          6           0        0.837732   -0.246223    1.430526
      7          8           0        1.119229   -1.213418   -0.668440
      8          1           0       -0.977483    2.275186   -0.158477
      9          1           0       -2.514229    1.421186   -0.245805
     10          1           0       -1.557001    1.328025    1.228346
     11          1           0       -0.762893    0.166455   -1.518757
     12          1           0       -1.893016   -1.214229    0.969441
     13          1           0       -2.545126   -1.192959   -0.670138
     14          1           0       -1.002246   -2.031637   -0.352754
     15          1           0        1.271374    1.174136   -1.596447
     16          1           0        2.497155    0.797840   -0.370157
     17          1           0        1.209357    1.993727    0.004166
     18          1           0        0.292306   -1.132587    1.746693
     19          1           0        0.500762    0.638377    1.979229
     20          1           0        1.902797   -0.413302    1.585086
 ---------------------------------------------------------------------

 SCF Done:  E(RHF) =  -326.261796030     A.U. after    8 cycles

 The electronic state is 1-A.
 Alpha  occ. eigenvalues --  -20.45180 -15.68999 -11.27675 -11.26217 -11.26207
 Alpha  occ. eigenvalues --  -11.23570 -11.21221  -1.37712  -1.11757  -1.05469
 Alpha  occ. eigenvalues --   -0.98238  -0.94434  -0.88850  -0.78099  -0.68822
 Alpha  occ. eigenvalues --   -0.65970  -0.64099  -0.62561  -0.58783  -0.57171
 Alpha  occ. eigenvalues --   -0.55827  -0.54795  -0.53854  -0.53243  -0.50602
 Alpha  occ. eigenvalues --   -0.49082  -0.48648  -0.36573  -0.36422
 Alpha virt. eigenvalues --    0.02619   0.03643   0.03770   0.04650   0.05605
 Alpha virt. eigenvalues --    0.06291   0.06628   0.06917   0.07601   0.08836
 Alpha virt. eigenvalues --    0.09385   0.09586   0.09855   0.10827   0.11269

 Mulliken charges:
               1
     1  C   -0.586723
     2  C    0.035125
     3  C   -0.620854
     4  N    0.548976
     5  C   -0.538353
     6  C   -0.565258
     7  O   -0.745487
     8  H    0.174828
     9  H    0.187226
    10  H    0.170385
    11  H    0.189951
    12  H    0.157638
    13  H    0.173349
    14  H    0.249947
    15  H    0.198243
    16  H    0.208667
    17  H    0.173271
    18  H    0.210185
    19  H    0.172957
    20  H    0.205924
 Sum of Mulliken charges =  -0.00000

 Dipole moment (field-independent basis, Debye):
    X=             -1.9516    Y=              4.0211    Z=              2.1340  Tot=              4.9529
 Quadrupole moment (field-independent basis, Debye-Ang):
   XX=            -46.0824   YY=            -49.4201   ZZ=            -44.9201
   XY=              5.2519   XZ=              3.4187   YZ=             -3.7050

 Normal termination of Gaussian 09 at Fri Aug 26 12:03:25 2022.
