 Gaussian 09, Revision E.01,
 Gaussian 09:  ES64L-G09RevE.01 30-Nov-2015

 -----
 #P G4
 -----

 --------
 Frag_553
 --------
 Symbolic Z-matrix:
 Charge =  0 Multiplicity = 1

 SCF Done:  E(RB3LYP) =  -308.485818264     A.U. after   12 cycles
 SCF Done:  E(RB3LYP) =  -308.491430913     A.U. after   10 cycles
 SCF Done:  E(RB3LYP) =  -308.491749357     A.U. after   11 cycles
 SCF Done:  E(RB3LYP) =  -308.491963013     A.U. after   10 cycles
 SCF Done:  E(RB3LYP) =  -308.492015492     A.U. after    9 cycles
 SCF Done:  E(RB3LYP) =  -308.492027339     A.U. after    8 cycles
 SCF Done:  E(RB3LYP) =  -308.492031245     A.U. after    7 cycles
 SCF Done:  E(RB3LYP) =  -308.492032124     A.U. after    7 cycles
 SCF Done:  E(RB3LYP) =  -308.492032259     A.U. after    6 cycles
 Optimization completed.
    -- Stationary point found.
 Normal termination of Gaussian 09 at Fri Aug 26 01:51:44 2022.

 ----------------------------------------------------------
 #P Geom=AllCheck Guess=TCheck SCRF=Check B3LYP/GTBas3 Freq
 ----------------------------------------------------------

 Structure from the checkpoint file:  "G4.Frag_553.chk"
 --------
 Frag_553
 --------
 Charge =  0 Multiplicity = 1

 SCF Done:  E(RB3LYP) =  -308.492032259     A.U. after    1 cycles

  Exact polarizability:  75.457   0.485  70.002   0.352  -0.610  65.874
 Approx polarizability: 100.740   1.108  98.290   0.671  -0.714  95.855

                      1                      2                      3
                      A                      A                      A
 Frequencies --    100.0788               213.6469               225.6503
 Red. masses --      3.0722                 1.0554                 1.1265
 Frc consts  --      0.0181                 0.0284                 0.0338
 IR Inten    --      0.9033                 3.4696                11.3225

                      4                      5                      6
                      A                      A                      A
 Frequencies --    247.7084               269.4385               283.0456
 Red. masses --      1.4365                 1.4039                 2.1630
 Frc consts  --      0.0519                 0.0600                 0.1021
 IR Inten    --      0.9530                 5.2155                 3.6305

                      7                      8                      9
                      A                      A                      A
 Frequencies --    300.5890               323.9701               349.9826
 Red. masses --      1.2558                 1.0935                 2.4425
 Frc consts  --      0.0668                 0.0676                 0.1763
 IR Inten    --      6.1069                55.8842                 1.0180

                     10                     11                     12
                      A                      A                      A
 Frequencies --    365.3475               384.6161               467.7511
 Red. masses --      2.2029                 2.2536                 2.2294
 Frc consts  --      0.1732                 0.1964                 0.2874
 IR Inten    --      0.2697                 1.6438                16.2687

                     13                     14                     15
                      A                      A                      A
 Frequencies --    486.9328               573.1409               723.1745
 Red. masses --      2.9361                 2.8025                 2.6612
 Frc consts  --      0.4102                 0.5424                 0.8200
 IR Inten    --      9.5868                12.7424                 6.0030

                     16                     17                     18
                      A                      A                      A
 Frequencies --    854.1546               868.3400               910.3015
 Red. masses --      1.7806                 1.9027                 1.4935
 Frc consts  --      0.7654                 0.8453                 0.7292
 IR Inten    --     19.1744                81.4913               116.2354

                     19                     20                     21
                      A                      A                      A
 Frequencies --    938.4595               939.3786               959.2916
 Red. masses --      1.6683                 1.6535                 1.2099
 Frc consts  --      0.8657                 0.8597                 0.6560
 IR Inten    --      2.7161                 2.6490                 1.2554

                     22                     23                     24
                      A                      A                      A
 Frequencies --   1012.8033              1027.2515              1048.1188
 Red. masses --      1.6725                 1.4483                 1.4947
 Frc consts  --      1.0108                 0.9004                 0.9674
 IR Inten    --     22.1055                 2.1748                10.1866

                     25                     26                     27
                      A                      A                      A
 Frequencies --   1090.3607              1158.3333              1234.8118
 Red. masses --      2.5579                 1.2886                 2.2203
 Frc consts  --      1.7918                 1.0187                 1.9946
 IR Inten    --     33.2945                 1.8669                 9.3009

                     28                     29                     30
                      A                      A                      A
 Frequencies --   1248.1885              1286.0873              1298.8555
 Red. masses --      2.2614                 2.1513                 1.9061
 Frc consts  --      2.0758                 2.0965                 1.8946
 IR Inten    --      8.7592                 0.5159                 2.1801

                     31                     32                     33
                      A                      A                      A
 Frequencies --   1367.4132              1390.8362              1392.2112
 Red. masses --      1.2797                 1.2709                 1.2341
 Frc consts  --      1.4098                 1.4485                 1.4093
 IR Inten    --     15.9244                 6.1283                 6.0395

                     34                     35                     36
                      A                      A                      A
 Frequencies --   1415.9416              1444.9438              1477.8738
 Red. masses --      1.2536                 1.3980                 1.0510
 Frc consts  --      1.4808                 1.7197                 1.3525
 IR Inten    --      3.8448                18.8834                 0.2494

                     37                     38                     39
                      A                      A                      A
 Frequencies --   1490.0636              1497.0125              1500.5595
 Red. masses --      1.0493                 1.0458                 1.0557
 Frc consts  --      1.3727                 1.3808                 1.4005
 IR Inten    --      0.6166                 0.0842                 2.3359

                     40                     41                     42
                      A                      A                      A
 Frequencies --   1509.8327              1526.4546              1646.4477
 Red. masses --      1.0565                 1.0634                 1.0950
 Frc consts  --      1.4190                 1.4598                 1.7489
 IR Inten    --      3.1420                14.9034                36.1160

                     43                     44                     45
                      A                      A                      A
 Frequencies --   1660.7276              2938.3774              3018.8215
 Red. masses --      1.0932                 1.0829                 1.0370
 Frc consts  --      1.7765                 5.5089                 5.5680
 IR Inten    --     20.8692                64.8152                24.8686

                     46                     47                     48
                      A                      A                      A
 Frequencies --   3027.7808              3036.3057              3083.2664
 Red. masses --      1.0374                 1.0363                 1.0997
 Frc consts  --      5.6036                 5.6292                 6.1595
 IR Inten    --     39.1588                13.5324                 2.6545

                     49                     50                     51
                      A                      A                      A
 Frequencies --   3089.1038              3096.3556              3099.1489
 Red. masses --      1.0993                 1.1009                 1.1003
 Frc consts  --      6.1809                 6.2189                 6.2267
 IR Inten    --     55.7258                18.8903                39.3248

                     52                     53                     54
                      A                      A                      A
 Frequencies --   3118.0057              3129.4448              3481.8288
 Red. masses --      1.1013                 1.0986                 1.0495
 Frc consts  --      6.3085                 6.3392                 7.4965
 IR Inten    --     21.5047                17.2997                 1.7548

                     55                     56                     57
                      A                      A                      A
 Frequencies --   3487.1947              3560.1392              3564.7617
 Red. masses --      1.0488                 1.0914                 1.0921
 Frc consts  --      7.5147                 8.1502                 8.1763
 IR Inten    --      0.4462                 0.3997                 1.0019

 - Thermochemistry -
 -------------------
 Temperature   298.150 Kelvin.  Pressure   1.00000 Atm.
 Atom     1 has atomic number  6 and mass  12.00000

 Molecular mass:   102.11570 amu.
 Principal axes and moments of inertia in atomic units:
                           1         2         3
     Eigenvalues --   584.08369 807.10731 967.72464
           X            1.00000  -0.00018   0.00274
           Y            0.00025   0.99967  -0.02551
           Z           -0.00273   0.02551   0.99967
 This molecule is an asymmetric top.
 Rotational symmetry number  1.
 Warning -- assumption of classical behavior for rotation
           may cause significant error
 Rotational temperatures (Kelvin)      0.14829     0.10731     0.08950
 Rotational constants (GHZ):           3.08987     2.23606     1.86493
 Zero-point vibrational energy     509852.4 (Joules/Mol)
                                  121.85764 (Kcal/Mol)
 Warning -- explicit consideration of  14 degrees of freedom as
           vibrations may cause significant error
 Vibrational temperatures:    143.99   307.39   324.66   356.40   387.66
          (Kelvin)            407.24   432.48   466.12   503.55   525.65
                              553.38   672.99   700.59   824.62  1040.49
                             1228.94  1249.35  1309.72  1350.23  1351.55
                             1380.20  1457.20  1477.98  1508.01  1568.78
                             1666.58  1776.62  1795.86  1850.39  1868.76
                             1967.40  2001.10  2003.08  2037.22  2078.95
                             2126.33  2143.87  2153.86  2158.97  2172.31
                             2196.22  2368.87  2389.41  4227.66  4343.41
                             4356.30  4368.56  4436.13  4444.53  4454.96
                             4458.98  4486.11  4502.57  5009.57  5017.29
                             5122.24  5128.89

 Zero-point correction=                           0.194193 (Hartree/Particle)
 Thermal correction to Energy=                    0.203396
 Thermal correction to Enthalpy=                  0.204340
 Thermal correction to Gibbs Free Energy=         0.161906
 Sum of electronic and zero-point Energies=           -308.297840
 Sum of electronic and thermal Energies=              -308.288636
 Sum of electronic and thermal Enthalpies=            -308.287692
 Sum of electronic and thermal Free Energies=         -308.330126

                     E (Thermal)             CV                S
                      KCal/Mol        Cal/Mol-Kelvin    Cal/Mol-Kelvin
 Total                  127.633             35.338             89.309
 Electronic               0.000              0.000              0.000
 Translational            0.889              2.981             39.780
 Rotational               0.889              2.981             27.614
 Vibrational            125.855             29.377             21.915
 Vibration     1          0.604              1.949              3.453
 Vibration     2          0.644              1.820              2.012
 Vibration     3          0.650              1.802              1.913
 Vibration     4          0.661              1.767              1.747
 Vibration     5          0.674              1.729              1.600
 Vibration     6          0.682              1.705              1.515
 Vibration     7          0.693              1.673              1.414
 Vibration     8          0.709              1.628              1.290
 Vibration     9          0.727              1.575              1.166
 Vibration    10          0.739              1.544              1.099
 Vibration    11          0.754              1.503              1.021
 Vibration    12          0.825              1.322              0.744
 Vibration    13          0.843              1.279              0.692
 Vibration    14          0.929              1.089              0.498

 Optimization completed.
    -- Stationary point found.
 Normal termination of Gaussian 09 at Fri Aug 26 01:52:51 2022.

 -----------------------------------------------------------------
 #P Geom=AllCheck Guess=TCheck SCRF=Check CCSD(T,E4T,FrzG4)/GTBas1
 -----------------------------------------------------------------

 Structure from the checkpoint file:  "G4.Frag_553.chk"
 --------
 Frag_553
 --------
 Charge =  0 Multiplicity = 1

 SCF Done:  E(RHF) =  -306.373918607     A.U. after   11 cycles
 E2 =    -0.9960439236D+00 EUMP2 =    -0.30736996253090D+03
 CCSD(T)
 CCSD(T)= -0.30747825551D+03
 Normal termination of Gaussian 09 at Fri Aug 26 01:58:12 2022.

 ---------------------------------------------------------
 #P Geom=AllCheck Guess=TCheck SCRF=Check MP4=FrzG4/GTBas2
 ---------------------------------------------------------

 Structure from the checkpoint file:  "G4.Frag_553.chk"
 --------
 Frag_553
 --------
 Charge =  0 Multiplicity = 1

 SCF Done:  E(RHF) =  -306.382317468     A.U. after   11 cycles
 E2 =    -0.1011232647D+01 EUMP2 =    -0.30739355011541D+03
 Normal termination of Gaussian 09 at Fri Aug 26 01:59:55 2022.

 ---------------------------------------------------------
 #P Geom=AllCheck Guess=TCheck SCRF=Check MP4=FrzG4/GTBas3
 ---------------------------------------------------------

 Structure from the checkpoint file:  "G4.Frag_553.chk"
 --------
 Frag_553
 --------
 Charge =  0 Multiplicity = 1

 SCF Done:  E(RHF) =  -306.419578003     A.U. after   10 cycles
 E2 =    -0.1239905703D+01 EUMP2 =    -0.30765948370538D+03
 Normal termination of Gaussian 09 at Fri Aug 26 02:15:57 2022.

 -----------------------------------------------------------
 #P Geom=AllCheck Guess=TCheck SCRF=Check MP2=Full/GTLargeXP
 -----------------------------------------------------------

 Structure from the checkpoint file:  "G4.Frag_553.chk"
 --------
 Frag_553
 --------
 Charge =  0 Multiplicity = 1

 SCF Done:  E(RHF) =  -306.490284900     A.U. after   11 cycles
 E2 =    -0.1623098193D+01 EUMP2 =    -0.30811338309348D+03
 Normal termination of Gaussian 09 at Fri Aug 26 02:21:32 2022.
 SCF Done:  E(RHF) =  -306.514184356     A.U. after    8 cycles
 Normal termination of Gaussian 09 at Fri Aug 26 02:26:35 2022.

                         Standard orientation:
 ---------------------------------------------------------------------
 Center     Atomic      Atomic             Coordinates (Angstroms)
 Number     Number       Type             X           Y           Z
 ---------------------------------------------------------------------
      1          6           0        0.731692   -0.202516    1.527416
      2          6           0        0.632838   -0.013488    0.003112
      3          6           0        1.317308    1.308629   -0.394072
      4          6           0        1.343340   -1.175060   -0.713893
      5          6           0       -0.856905    0.009014   -0.452234
      6          7           0       -1.548373    1.193969    0.087085
      7          7           0       -1.544768   -1.210419   -0.043525
      8          1           0        0.148438    0.558602    2.052826
      9          1           0        0.365720   -1.189284    1.827466
     10          1           0        1.773905   -0.126155    1.855204
     11          1           0        1.177038    1.528971   -1.459590
     12          1           0        0.941792    2.157175    0.186612
     13          1           0        2.395518    1.246683   -0.212928
     14          1           0        1.352609   -1.023493   -1.799866
     15          1           0        0.837657   -2.121205   -0.510139
     16          1           0        2.384188   -1.253175   -0.381873
     17          1           0       -0.848935   -0.002822   -1.556193
     18          1           0       -2.518992    1.169886   -0.213388
     19          1           0       -1.155669    2.046856   -0.301139
     20          1           0       -2.417858   -1.304930   -0.553253
     21          1           0       -1.793068   -1.131436    0.939374
 ---------------------------------------------------------------------

 SCF Done:  E(RHF) =  -306.519384112     A.U. after    7 cycles

 The electronic state is 1-A.
 Alpha  occ. eigenvalues --  -15.53850 -15.53616 -11.27842 -11.22735 -11.20957
 Alpha  occ. eigenvalues --  -11.19934 -11.19843  -1.22399  -1.12035  -1.07589
 Alpha  occ. eigenvalues --   -0.92424  -0.92024  -0.86590  -0.72566  -0.67533
 Alpha  occ. eigenvalues --   -0.66037  -0.62754  -0.60075  -0.58272  -0.56598
 Alpha  occ. eigenvalues --   -0.54828  -0.52546  -0.51955  -0.50465  -0.45951
 Alpha  occ. eigenvalues --   -0.45552  -0.45217  -0.40347  -0.39170
 Alpha virt. eigenvalues --    0.03023   0.04066   0.04346   0.04512   0.06348
 Alpha virt. eigenvalues --    0.06572   0.06644   0.07471   0.07570   0.09557
 Alpha virt. eigenvalues --    0.09756   0.10068   0.10252   0.11614   0.11847

 Mulliken charges:
               1
     1  C   -0.643873
     2  C    0.484463
     3  C   -0.639152
     4  C   -0.623347
     5  C    0.069580
     6  N   -0.721304
     7  N   -0.755530
     8  H    0.195992
     9  H    0.169482
    10  H    0.165171
    11  H    0.163863
    12  H    0.167990
    13  H    0.172874
    14  H    0.150927
    15  H    0.198241
    16  H    0.160133
    17  H    0.135242
    18  H    0.275686
    19  H    0.289377
    20  H    0.280978
    21  H    0.303207
 Sum of Mulliken charges =  -0.00000

 Dipole moment (field-independent basis, Debye):
    X=             -1.0552    Y=              0.9804    Z=             -1.0110  Tot=              1.7598
 Quadrupole moment (field-independent basis, Debye-Ang):
   XX=            -42.3713   YY=            -49.2396   ZZ=            -47.4463
   XY=              0.2993   XZ=              2.2871   YZ=             -2.5025

 Normal termination of Gaussian 09 at Fri Aug 26 02:41:21 2022.
