 Gaussian 09, Revision E.01,
 Gaussian 09:  ES64L-G09RevE.01 30-Nov-2015

 -----
 #P G4
 -----

 --------
 Frag_660
 --------
 Symbolic Z-matrix:
 Charge =  0 Multiplicity = 1

 SCF Done:  E(RB3LYP) =  -364.258197922     A.U. after   12 cycles
 SCF Done:  E(RB3LYP) =  -364.263345190     A.U. after   10 cycles
 SCF Done:  E(RB3LYP) =  -364.263694058     A.U. after   10 cycles
 SCF Done:  E(RB3LYP) =  -364.263828793     A.U. after   10 cycles
 SCF Done:  E(RB3LYP) =  -364.263924410     A.U. after   10 cycles
 SCF Done:  E(RB3LYP) =  -364.264010334     A.U. after    9 cycles
 SCF Done:  E(RB3LYP) =  -364.264324986     A.U. after   11 cycles
 SCF Done:  E(RB3LYP) =  -364.219521600     A.U. after   12 cycles
 SCF Done:  E(RB3LYP) =  -364.264337588     A.U. after    7 cycles
 SCF Done:  E(RB3LYP) =  -364.257693458     A.U. after   11 cycles
 SCF Done:  E(RB3LYP) =  -364.268009432     A.U. after    7 cycles
 SCF Done:  E(RB3LYP) =  -364.268009670     A.U. after    7 cycles
 SCF Done:  E(RB3LYP) =  -364.268009668     A.U. after    7 cycles
 Optimization completed.
    -- Stationary point found.
 Normal termination of Gaussian 09 at Fri Aug 26 09:47:29 2022.

 ----------------------------------------------------------
 #P Geom=AllCheck Guess=TCheck SCRF=Check B3LYP/GTBas3 Freq
 ----------------------------------------------------------

 Structure from the checkpoint file:  "G4.Frag_660.chk"
 --------
 Frag_660
 --------
 Charge =  0 Multiplicity = 1

 SCF Done:  E(RB3LYP) =  -364.268009668     A.U. after    1 cycles

  Exact polarizability:  65.754  -0.627  59.113  -0.592   0.685  55.429
 Approx polarizability:  86.956  -0.004  83.187   0.371   0.548  79.428

                      1                      2                      3
                      A                      A                      A
 Frequencies --     93.4219               207.2763               218.8815
 Red. masses --      2.9159                 1.2276                 1.0285
 Frc consts  --      0.0150                 0.0311                 0.0290
 IR Inten    --      1.4897                 0.0969                 0.6584

                      4                      5                      6
                      A                      A                      A
 Frequencies --    256.1575               259.6751               279.0370
 Red. masses --      1.1568                 1.5425                 1.1611
 Frc consts  --      0.0447                 0.0613                 0.0533
 IR Inten    --      1.4704                 6.4105                76.2889

                      7                      8                      9
                      A                      A                      A
 Frequencies --    309.9298               372.7075               386.9029
 Red. masses --      3.5147                 2.3895                 2.5297
 Frc consts  --      0.1989                 0.1956                 0.2231
 IR Inten    --      0.8134                14.3862                 5.8768

                     10                     11                     12
                      A                      A                      A
 Frequencies --    405.0413               460.3477               532.2705
 Red. masses --      2.2842                 1.5615                 3.2375
 Frc consts  --      0.2208                 0.1950                 0.5404
 IR Inten    --      6.3713                42.9772                33.7183

                     13                     14                     15
                      A                      A                      A
 Frequencies --    543.2170               578.2721               732.6175
 Red. masses --      3.5323                 3.4993                 4.0433
 Frc consts  --      0.6141                 0.6894                 1.2786
 IR Inten    --      8.4165                59.2075                 5.4255

                     16                     17                     18
                      A                      A                      A
 Frequencies --    900.2894               951.1346               990.3346
 Red. masses --      2.8493                 1.9556                 1.9196
 Frc consts  --      1.3607                 1.0423                 1.1093
 IR Inten    --     22.0305                49.0037                63.3102

                     19                     20                     21
                      A                      A                      A
 Frequencies --   1039.7397              1072.7774              1124.8546
 Red. masses --      1.9324                 1.4578                 1.4079
 Frc consts  --      1.2308                 0.9885                 1.0496
 IR Inten    --     54.4875                 8.2586                66.3720

                     22                     23                     24
                      A                      A                      A
 Frequencies --   1131.0669              1175.2649              1194.0810
 Red. masses --      1.7712                 2.9136                 1.5528
 Frc consts  --      1.3350                 2.3711                 1.3045
 IR Inten    --    128.6127                54.9348                34.7087

                     25                     26                     27
                      A                      A                      A
 Frequencies --   1269.2113              1302.0302              1340.7542
 Red. masses --      3.8763                 1.9587                 1.6414
 Frc consts  --      3.6790                 1.9565                 1.7385
 IR Inten    --     76.2358                40.2347                 3.6935

                     28                     29                     30
                      A                      A                      A
 Frequencies --   1388.3103              1426.9547              1436.7631
 Red. masses --      1.3487                 1.6447                 1.1430
 Frc consts  --      1.5316                 1.9732                 1.3901
 IR Inten    --     48.8207                99.5112                 0.4944

                     31                     32                     33
                      A                      A                      A
 Frequencies --   1467.0750              1484.0055              1487.7920
 Red. masses --      1.1635                 1.0628                 1.0515
 Frc consts  --      1.4754                 1.3790                 1.3713
 IR Inten    --     10.7850                 7.4677                 5.7736

                     34                     35                     36
                      A                      A                      A
 Frequencies --   1492.5988              1506.7737              1510.7038
 Red. masses --      1.0561                 1.0537                 1.0646
 Frc consts  --      1.3863                 1.4095                 1.4315
 IR Inten    --      4.3859                 2.1803                11.7420

                     37                     38                     39
                      A                      A                      A
 Frequencies --   1525.5709              2936.6136              2946.8352
 Red. masses --      1.0815                 1.0606                 1.0607
 Frc consts  --      1.4830                 5.3890                 5.4267
 IR Inten    --     11.7425                46.6119                97.6447

                     40                     41                     42
                      A                      A                      A
 Frequencies --   3050.6113              3063.0309              3066.6853
 Red. masses --      1.0365                 1.0778                 1.0770
 Frc consts  --      5.6829                 5.9578                 5.9674
 IR Inten    --     10.7936                21.5181                56.7966

                     43                     44                     45
                      A                      A                      A
 Frequencies --   3120.3057              3138.7987              3140.7588
 Red. masses --      1.0996                 1.0977                 1.1016
 Frc consts  --      6.3080                 6.3719                 6.4024
 IR Inten    --     20.1015                 3.3579                22.0166

                     46                     47                     48
                      A                      A                      A
 Frequencies --   3162.7406              3769.9810              3829.1507
 Red. masses --      1.0946                 1.0644                 1.0656
 Frc consts  --      6.4513                 8.9130                 9.2054
 IR Inten    --      8.0816                20.6357                27.4046

 - Thermochemistry -
 -------------------
 Temperature   298.150 Kelvin.  Pressure   1.00000 Atm.
 Atom     1 has atomic number  6 and mass  12.00000

 Molecular mass:   105.07898 amu.
 Principal axes and moments of inertia in atomic units:
                           1         2         3
     Eigenvalues --   544.47912 750.59581 899.83507
           X            0.99968  -0.01481  -0.02054
           Y            0.01498   0.99985   0.00824
           Z            0.02041  -0.00854   0.99976
 This molecule is an asymmetric top.
 Rotational symmetry number  1.
 Warning -- assumption of classical behavior for rotation
           may cause significant error
 Rotational temperatures (Kelvin)      0.15908     0.11539     0.09626
 Rotational constants (GHZ):           3.31462     2.40441     2.00564
 Zero-point vibrational energy     413186.3 (Joules/Mol)
                                   98.75389 (Kcal/Mol)
 Warning -- explicit consideration of  14 degrees of freedom as
           vibrations may cause significant error
 Vibrational temperatures:    134.41   298.22   314.92   368.55   373.61
          (Kelvin)            401.47   445.92   536.24   556.67   582.76
                              662.34   765.82   781.57   832.00  1054.07
                             1295.31  1368.47  1424.87  1495.95  1543.49
                             1618.41  1627.35  1690.94  1718.01  1826.11
                             1873.33  1929.04  1997.47  2053.07  2067.18
                             2110.79  2135.15  2140.60  2147.51  2167.91
                             2173.56  2194.95  4225.13  4239.83  4389.14
                             4407.01  4412.27  4489.42  4516.03  4518.85
                             4550.47  5424.16  5509.29

 Zero-point correction=                           0.157374 (Hartree/Particle)
 Thermal correction to Energy=                    0.166093
 Thermal correction to Enthalpy=                  0.167038
 Thermal correction to Gibbs Free Energy=         0.125347
 Sum of electronic and zero-point Energies=           -364.110635
 Sum of electronic and thermal Energies=              -364.101916
 Sum of electronic and thermal Enthalpies=            -364.100972
 Sum of electronic and thermal Free Energies=         -364.142663

                     E (Thermal)             CV                S
                      KCal/Mol        Cal/Mol-Kelvin    Cal/Mol-Kelvin
 Total                  104.225             32.605             87.746
 Electronic               0.000              0.000              0.000
 Translational            0.889              2.981             39.866
 Rotational               0.889              2.981             27.400
 Vibrational            102.448             26.644             20.481
 Vibration     1          0.602              1.954              3.587
 Vibration     2          0.641              1.829              2.068
 Vibration     3          0.647              1.812              1.968
 Vibration     4          0.666              1.752              1.688
 Vibration     5          0.668              1.746              1.664
 Vibration     6          0.679              1.712              1.540
 Vibration     7          0.699              1.655              1.363
 Vibration     8          0.744              1.528              1.069
 Vibration     9          0.755              1.498              1.012
 Vibration    10          0.770              1.459              0.944
 Vibration    11          0.818              1.338              0.765
 Vibration    12          0.887              1.179              0.582
 Vibration    13          0.898              1.155              0.558
 Vibration    14          0.935              1.078              0.489

 Optimization completed.
    -- Stationary point found.
 Normal termination of Gaussian 09 at Fri Aug 26 09:48:23 2022.

 -----------------------------------------------------------------
 #P Geom=AllCheck Guess=TCheck SCRF=Check CCSD(T,E4T,FrzG4)/GTBas1
 -----------------------------------------------------------------

 Structure from the checkpoint file:  "G4.Frag_660.chk"
 --------
 Frag_660
 --------
 Charge =  0 Multiplicity = 1

 SCF Done:  E(RHF) =  -362.028566296     A.U. after   11 cycles
 E2 =    -0.1051280159D+01 EUMP2 =    -0.36307984645475D+03
 CCSD(T)
 CCSD(T)= -0.36317125661D+03
 08\MP4SDTQ=-363.171311\MP4SDQ=-363.1400432\CCSD=-363.1405361\CCSD(T)=-
 Normal termination of Gaussian 09 at Fri Aug 26 09:53:00 2022.

 ---------------------------------------------------------
 #P Geom=AllCheck Guess=TCheck SCRF=Check MP4=FrzG4/GTBas2
 ---------------------------------------------------------

 Structure from the checkpoint file:  "G4.Frag_660.chk"
 --------
 Frag_660
 --------
 Charge =  0 Multiplicity = 1

 SCF Done:  E(RHF) =  -362.038967462     A.U. after   12 cycles
 E2 =    -0.1069232046D+01 EUMP2 =    -0.36310819950850D+03
 Normal termination of Gaussian 09 at Fri Aug 26 09:54:28 2022.

 ---------------------------------------------------------
 #P Geom=AllCheck Guess=TCheck SCRF=Check MP4=FrzG4/GTBas3
 ---------------------------------------------------------

 Structure from the checkpoint file:  "G4.Frag_660.chk"
 --------
 Frag_660
 --------
 Charge =  0 Multiplicity = 1

 SCF Done:  E(RHF) =  -362.077829293     A.U. after   10 cycles
 E2 =    -0.1308338889D+01 EUMP2 =    -0.36338616818150D+03
 Normal termination of Gaussian 09 at Fri Aug 26 10:05:54 2022.

 -----------------------------------------------------------
 #P Geom=AllCheck Guess=TCheck SCRF=Check MP2=Full/GTLargeXP
 -----------------------------------------------------------

 Structure from the checkpoint file:  "G4.Frag_660.chk"
 --------
 Frag_660
 --------
 Charge =  0 Multiplicity = 1

 SCF Done:  E(RHF) =  -362.171858132     A.U. after   11 cycles
 E2 =    -0.1707383947D+01 EUMP2 =    -0.36387924207951D+03
 Normal termination of Gaussian 09 at Fri Aug 26 10:09:49 2022.
 SCF Done:  E(RHF) =  -362.200521332     A.U. after    8 cycles
 Normal termination of Gaussian 09 at Fri Aug 26 10:13:37 2022.

                         Standard orientation:
 ---------------------------------------------------------------------
 Center     Atomic      Atomic             Coordinates (Angstroms)
 Number     Number       Type             X           Y           Z
 ---------------------------------------------------------------------
      1          6           0        1.539917    1.206854    0.048241
      2          7           0        0.809595    0.014910   -0.363910
      3          6           0        1.514031   -1.203821    0.010998
      4          6           0       -0.614656    0.002070   -0.051325
      5          6           0       -0.977784   -0.174992    1.429085
      6          8           0       -1.220333   -1.069130   -0.732863
      7          8           0       -1.103484    1.234009   -0.541241
      8          1           0        1.010308    2.100705   -0.276061
      9          1           0        1.700152    1.265082    1.140580
     10          1           0        2.527176    1.193580   -0.425366
     11          1           0        1.741919   -1.265367    1.090503
     12          1           0        0.920123   -2.075066   -0.267558
     13          1           0        2.466656   -1.245278   -0.527489
     14          1           0       -2.065345   -0.177138    1.549912
     15          1           0       -0.600360   -1.124271    1.815166
     16          1           0       -0.560437    0.644413    2.018390
     17          1           0       -0.939602   -0.971396   -1.652730
     18          1           0       -2.046260    1.250662   -0.347138
 ---------------------------------------------------------------------

 SCF Done:  E(RHF) =  -362.206897241     A.U. after    8 cycles

 The electronic state is 1-A.
 Alpha  occ. eigenvalues --  -20.56167 -20.55951 -15.54860 -11.36773 -11.24187
 Alpha  occ. eigenvalues --  -11.23844 -11.22025  -1.42379  -1.33612  -1.21367
 Alpha  occ. eigenvalues --   -1.00087  -0.94903  -0.89931  -0.78285  -0.73759
 Alpha  occ. eigenvalues --   -0.67846  -0.65275  -0.62997  -0.60688  -0.58106
 Alpha  occ. eigenvalues --   -0.56089  -0.55320  -0.53907  -0.52913  -0.51669
 Alpha  occ. eigenvalues --   -0.49740  -0.48737  -0.46403  -0.36124
 Alpha virt. eigenvalues --    0.03444   0.04083   0.04364   0.04636   0.06360
 Alpha virt. eigenvalues --    0.06657   0.06941   0.07046   0.07262   0.09564
 Alpha virt. eigenvalues --    0.09875   0.09994   0.10526   0.13205   0.14180

 Mulliken charges:
               1
     1  C   -0.550398
     2  N   -0.014417
     3  C   -0.535828
     4  C    0.590533
     5  C   -0.564961
     6  O   -0.618146
     7  O   -0.628159
     8  H    0.212128
     9  H    0.136705
    10  H    0.168556
    11  H    0.140232
    12  H    0.199572
    13  H    0.173430
    14  H    0.169231
    15  H    0.181141
    16  H    0.182473
    17  H    0.383090
    18  H    0.374817
 Sum of Mulliken charges =  -0.00000

 Dipole moment (field-independent basis, Debye):
    X=              0.1199    Y=              0.0117    Z=              0.9114  Tot=              0.9193
 Quadrupole moment (field-independent basis, Debye-Ang):
   XX=            -41.2480   YY=            -46.5649   ZZ=            -43.2585
   XY=             -2.7187   XZ=             -0.3748   YZ=              1.6182

 Normal termination of Gaussian 09 at Fri Aug 26 10:27:15 2022.
