 Gaussian 09, Revision E.01,
 Gaussian 09:  ES64L-G09RevE.01 30-Nov-2015

 -----
 #P G4
 -----

 --------
 Frag_905
 --------
 Symbolic Z-matrix:
 Charge =  0 Multiplicity = 1

 SCF Done:  E(RB3LYP) =  -264.450538440     A.U. after   15 cycles
 SCF Done:  E(RB3LYP) =  -264.475032762     A.U. after   13 cycles
 SCF Done:  E(RB3LYP) =  -264.478162337     A.U. after   13 cycles
 SCF Done:  E(RB3LYP) =  -264.478178709     A.U. after   13 cycles
 SCF Done:  E(RB3LYP) =  -264.478576306     A.U. after   13 cycles
 SCF Done:  E(RB3LYP) =  -264.478780911     A.U. after   12 cycles
 SCF Done:  E(RB3LYP) =  -264.479015066     A.U. after   13 cycles
 SCF Done:  E(RB3LYP) =  -264.479106481     A.U. after   15 cycles
 SCF Done:  E(RB3LYP) =  -264.479462336     A.U. after   12 cycles
 SCF Done:  E(RB3LYP) =  -264.479586045     A.U. after   12 cycles
 SCF Done:  E(RB3LYP) =  -264.479657951     A.U. after   13 cycles
 SCF Done:  E(RB3LYP) =  -264.479664568     A.U. after   11 cycles
 SCF Done:  E(RB3LYP) =  -264.479665212     A.U. after    8 cycles
 Optimization completed.
    -- Stationary point found.
 Normal termination of Gaussian 09 at Tue Aug 23 11:52:16 2022.

 ----------------------------------------------------------
 #P Geom=AllCheck Guess=TCheck SCRF=Check B3LYP/GTBas3 Freq
 ----------------------------------------------------------

 Structure from the checkpoint file:  "G4.Frag_905.chk"
 --------
 Frag_905
 --------
 Charge =  0 Multiplicity = 1

 SCF Done:  E(RB3LYP) =  -264.479665212     A.U. after    1 cycles

  Exact polarizability:  47.202  -4.572  46.216   2.740  -1.488  31.413
 Approx polarizability:  65.780 -15.201  87.988   6.971  -6.661  45.959

                      1                      2                      3
                      A                      A                      A
 Frequencies --     52.7679               224.8224               299.1269
 Red. masses --      2.6284                 1.0976                 3.2221
 Frc consts  --      0.0043                 0.0327                 0.1699
 IR Inten    --      0.4525                 1.1798                11.5996

                      4                      5                      6
                      A                      A                      A
 Frequencies --    485.3196               587.5722               677.2274
 Red. masses --      2.8939                 4.4724                 3.1424
 Frc consts  --      0.4016                 0.9097                 0.8491
 IR Inten    --      1.7926                 9.6719                12.8188

                      7                      8                      9
                      A                      A                      A
 Frequencies --    806.9734               814.3780               850.2572
 Red. masses --      1.1525                 1.2473                 4.8147
 Frc consts  --      0.4422                 0.4874                 2.0508
 IR Inten    --      3.5696                32.0539                 8.4055

                     10                     11                     12
                      A                      A                      A
 Frequencies --   1003.7894              1109.3917              1147.2587
 Red. masses --      2.1761                 2.0915                 1.5766
 Frc consts  --      1.2919                 1.5166                 1.2226
 IR Inten    --      2.0725                 4.7932                 3.7916

                     13                     14                     15
                      A                      A                      A
 Frequencies --   1274.1687              1304.1108              1361.5202
 Red. masses --      1.4875                 1.5548                 1.3232
 Frc consts  --      1.4229                 1.5579                 1.4452
 IR Inten    --     22.5438                86.9423                 3.2397

                     16                     17                     18
                      A                      A                      A
 Frequencies --   1402.1002              1461.9312              1481.5201
 Red. masses --      1.2344                 1.6465                 1.5443
 Frc consts  --      1.4298                 2.0733                 1.9971
 IR Inten    --      1.4953                81.2754                96.0978

                     19                     20                     21
                      A                      A                      A
 Frequencies --   1486.6669              1506.8342              1663.9189
 Red. masses --      1.0460                 1.0548                 4.0332
 Frc consts  --      1.3621                 1.4110                 6.5791
 IR Inten    --      6.7554                 5.5632               108.5779

                     22                     23                     24
                      A                      A                      A
 Frequencies --   3055.1421              3071.1734              3119.2061
 Red. masses --      1.0362                 1.0577                 1.1036
 Frc consts  --      5.6984                 5.8781                 6.3265
 IR Inten    --     13.0255                10.5911                 8.2372

                     25                     26                     27
                      A                      A                      A
 Frequencies --   3131.2224              3158.7289              3452.0488
 Red. masses --      1.1051                 1.1021                 1.0736
 Frc consts  --      6.3840                 6.4789                 7.5378
 IR Inten    --     12.9963                 6.7515                 1.0721

 - Thermochemistry -
 -------------------
 Temperature   298.150 Kelvin.  Pressure   1.00000 Atm.
 Atom     1 has atomic number  6 and mass  12.00000

 Molecular mass:    74.04801 amu.
 Principal axes and moments of inertia in atomic units:
                           1         2         3
     Eigenvalues --   188.67211 436.31923 557.22779
           X            0.99977  -0.01929  -0.00938
           Y            0.01947   0.99962   0.01953
           Z            0.00900  -0.01971   0.99977
 This molecule is an asymmetric top.
 Rotational symmetry number  1.
 Rotational temperatures (Kelvin)      0.45907     0.19851     0.15544
 Rotational constants (GHZ):           9.56549     4.13629     3.23879
 Zero-point vibrational energy     239188.4 (Joules/Mol)
                                   57.16740 (Kcal/Mol)
 Warning -- explicit consideration of   5 degrees of freedom as
           vibrations may cause significant error
 Vibrational temperatures:     75.92   323.47   430.38   698.27   845.38
          (Kelvin)            974.38  1161.05  1171.71  1223.33  1444.23
                             1596.17  1650.65  1833.24  1876.32  1958.92
                             2017.31  2103.39  2131.57  2138.98  2168.00
                             2394.01  4395.66  4418.73  4487.84  4505.13
                             4544.70  4966.72

 Zero-point correction=                           0.091102 (Hartree/Particle)
 Thermal correction to Energy=                    0.096592
 Thermal correction to Enthalpy=                  0.097536
 Thermal correction to Gibbs Free Energy=         0.062076
 Sum of electronic and zero-point Energies=           -264.388563
 Sum of electronic and thermal Energies=              -264.383073
 Sum of electronic and thermal Enthalpies=            -264.382129
 Sum of electronic and thermal Free Energies=         -264.417589

                     E (Thermal)             CV                S
                      KCal/Mol        Cal/Mol-Kelvin    Cal/Mol-Kelvin
 Total                   60.612             18.249             74.632
 Electronic               0.000              0.000              0.000
 Translational            0.889              2.981             38.822
 Rotational               0.889              2.981             25.331
 Vibrational             58.835             12.287             10.478
 Vibration     1          0.596              1.977              4.711
 Vibration     2          0.649              1.803              1.920
 Vibration     3          0.692              1.675              1.422
 Vibration     4          0.841              1.283              0.696
 Vibration     5          0.945              1.058              0.472

 Optimization completed.
    -- Stationary point found.
 Normal termination of Gaussian 09 at Tue Aug 23 11:53:29 2022.

 -----------------------------------------------------------------
 #P Geom=AllCheck Guess=TCheck SCRF=Check CCSD(T,E4T,FrzG4)/GTBas1
 -----------------------------------------------------------------

 Structure from the checkpoint file:  "G4.Frag_905.chk"
 --------
 Frag_905
 --------
 Charge =  0 Multiplicity = 1

 SCF Done:  E(RHF) =  -262.862472612     A.U. after   14 cycles
 E2 =    -0.7879366798D+00 EUMP2 =    -0.26365040929210D+03
 CCSD(T)
 CCSD(T)= -0.26370883439D+03
 9\MP4SDQ=-263.6799637\CCSD=-263.6781242\CCSD(T)=-263.7088344\RMSD=3.91
 Normal termination of Gaussian 09 at Tue Aug 23 11:55:21 2022.

 ---------------------------------------------------------
 #P Geom=AllCheck Guess=TCheck SCRF=Check MP4=FrzG4/GTBas2
 ---------------------------------------------------------

 Structure from the checkpoint file:  "G4.Frag_905.chk"
 --------
 Frag_905
 --------
 Charge =  0 Multiplicity = 1

 SCF Done:  E(RHF) =  -262.871942362     A.U. after   13 cycles
 E2 =    -0.7986787605D+00 EUMP2 =    -0.26367062112205D+03
 Normal termination of Gaussian 09 at Tue Aug 23 11:57:16 2022.

 ---------------------------------------------------------
 #P Geom=AllCheck Guess=TCheck SCRF=Check MP4=FrzG4/GTBas3
 ---------------------------------------------------------

 Structure from the checkpoint file:  "G4.Frag_905.chk"
 --------
 Frag_905
 --------
 Charge =  0 Multiplicity = 1

 SCF Done:  E(RHF) =  -262.896286026     A.U. after   13 cycles
 E2 =    -0.9548306499D+00 EUMP2 =    -0.26385111667640D+03
 Normal termination of Gaussian 09 at Tue Aug 23 12:32:24 2022.

 -----------------------------------------------------------
 #P Geom=AllCheck Guess=TCheck SCRF=Check MP2=Full/GTLargeXP
 -----------------------------------------------------------

 Structure from the checkpoint file:  "G4.Frag_905.chk"
 --------
 Frag_905
 --------
 Charge =  0 Multiplicity = 1

 SCF Done:  E(RHF) =  -262.966042332     A.U. after   13 cycles
 E2 =    -0.1237517643D+01 EUMP2 =    -0.26420355997436D+03
 Normal termination of Gaussian 09 at Tue Aug 23 12:34:47 2022.
 SCF Done:  E(RHF) =  -262.987574979     A.U. after   10 cycles
 Normal termination of Gaussian 09 at Tue Aug 23 12:38:05 2022.

                         Standard orientation:
 ---------------------------------------------------------------------
 Center     Atomic      Atomic             Coordinates (Angstroms)
 Number     Number       Type             X           Y           Z
 ---------------------------------------------------------------------
      1          6           0        1.827056   -0.037100   -0.317037
      2          6           0        0.668671    0.574891    0.455685
      3          7           0       -0.643168   -0.059785    0.050470
      4          7           0       -1.648308    0.637176   -0.288522
      5          8           0       -0.658464   -1.294401    0.095164
      6          1           0        2.769200    0.382555    0.045861
      7          1           0        1.837410   -1.118037   -0.173284
      8          1           0        1.743933    0.175826   -1.386532
      9          1           0        0.587787    1.652152    0.297251
     10          1           0        0.758588    0.377098    1.526920
     11          1           0       -1.363235    1.617127   -0.237052
 ---------------------------------------------------------------------

 SCF Done:  E(RHF) =  -262.992057924     A.U. after    8 cycles

 The electronic state is 1-A.
 Alpha  occ. eigenvalues --  -20.55410 -15.79157 -15.60728 -11.30977 -11.24587
 Alpha  occ. eigenvalues --   -1.52290  -1.27429  -1.09755  -0.94043  -0.83972
 Alpha  occ. eigenvalues --   -0.75620  -0.69884  -0.67157  -0.63833  -0.57941
 Alpha  occ. eigenvalues --   -0.55343  -0.53417  -0.48578  -0.44995  -0.39167
 Alpha virt. eigenvalues --    0.02935   0.03700   0.04539   0.05882   0.07072
 Alpha virt. eigenvalues --    0.07424   0.07782   0.09522   0.10082   0.10580
 Alpha virt. eigenvalues --    0.12672   0.13405   0.14086   0.14754   0.16929

 Mulliken charges:
               1
     1  C   -0.514530
     2  C   -0.234637
     3  N    0.449133
     4  N   -0.483388
     5  O   -0.483569
     6  H    0.177828
     7  H    0.224063
     8  H    0.178404
     9  H    0.188027
    10  H    0.208851
    11  H    0.289817
 Sum of Mulliken charges =  -0.00000

 Dipole moment (field-independent basis, Debye):
    X=              3.5394    Y=              3.8322    Z=              0.7568  Tot=              5.2712
 Quadrupole moment (field-independent basis, Debye-Ang):
   XX=            -34.2473   YY=            -31.0305   ZZ=            -30.1050
   XY=             -2.2632   XZ=             -0.5460   YZ=              0.4085

 CCSD(T)/G3Bas1=-263.7088344\MP2/GTBas2=-263.6706211\MP4/GTBas2=-263.73
 Normal termination of Gaussian 09 at Tue Aug 23 14:00:31 2022.
