 Gaussian 09, Revision E.01,
 Gaussian 09:  ES64L-G09RevE.01 30-Nov-2015

 -----
 #P G4
 -----

 --------
 Frag_713
 --------
 Symbolic Z-matrix:
 Charge =  0 Multiplicity = 1

 SCF Done:  E(RB3LYP) =  -300.421156661     A.U. after   14 cycles
 SCF Done:  E(RB3LYP) =  -300.437973395     A.U. after   12 cycles
 SCF Done:  E(RB3LYP) =  -300.439120808     A.U. after   12 cycles
 SCF Done:  E(RB3LYP) =  -300.439690535     A.U. after   12 cycles
 SCF Done:  E(RB3LYP) =  -300.440111027     A.U. after   12 cycles
 SCF Done:  E(RB3LYP) =  -300.441071931     A.U. after   10 cycles
 SCF Done:  E(RB3LYP) =  -300.443082877     A.U. after   12 cycles
 SCF Done:  E(RB3LYP) =  -300.444265530     A.U. after   12 cycles
 SCF Done:  E(RB3LYP) =  -300.445525489     A.U. after   13 cycles
 SCF Done:  E(RB3LYP) =  -300.446260487     A.U. after   12 cycles
 SCF Done:  E(RB3LYP) =  -300.449113572     A.U. after   10 cycles
 SCF Done:  E(RB3LYP) =  -300.449116958     A.U. after    8 cycles
 SCF Done:  E(RB3LYP) =  -300.449117459     A.U. after    8 cycles
 Optimization completed.
    -- Stationary point found.
 Normal termination of Gaussian 09 at Mon Aug 22 20:43:34 2022.

 ----------------------------------------------------------
 #P Geom=AllCheck Guess=TCheck SCRF=Check B3LYP/GTBas3 Freq
 ----------------------------------------------------------

 Structure from the checkpoint file:  "G4.Frag_713.chk"
 --------
 Frag_713
 --------
 Charge =  0 Multiplicity = 1

 SCF Done:  E(RB3LYP) =  -300.449117459     A.U. after    1 cycles

  Exact polarizability:  42.572   1.697  36.369  -0.045   0.191  19.694
 Approx polarizability:  57.843   2.392  61.198   1.447  -0.167  29.111

                      1                      2                      3
                      A                      A                      A
 Frequencies --    183.9499               311.7735               414.0975
 Red. masses --      4.2270                 4.5847                 1.1308
 Frc consts  --      0.0843                 0.2626                 0.1142
 IR Inten    --      9.1449                33.4284                33.6894

                      4                      5                      6
                      A                      A                      A
 Frequencies --    431.5391               465.0199               497.6171
 Red. masses --      1.1030                 2.5599                 1.5261
 Frc consts  --      0.1210                 0.3261                 0.2226
 IR Inten    --    139.0936                45.2749               127.3435

                      7                      8                      9
                      A                      A                      A
 Frequencies --    617.8183               705.2005               777.7214
 Red. masses --      1.7657                 3.5684                 5.3074
 Frc consts  --      0.3971                 1.0456                 1.8914
 IR Inten    --    100.6793                47.4021                85.4042

                     10                     11                     12
                      A                      A                      A
 Frequencies --    983.5070              1092.9365              1132.0498
 Red. masses --      2.2806                 4.0189                 2.4112
 Frc consts  --      1.2998                 2.8285                 1.8206
 IR Inten    --     32.0780                18.1206                 9.6447

                     13                     14                     15
                      A                      A                      A
 Frequencies --   1339.8717              1434.9670              1543.4460
 Red. masses --      1.4295                 2.1029                 1.2817
 Frc consts  --      1.5121                 2.5513                 1.7989
 IR Inten    --      9.9440               312.1291                33.6544

                     16                     17                     18
                      A                      A                      A
 Frequencies --   1622.6507              1799.7162              3528.7862
 Red. masses --      1.1937                 7.3392                 1.0758
 Frc consts  --      1.8518                14.0058                 7.8928
 IR Inten    --     91.7723               242.2793                10.1228

                     19                     20                     21
                      A                      A                      A
 Frequencies --   3564.7084              3582.0557              3697.2350
 Red. masses --      1.0655                 1.0463                 1.1005
 Frc consts  --      7.9770                 7.9097                 8.8632
 IR Inten    --     81.8791                37.0694                39.5128

 - Thermochemistry -
 -------------------
 Temperature   298.150 Kelvin.  Pressure   1.00000 Atm.
 Atom     1 has atomic number  7 and mass  14.00307

 Molecular mass:    76.02728 amu.
 Principal axes and moments of inertia in atomic units:
                           1         2         3
     Eigenvalues --   163.73575 417.96826 576.54895
           X            0.99928   0.03642  -0.01100
           Y           -0.03637   0.99932   0.00552
           Z            0.01120  -0.00511   0.99992
 This molecule is an asymmetric top.
 Rotational symmetry number  1.
 Rotational temperatures (Kelvin)      0.52899     0.20723     0.15023
 Rotational constants (GHZ):          11.02228     4.31789     3.13025
 Zero-point vibrational energy     177805.0 (Joules/Mol)
                                   42.49640 (Kcal/Mol)
 Warning -- explicit consideration of   7 degrees of freedom as
           vibrations may cause significant error
 Vibrational temperatures:    264.66   448.57   595.79   620.89   669.06
          (Kelvin)            715.96   888.90  1014.62  1118.97  1415.05
                             1572.49  1628.77  1927.77  2064.59  2220.67
                             2334.63  2589.39  5077.13  5128.81  5153.77
                             5319.49

 Zero-point correction=                           0.067722 (Hartree/Particle)
 Thermal correction to Energy=                    0.073057
 Thermal correction to Enthalpy=                  0.074001
 Thermal correction to Gibbs Free Energy=         0.039731
 Sum of electronic and zero-point Energies=           -300.381395
 Sum of electronic and thermal Energies=              -300.376060
 Sum of electronic and thermal Enthalpies=            -300.375116
 Sum of electronic and thermal Free Energies=         -300.409387

                     E (Thermal)             CV                S
                      KCal/Mol        Cal/Mol-Kelvin    Cal/Mol-Kelvin
 Total                   45.844             18.697             72.129
 Electronic               0.000              0.000              0.000
 Translational            0.889              2.981             38.901
 Rotational               0.889              2.981             25.182
 Vibrational             44.067             12.736              8.046
 Vibration     1          0.631              1.862              2.288
 Vibration     2          0.700              1.651              1.353
 Vibration     3          0.778              1.440              0.912
 Vibration     4          0.793              1.402              0.854
 Vibration     5          0.822              1.328              0.752
 Vibration     6          0.853              1.255              0.664
 Vibration     7          0.978              0.994              0.420

 Optimization completed.
    -- Stationary point found.
 Normal termination of Gaussian 09 at Mon Aug 22 20:44:26 2022.

 -----------------------------------------------------------------
 #P Geom=AllCheck Guess=TCheck SCRF=Check CCSD(T,E4T,FrzG4)/GTBas1
 -----------------------------------------------------------------

 Structure from the checkpoint file:  "G4.Frag_713.chk"
 --------
 Frag_713
 --------
 Charge =  0 Multiplicity = 1

 SCF Done:  E(RHF) =  -298.769097052     A.U. after   13 cycles
 E2 =    -0.8054248273D+00 EUMP2 =    -0.29957452187917D+03
 CCSD(T)
 CCSD(T)= -0.29962244603D+03
 \CCSD=-299.5981443\CCSD(T)=-299.622446\RMSD=8.309e-09\PG=C01 [X(C1H4N2
 Normal termination of Gaussian 09 at Mon Aug 22 20:45:54 2022.

 ---------------------------------------------------------
 #P Geom=AllCheck Guess=TCheck SCRF=Check MP4=FrzG4/GTBas2
 ---------------------------------------------------------

 Structure from the checkpoint file:  "G4.Frag_713.chk"
 --------
 Frag_713
 --------
 Charge =  0 Multiplicity = 1

 SCF Done:  E(RHF) =  -298.780454280     A.U. after   12 cycles
 E2 =    -0.8198622051D+00 EUMP2 =    -0.29960031648540D+03
 Normal termination of Gaussian 09 at Mon Aug 22 20:47:13 2022.

 ---------------------------------------------------------
 #P Geom=AllCheck Guess=TCheck SCRF=Check MP4=FrzG4/GTBas3
 ---------------------------------------------------------

 Structure from the checkpoint file:  "G4.Frag_713.chk"
 --------
 Frag_713
 --------
 Charge =  0 Multiplicity = 1

 SCF Done:  E(RHF) =  -298.810555183     A.U. after   12 cycles
 E2 =    -0.9815791596D+00 EUMP2 =    -0.29979213434289D+03
 Normal termination of Gaussian 09 at Mon Aug 22 21:14:39 2022.

 -----------------------------------------------------------
 #P Geom=AllCheck Guess=TCheck SCRF=Check MP2=Full/GTLargeXP
 -----------------------------------------------------------

 Structure from the checkpoint file:  "G4.Frag_713.chk"
 --------
 Frag_713
 --------
 Charge =  0 Multiplicity = 1

 SCF Done:  E(RHF) =  -298.897216883     A.U. after   12 cycles
 E2 =    -0.1277784468D+01 EUMP2 =    -0.30017500135035D+03
 Normal termination of Gaussian 09 at Mon Aug 22 21:16:22 2022.
 SCF Done:  E(RHF) =  -298.921822429     A.U. after    9 cycles
 Normal termination of Gaussian 09 at Mon Aug 22 21:18:44 2022.

                         Standard orientation:
 ---------------------------------------------------------------------
 Center     Atomic      Atomic             Coordinates (Angstroms)
 Number     Number       Type             X           Y           Z
 ---------------------------------------------------------------------
      1          7           0       -1.693064   -0.481311   -0.082199
      2          6           0       -0.465102    0.130868    0.010968
      3          8           0       -0.287905    1.337260    0.005282
      4          7           0        0.606335   -0.758421    0.116438
      5          8           0        1.851596   -0.107735   -0.008332
      6          1           0       -2.470749    0.143651    0.064790
      7          1           0       -1.792686   -1.391068    0.341986
      8          1           0        0.577934   -1.518559   -0.555785
      9          1           0        1.573692    0.822689   -0.132066
 ---------------------------------------------------------------------

 SCF Done:  E(RHF) =  -298.926988430     A.U. after    8 cycles

 The electronic state is 1-A.
 Alpha  occ. eigenvalues --  -20.59811 -20.54441 -15.64101 -15.60311 -11.39986
 Alpha  occ. eigenvalues --   -1.45562  -1.38598  -1.24504  -1.12717  -0.84333
 Alpha  occ. eigenvalues --   -0.77838  -0.72934  -0.69499  -0.65015  -0.61961
 Alpha  occ. eigenvalues --   -0.57312  -0.55673  -0.48015  -0.45185  -0.41403
 Alpha virt. eigenvalues --    0.03103   0.05019   0.05580   0.06280   0.08736
 Alpha virt. eigenvalues --    0.09207   0.10396   0.10619   0.11230   0.12354
 Alpha virt. eigenvalues --    0.14234   0.15498   0.16327   0.16898   0.17526

 Mulliken charges:
               1
     1  N   -0.689499
     2  C    0.670907
     3  O   -0.642804
     4  N   -0.281859
     5  O   -0.486581
     6  H    0.352951
     7  H    0.333888
     8  H    0.333870
     9  H    0.409127
 Sum of Mulliken charges =  -0.00000

 Dipole moment (field-independent basis, Debye):
    X=             -2.7961    Y=             -2.6485    Z=             -0.3637  Tot=              3.8685
 Quadrupole moment (field-independent basis, Debye-Ang):
   XX=            -27.0695   YY=            -28.8904   ZZ=            -30.2589
   XY=              3.4126   XZ=             -2.9838   YZ=              0.5895

 Normal termination of Gaussian 09 at Mon Aug 22 22:23:46 2022.
