 Gaussian 09, Revision E.01,
 Gaussian 09:  ES64L-G09RevE.01 30-Nov-2015

 -----
 #P G4
 -----

 --------
 Frag_574
 --------
 Symbolic Z-matrix:
 Charge =  0 Multiplicity = 1

 SCF Done:  E(RB3LYP) =  -189.268775442     A.U. after   12 cycles
 SCF Done:  E(RB3LYP) =  -189.270360968     A.U. after   12 cycles
 SCF Done:  E(RB3LYP) =  -189.273262944     A.U. after   10 cycles
 SCF Done:  E(RB3LYP) =  -189.273645880     A.U. after   10 cycles
 SCF Done:  E(RB3LYP) =  -189.273673738     A.U. after    8 cycles
 SCF Done:  E(RB3LYP) =  -189.273677117     A.U. after    8 cycles
 SCF Done:  E(RB3LYP) =  -189.273677123     A.U. after    7 cycles
 SCF Done:  E(RB3LYP) =  -189.273677363     A.U. after    7 cycles
 Optimization completed.
    -- Stationary point found.
 Normal termination of Gaussian 09 at Fri Aug 26 09:31:49 2022.

 ----------------------------------------------------------
 #P Geom=AllCheck Guess=TCheck SCRF=Check B3LYP/GTBas3 Freq
 ----------------------------------------------------------

 Structure from the checkpoint file:  "G4.Frag_574.chk"
 --------
 Frag_574
 --------
 Charge =  0 Multiplicity = 1

 SCF Done:  E(RB3LYP) =  -189.273677363     A.U. after    1 cycles

  Exact polarizability:  48.635  -0.000  33.612   0.000   0.000  28.255
 Approx polarizability:  70.393  -0.000  49.589   0.000   0.000  41.873

                      1                      2                      3
                      A                      A                      A
 Frequencies --     81.3225               190.9647               366.0322
 Red. masses --      1.0398                 1.0737                 2.5438
 Frc consts  --      0.0041                 0.0231                 0.2008
 IR Inten    --      0.0000                 0.0534                 0.7745

                      4                      5                      6
                      A                      A                      A
 Frequencies --    479.5707               629.9592               864.6495
 Red. masses --      3.1194                 2.4680                 5.9659
 Frc consts  --      0.4227                 0.5771                 2.6279
 IR Inten    --      0.0000                 0.5245                 0.0498

                      7                      8                      9
                      A                      A                      A
 Frequencies --    939.7780               940.2842              1090.4721
 Red. masses --      1.2257                 6.4035                 1.5283
 Frc consts  --      0.6378                 3.3357                 1.0707
 IR Inten    --      1.8998                18.1833                 0.0000

                     10                     11                     12
                      A                      A                      A
 Frequencies --   1097.1418              1178.7403              1382.0109
 Red. masses --      1.3319                 1.7687                 1.1687
 Frc consts  --      0.9446                 1.4479                 1.3151
 IR Inten    --      3.7791                19.1005                 3.8319

                     13                     14                     15
                      A                      A                      A
 Frequencies --   1398.4001              1461.0413              1472.6544
 Red. masses --      1.1486                 1.0482                 1.0801
 Frc consts  --      1.3233                 1.3183                 1.3801
 IR Inten    --     16.6801                 8.4984                 0.2487

                     16                     17                     18
                      A                      A                      A
 Frequencies --   1480.7961              1505.1137              1666.8737
 Red. masses --      1.0476                 1.0521                 8.7044
 Frc consts  --      1.3534                 1.4043                14.2494
 IR Inten    --      0.0000                17.3446                11.3403

                     19                     20                     21
                      A                      A                      A
 Frequencies --   3016.8485              3017.5151              3081.0377
 Red. masses --      1.0368                 1.0352                 1.1007
 Frc consts  --      5.5599                 5.5538                 6.1560
 IR Inten    --      1.7640                13.0086                31.0470

                     22                     23                     24
                      A                      A                      A
 Frequencies --   3086.3293              3143.8357              3144.9544
 Red. masses --      1.1014                 1.0999                 1.0995
 Frc consts  --      6.1813                 6.4052                 6.4072
 IR Inten    --      0.0000                34.7837                 1.1459

 - Thermochemistry -
 -------------------
 Temperature   298.150 Kelvin.  Pressure   1.00000 Atm.
 Atom     1 has atomic number  6 and mass  12.00000

 Molecular mass:    58.05310 amu.
 Principal axes and moments of inertia in atomic units:
                           1         2         3
     Eigenvalues --   110.26035 268.51440 356.09742
           X            1.00000   0.00000   0.00000
           Y           -0.00000   1.00000   0.00000
           Z           -0.00000  -0.00000   1.00000
 This molecule is an asymmetric top.
 Rotational symmetry number  1.
 Rotational temperatures (Kelvin)      0.78554     0.32257     0.24323
 Rotational constants (GHZ):          16.36800     6.72121     5.06811
 Zero-point vibrational energy     219612.4 (Joules/Mol)
                                   52.48862 (Kcal/Mol)
 Warning -- explicit consideration of   4 degrees of freedom as
           vibrations may cause significant error
 Vibrational temperatures:    117.00   274.76   526.64   689.99   906.37
          (Kelvin)           1244.04  1352.13  1352.86  1568.94  1578.54
                             1695.94  1988.40  2011.98  2102.11  2118.82
                             2130.53  2165.52  2398.26  4340.57  4341.53
                             4432.92  4440.53  4523.27  4524.88

 Zero-point correction=                           0.083646 (Hartree/Particle)
 Thermal correction to Energy=                    0.088815
 Thermal correction to Enthalpy=                  0.089760
 Thermal correction to Gibbs Free Energy=         0.056063
 Sum of electronic and zero-point Energies=           -189.190031
 Sum of electronic and thermal Energies=              -189.184862
 Sum of electronic and thermal Enthalpies=            -189.183918
 Sum of electronic and thermal Free Energies=         -189.217614

                     E (Thermal)             CV                S
                      KCal/Mol        Cal/Mol-Kelvin    Cal/Mol-Kelvin
 Total                   55.733             16.401             70.920
 Electronic               0.000              0.000              0.000
 Translational            0.889              2.981             38.097
 Rotational               0.889              2.981             23.870
 Vibrational             53.955             10.439              8.952
 Vibration     1          0.600              1.962              3.859
 Vibration     2          0.634              1.852              2.218
 Vibration     3          0.739              1.542              1.096
 Vibration     4          0.836              1.295              0.711

 Optimization completed.
    -- Stationary point found.
 Normal termination of Gaussian 09 at Fri Aug 26 09:32:03 2022.

 -----------------------------------------------------------------
 #P Geom=AllCheck Guess=TCheck SCRF=Check CCSD(T,E4T,FrzG4)/GTBas1
 -----------------------------------------------------------------

 Structure from the checkpoint file:  "G4.Frag_574.chk"
 --------
 Frag_574
 --------
 Charge =  0 Multiplicity = 1

 SCF Done:  E(RHF) =  -188.047611244     A.U. after   11 cycles
 E2 =    -0.5870430249D+00 EUMP2 =    -0.18863465426897D+03
 CCSD(T)
 CCSD(T)= -0.18869485513D+03
 Normal termination of Gaussian 09 at Fri Aug 26 09:32:25 2022.

 ---------------------------------------------------------
 #P Geom=AllCheck Guess=TCheck SCRF=Check MP4=FrzG4/GTBas2
 ---------------------------------------------------------

 Structure from the checkpoint file:  "G4.Frag_574.chk"
 --------
 Frag_574
 --------
 Charge =  0 Multiplicity = 1

 SCF Done:  E(RHF) =  -188.052566106     A.U. after   10 cycles
 E2 =    -0.5938974694D+00 EUMP2 =    -0.18864646357507D+03
 Normal termination of Gaussian 09 at Fri Aug 26 09:32:32 2022.

 ---------------------------------------------------------
 #P Geom=AllCheck Guess=TCheck SCRF=Check MP4=FrzG4/GTBas3
 ---------------------------------------------------------

 Structure from the checkpoint file:  "G4.Frag_574.chk"
 --------
 Frag_574
 --------
 Charge =  0 Multiplicity = 1

 SCF Done:  E(RHF) =  -188.070295928     A.U. after   10 cycles
 E2 =    -0.7132012861D+00 EUMP2 =    -0.18878349721390D+03
 Normal termination of Gaussian 09 at Fri Aug 26 09:33:03 2022.

 -----------------------------------------------------------
 #P Geom=AllCheck Guess=TCheck SCRF=Check MP2=Full/GTLargeXP
 -----------------------------------------------------------

 Structure from the checkpoint file:  "G4.Frag_574.chk"
 --------
 Frag_574
 --------
 Charge =  0 Multiplicity = 1

 SCF Done:  E(RHF) =  -188.115717281     A.U. after   10 cycles
 E2 =    -0.9321351980D+00 EUMP2 =    -0.18904785247932D+03
 Normal termination of Gaussian 09 at Fri Aug 26 09:33:22 2022.
 SCF Done:  E(RHF) =  -188.130449676     A.U. after    8 cycles
 Normal termination of Gaussian 09 at Fri Aug 26 09:33:49 2022.

                         Standard orientation:
 ---------------------------------------------------------------------
 Center     Atomic      Atomic             Coordinates (Angstroms)
 Number     Number       Type             X           Y           Z
 ---------------------------------------------------------------------
      1          6           0        1.359591    0.500348   -0.000000
      2          7           0        0.619073   -0.781167   -0.000002
      3          7           0       -0.619071   -0.781167    0.000002
      4          6           0       -1.359593    0.500347    0.000000
      5          1           0        1.121569    1.099322   -0.887464
      6          1           0        1.121616    1.099285    0.887501
      7          1           0        2.424476    0.267477   -0.000031
      8          1           0       -1.121572    1.099321    0.887463
      9          1           0       -2.424477    0.267474    0.000031
     10          1           0       -1.121618    1.099284   -0.887501
 ---------------------------------------------------------------------

 SCF Done:  E(RHF) =  -188.133491636     A.U. after    7 cycles

 The electronic state is 1-A.
 Alpha  occ. eigenvalues --  -15.61801 -15.61663 -11.25998 -11.25997  -1.35245
 Alpha  occ. eigenvalues --   -1.04532  -0.97390  -0.77535  -0.66790  -0.64970
 Alpha  occ. eigenvalues --   -0.63942  -0.57017  -0.56080  -0.50362  -0.45845
 Alpha  occ. eigenvalues --   -0.36957
 Alpha virt. eigenvalues --    0.03984   0.04028   0.05164   0.05824   0.06764
 Alpha virt. eigenvalues --    0.07218   0.07854   0.11536   0.11787   0.11984
 Alpha virt. eigenvalues --    0.12837   0.14637   0.15485   0.16838   0.17512

 Mulliken charges:
               1
     1  C   -0.418833
     2  N   -0.133286
     3  N   -0.133285
     4  C   -0.418833
     5  H    0.178046
     6  H    0.178047
     7  H    0.196025
     8  H    0.178046
     9  H    0.196025
    10  H    0.178047
 Sum of Mulliken charges =  -0.00000

 Dipole moment (field-independent basis, Debye):
    X=             -0.0000    Y=              3.3541    Z=             -0.0000  Tot=              3.3541
 Quadrupole moment (field-independent basis, Debye-Ang):
   XX=            -23.5109   YY=            -29.4427   ZZ=            -24.8646
   XY=              0.0000   XZ=              0.0000   YZ=              0.0000

 Normal termination of Gaussian 09 at Fri Aug 26 09:36:32 2022.
