 Gaussian 09, Revision E.01,
 Gaussian 09:  ES64L-G09RevE.01 30-Nov-2015

 -----
 #P G4
 -----

 --------
 Frag_992
 --------
 Symbolic Z-matrix:
 Charge =  0 Multiplicity = 1

 SCF Done:  E(RB3LYP) =  -364.165024716     A.U. after   13 cycles
 SCF Done:  E(RB3LYP) =  -364.170451090     A.U. after   11 cycles
 SCF Done:  E(RB3LYP) =  -364.171309758     A.U. after   10 cycles
 SCF Done:  E(RB3LYP) =  -364.171606801     A.U. after   10 cycles
 SCF Done:  E(RB3LYP) =  -364.171624904     A.U. after    8 cycles
 SCF Done:  E(RB3LYP) =  -364.171627759     A.U. after    7 cycles
 Optimization completed.
    -- Stationary point found.
 Normal termination of Gaussian 09 at Fri Aug 26 11:25:36 2022.

 ----------------------------------------------------------
 #P Geom=AllCheck Guess=TCheck SCRF=Check B3LYP/GTBas3 Freq
 ----------------------------------------------------------

 Structure from the checkpoint file:  "G4.Frag_992.chk"
 --------
 Frag_992
 --------
 Charge =  0 Multiplicity = 1

 SCF Done:  E(RB3LYP) =  -364.171627759     A.U. after    1 cycles

  Exact polarizability:  62.497  -0.000  62.567  -2.213   0.000  59.035
 Approx polarizability:  86.836  -0.000  91.010  -1.131   0.000  87.443

                      1                      2                      3
                      A                      A                      A
 Frequencies --     86.9078               191.1164               234.7386
 Red. masses --      2.5921                 1.1930                 1.0560
 Frc consts  --      0.0115                 0.0257                 0.0343
 IR Inten    --      3.6415                 1.7287                 0.3580

                      4                      5                      6
                      A                      A                      A
 Frequencies --    237.1652               273.0517               305.2767
 Red. masses --      1.0427                 2.9851                 2.7982
 Frc consts  --      0.0346                 0.1311                 0.1536
 IR Inten    --      2.5868                 1.1603                 4.3737

                      7                      8                      9
                      A                      A                      A
 Frequencies --    314.0604               362.3025               366.7581
 Red. masses --      1.2401                 2.1178                 2.6516
 Frc consts  --      0.0721                 0.1638                 0.2101
 IR Inten    --     28.1704                 3.5481                 0.4474

                     10                     11                     12
                      A                      A                      A
 Frequencies --    389.5521               454.7620               508.6173
 Red. masses --      2.4529                 1.3067                 3.5700
 Frc consts  --      0.2193                 0.1592                 0.5441
 IR Inten    --     15.0474                72.8094                 0.0206

                     13                     14                     15
                      A                      A                      A
 Frequencies --    553.9100               591.8856               713.2611
 Red. masses --      2.2160                 3.6197                 5.2121
 Frc consts  --      0.4006                 0.7471                 1.5623
 IR Inten    --     78.6860                24.2644                 1.9547

                     16                     17                     18
                      A                      A                      A
 Frequencies --    812.1685               920.1340               926.8011
 Red. masses --      2.9422                 1.6433                 1.5878
 Frc consts  --      1.1434                 0.8197                 0.8036
 IR Inten    --      9.9244                 0.6952                 7.5989

                     19                     20                     21
                      A                      A                      A
 Frequencies --    954.6629               960.4011              1023.0165
 Red. masses --      3.1220                 1.5746                 5.1343
 Frc consts  --      1.6764                 0.8557                 3.1659
 IR Inten    --     46.7010                12.7964                29.6912

                     22                     23                     24
                      A                      A                      A
 Frequencies --   1035.5846              1049.6853              1237.4764
 Red. masses --      1.5466                 1.4997                 2.4585
 Frc consts  --      0.9773                 0.9736                 2.2182
 IR Inten    --      1.8909                 8.5223                14.9605

                     25                     26                     27
                      A                      A                      A
 Frequencies --   1254.0387              1267.0268              1346.8658
 Red. masses --      2.7538                 2.9373                 1.1140
 Frc consts  --      2.5515                 2.7783                 1.1906
 IR Inten    --     10.9681                 0.2723                40.5818

                     28                     29                     30
                      A                      A                      A
 Frequencies --   1387.5098              1397.3910              1423.8239
 Red. masses --      1.2493                 1.2624                 1.2261
 Frc consts  --      1.4170                 1.4524                 1.4644
 IR Inten    --     10.9392                10.7096                 9.1673

                     31                     32                     33
                      A                      A                      A
 Frequencies --   1467.7469              1470.4749              1486.3440
 Red. masses --      1.1943                 1.0483                 1.0950
 Frc consts  --      1.5158                 1.3355                 1.4253
 IR Inten    --     34.4713                 0.0575                17.1668

                     34                     35                     36
                      A                      A                      A
 Frequencies --   1489.2570              1492.3848              1509.4260
 Red. masses --      1.0443                 1.0595                 1.0528
 Frc consts  --      1.3646                 1.3904                 1.4133
 IR Inten    --      0.4748                 5.5481                 7.7308

                     37                     38                     39
                      A                      A                      A
 Frequencies --   1519.9986              3025.0231              3045.3934
 Red. masses --      1.0621                 1.0385                 1.0359
 Frc consts  --      1.4458                 5.5993                 5.6606
 IR Inten    --      7.2637                20.1019                11.9000

                     40                     41                     42
                      A                      A                      A
 Frequencies --   3051.3181              3086.0338              3110.7216
 Red. masses --      1.0365                 1.1012                 1.0966
 Frc consts  --      5.6859                 6.1788                 6.2518
 IR Inten    --     15.1876                26.8279                 6.3200

                     43                     44                     45
                      A                      A                      A
 Frequencies --   3117.0737              3123.8769              3135.6399
 Red. masses --      1.1015                 1.1006                 1.1013
 Frc consts  --      6.3054                 6.3283                 6.3800
 IR Inten    --      1.8397                37.8759                15.4014

                     46                     47                     48
                      A                      A                      A
 Frequencies --   3137.2325              3600.6484              3612.2434
 Red. masses --      1.1011                 1.0646                 1.0671
 Frc consts  --      6.3854                 8.1319                 8.2035
 IR Inten    --     19.3937                 4.7732                 1.8206

 - Thermochemistry -
 -------------------
 Temperature   298.150 Kelvin.  Pressure   1.00000 Atm.
 Atom     1 has atomic number  6 and mass  12.00000

 Molecular mass:   105.07898 amu.
 Principal axes and moments of inertia in atomic units:
                           1         2         3
     Eigenvalues --   567.11744 756.54257 901.67378
           X            0.99912  -0.00000  -0.04194
           Y            0.00000   1.00000   0.00000
           Z            0.04194  -0.00000   0.99912
 This molecule is an asymmetric top.
 Rotational symmetry number  1.
 Warning -- assumption of classical behavior for rotation
           may cause significant error
 Rotational temperatures (Kelvin)      0.15273     0.11449     0.09606
 Rotational constants (GHZ):           3.18231     2.38551     2.00155
 Zero-point vibrational energy     407093.9 (Joules/Mol)
                                   97.29778 (Kcal/Mol)
 Warning -- explicit consideration of  14 degrees of freedom as
           vibrations may cause significant error
 Vibrational temperatures:    125.04   274.97   337.74   341.23   392.86
          (Kelvin)            439.22   451.86   521.27   527.68   560.48
                              654.30   731.79   796.95   851.59  1026.22
                             1168.53  1323.87  1333.46  1373.55  1381.80
                             1471.89  1489.97  1510.26  1780.45  1804.28
                             1822.97  1937.84  1996.31  2010.53  2048.56
                             2111.76  2115.68  2138.51  2142.71  2147.21
                             2171.72  2186.94  4352.33  4381.64  4390.16
                             4440.11  4475.63  4484.77  4494.56  4511.48
                             4513.77  5180.52  5197.21

 Zero-point correction=                           0.155054 (Hartree/Particle)
 Thermal correction to Energy=                    0.163918
 Thermal correction to Enthalpy=                  0.164862
 Thermal correction to Gibbs Free Energy=         0.122894
 Sum of electronic and zero-point Energies=           -364.016574
 Sum of electronic and thermal Energies=              -364.007710
 Sum of electronic and thermal Enthalpies=            -364.006766
 Sum of electronic and thermal Free Energies=         -364.048733

                     E (Thermal)             CV                S
                      KCal/Mol        Cal/Mol-Kelvin    Cal/Mol-Kelvin
 Total                  102.860             33.469             88.328
 Electronic               0.000              0.000              0.000
 Translational            0.889              2.981             39.866
 Rotational               0.889              2.981             27.450
 Vibrational            101.082             27.507             21.012
 Vibration     1          0.601              1.958              3.729
 Vibration     2          0.634              1.852              2.217
 Vibration     3          0.655              1.788              1.842
 Vibration     4          0.656              1.784              1.824
 Vibration     5          0.676              1.723              1.577
 Vibration     6          0.696              1.664              1.388
 Vibration     7          0.702              1.647              1.341
 Vibration     8          0.736              1.550              1.112
 Vibration     9          0.740              1.541              1.093
 Vibration    10          0.757              1.493              1.002
 Vibration    11          0.813              1.350              0.782
 Vibration    12          0.864              1.231              0.637
 Vibration    13          0.909              1.131              0.536
 Vibration    14          0.949              1.049              0.464

 Optimization completed.
    -- Stationary point found.
 Normal termination of Gaussian 09 at Fri Aug 26 11:26:31 2022.

 -----------------------------------------------------------------
 #P Geom=AllCheck Guess=TCheck SCRF=Check CCSD(T,E4T,FrzG4)/GTBas1
 -----------------------------------------------------------------

 Structure from the checkpoint file:  "G4.Frag_992.chk"
 --------
 Frag_992
 --------
 Charge =  0 Multiplicity = 1

 SCF Done:  E(RHF) =  -361.914103610     A.U. after   12 cycles
 E2 =    -0.1063169653D+01 EUMP2 =    -0.36297727326279D+03
 CCSD(T)
 CCSD(T)= -0.36307336052D+03
 74\CCSD(T)=-363.0733605\RMSD=7.835e-09\PG=C01 [X(C4H11N1O2)]\\@
 Normal termination of Gaussian 09 at Fri Aug 26 11:31:34 2022.

 ---------------------------------------------------------
 #P Geom=AllCheck Guess=TCheck SCRF=Check MP4=FrzG4/GTBas2
 ---------------------------------------------------------

 Structure from the checkpoint file:  "G4.Frag_992.chk"
 --------
 Frag_992
 --------
 Charge =  0 Multiplicity = 1

 SCF Done:  E(RHF) =  -361.923089732     A.U. after   12 cycles
 E2 =    -0.1079279231D+01 EUMP2 =    -0.36300236896287D+03
 Normal termination of Gaussian 09 at Fri Aug 26 11:33:06 2022.

 ---------------------------------------------------------
 #P Geom=AllCheck Guess=TCheck SCRF=Check MP4=FrzG4/GTBas3
 ---------------------------------------------------------

 Structure from the checkpoint file:  "G4.Frag_992.chk"
 --------
 Frag_992
 --------
 Charge =  0 Multiplicity = 1

 SCF Done:  E(RHF) =  -361.964595075     A.U. after   11 cycles
 E2 =    -0.1318455554D+01 EUMP2 =    -0.36328305062882D+03
 Normal termination of Gaussian 09 at Fri Aug 26 11:45:20 2022.

 -----------------------------------------------------------
 #P Geom=AllCheck Guess=TCheck SCRF=Check MP2=Full/GTLargeXP
 -----------------------------------------------------------

 Structure from the checkpoint file:  "G4.Frag_992.chk"
 --------
 Frag_992
 --------
 Charge =  0 Multiplicity = 1

 SCF Done:  E(RHF) =  -362.057085248     A.U. after   12 cycles
 E2 =    -0.1717671138D+01 EUMP2 =    -0.36377475638578D+03
 Normal termination of Gaussian 09 at Fri Aug 26 11:49:56 2022.
 SCF Done:  E(RHF) =  -362.086558945     A.U. after    9 cycles
 Normal termination of Gaussian 09 at Fri Aug 26 11:54:03 2022.

                         Standard orientation:
 ---------------------------------------------------------------------
 Center     Atomic      Atomic             Coordinates (Angstroms)
 Number     Number       Type             X           Y           Z
 ---------------------------------------------------------------------
      1          6           0        0.616327   -0.000008    1.549237
      2          6           0        0.583003    0.000000    0.007433
      3          6           0        1.269975    1.257322   -0.542179
      4          6           0        1.269981   -1.257313   -0.542191
      5          7           0       -0.808378   -0.000001   -0.558249
      6          8           0       -1.521333    1.139791   -0.145798
      7          8           0       -1.521332   -1.139793   -0.145798
      8          1           0        1.655556   -0.000006    1.888544
      9          1           0        0.146987    0.891085    1.981746
     10          1           0        0.146992   -0.891109    1.981735
     11          1           0        0.804557    2.166354   -0.156839
     12          1           0        2.327476    1.257391   -0.261562
     13          1           0        1.198720    1.277071   -1.632852
     14          1           0        2.327480   -1.257383   -0.261569
     15          1           0        1.198731   -1.277050   -1.632864
     16          1           0        0.804562   -2.166351   -0.156864
     17          1           0       -1.523399    1.155571    0.828619
     18          1           0       -1.523413   -1.155562    0.828619
 ---------------------------------------------------------------------

 SCF Done:  E(RHF) =  -362.092971753     A.U. after    8 cycles

 The electronic state is 1-A.
 Alpha  occ. eigenvalues --  -20.59480 -20.59477 -15.66697 -11.28172 -11.23995
 Alpha  occ. eigenvalues --  -11.21900 -11.21898  -1.47019  -1.34426  -1.13347
 Alpha  occ. eigenvalues --   -0.99734  -0.95181  -0.94125  -0.79148  -0.72641
 Alpha  occ. eigenvalues --   -0.69339  -0.66615  -0.63066  -0.61374  -0.56947
 Alpha  occ. eigenvalues --   -0.56836  -0.54963  -0.54351  -0.52883  -0.50264
 Alpha  occ. eigenvalues --   -0.48852  -0.47871  -0.47361  -0.40906
 Alpha virt. eigenvalues --    0.02710   0.03859   0.04077   0.05159   0.06538
 Alpha virt. eigenvalues --    0.06990   0.07122   0.07648   0.08286   0.09650
 Alpha virt. eigenvalues --    0.10191   0.10689   0.10747   0.12773   0.12957

 Mulliken charges:
               1
     1  C   -0.615946
     2  C    0.342077
     3  C   -0.571632
     4  C   -0.571633
     5  N    0.102451
     6  O   -0.489987
     7  O   -0.489986
     8  H    0.192752
     9  H    0.167911
    10  H    0.167912
    11  H    0.183285
    12  H    0.170231
    13  H    0.186048
    14  H    0.170231
    15  H    0.186048
    16  H    0.183286
    17  H    0.343476
    18  H    0.343476
 Sum of Mulliken charges =  -0.00000

 Dipole moment (field-independent basis, Debye):
    X=              2.2332    Y=              0.0000    Z=              3.4259  Tot=              4.0895
 Quadrupole moment (field-independent basis, Debye-Ang):
   XX=            -47.2497   YY=            -46.2443   ZZ=            -42.7791
   XY=              0.0000   XZ=             -5.3338   YZ=              0.0000

 Normal termination of Gaussian 09 at Fri Aug 26 12:07:44 2022.
