 Gaussian 09, Revision E.01,
 Gaussian 09:  ES64L-G09RevE.01 30-Nov-2015

 -----
 #P G4
 -----

 ---------
 Frag_1139
 ---------
 Symbolic Z-matrix:
 Charge =  0 Multiplicity = 1

 SCF Done:  E(RB3LYP) =  -395.917924952     A.U. after   12 cycles
 SCF Done:  E(RB3LYP) =  -395.929605222     A.U. after   10 cycles
 SCF Done:  E(RB3LYP) =  -395.929983902     A.U. after   10 cycles
 SCF Done:  E(RB3LYP) =  -395.930311229     A.U. after   10 cycles
 SCF Done:  E(RB3LYP) =  -395.930542025     A.U. after    9 cycles
 SCF Done:  E(RB3LYP) =  -395.930591306     A.U. after    9 cycles
 SCF Done:  E(RB3LYP) =  -395.930599659     A.U. after    8 cycles
 SCF Done:  E(RB3LYP) =  -395.930597404     A.U. after    7 cycles
 SCF Done:  E(RB3LYP) =  -395.930600001     A.U. after    6 cycles
 Optimization completed.
    -- Stationary point found.
 Normal termination of Gaussian 09 at Mon Aug 22 23:11:07 2022.

 ----------------------------------------------------------
 #P Geom=AllCheck Guess=TCheck SCRF=Check B3LYP/GTBas3 Freq
 ----------------------------------------------------------

 Structure from the checkpoint file:  "G4.Frag_1139.chk"
 ---------
 Frag_1139
 ---------
 Charge =  0 Multiplicity = 1

 SCF Done:  E(RB3LYP) =  -395.930600001     A.U. after    1 cycles

  Exact polarizability:  72.457   0.638  69.019  -1.272   0.127  69.494
 Approx polarizability:  98.983   2.151  99.773  -1.852  -0.092 103.309

                      1                      2                      3
                      A                      A                      A
 Frequencies --    105.4945               233.8467               245.1130
 Red. masses --      3.4229                 1.1354                 1.7184
 Frc consts  --      0.0224                 0.0366                 0.0608
 IR Inten    --      0.5965                24.0165                11.2889

                      4                      5                      6
                      A                      A                      A
 Frequencies --    254.9830               278.2891               320.9282
 Red. masses --      1.4414                 2.1676                 1.3988
 Frc consts  --      0.0552                 0.0989                 0.0849
 IR Inten    --     18.1020                 5.7396                18.3696

                      7                      8                      9
                      A                      A                      A
 Frequencies --    335.4344               348.2681               357.8080
 Red. masses --      1.3914                 1.9595                 1.5505
 Frc consts  --      0.0922                 0.1400                 0.1170
 IR Inten    --     28.2551                 4.0030                 0.6170

                     10                     11                     12
                      A                      A                      A
 Frequencies --    373.7975               378.9157               414.5084
 Red. masses --      1.6519                 1.5031                 1.9383
 Frc consts  --      0.1360                 0.1272                 0.1962
 IR Inten    --     37.7056                 2.8973                 4.2558

                     13                     14                     15
                      A                      A                      A
 Frequencies --    445.9639               452.5249               531.8693
 Red. masses --      1.7072                 2.7072                 3.2772
 Frc consts  --      0.2001                 0.3266                 0.5462
 IR Inten    --     44.7453                10.3547                10.5650

                     16                     17                     18
                      A                      A                      A
 Frequencies --    547.7833               556.6285               691.3405
 Red. masses --      3.1622                 2.4826                 3.1744
 Frc consts  --      0.5591                 0.4532                 0.8939
 IR Inten    --      0.4279                25.3286                10.3552

                     19                     20                     21
                      A                      A                      A
 Frequencies --    850.5647               874.5129               903.2211
 Red. masses --      2.2872                 1.9951                 1.7128
 Frc consts  --      0.9749                 0.8990                 0.8233
 IR Inten    --    102.3685                29.6678               222.6502

                     22                     23                     24
                      A                      A                      A
 Frequencies --    927.3436               942.3429               966.6420
 Red. masses --      1.7704                 1.5487                 1.3961
 Frc consts  --      0.8970                 0.8103                 0.7686
 IR Inten    --     30.9016               191.1079               109.6232

                     25                     26                     27
                      A                      A                      A
 Frequencies --    982.8555              1007.0589              1032.4363
 Red. masses --      1.6841                 1.3992                 1.8473
 Frc consts  --      0.9585                 0.8360                 1.1602
 IR Inten    --     50.4465                90.4044                18.2568

                     28                     29                     30
                      A                      A                      A
 Frequencies --   1050.7667              1071.8871              1099.6359
 Red. masses --      1.5083                 1.5054                 1.5371
 Frc consts  --      0.9812                 1.0191                 1.0951
 IR Inten    --     19.1915                37.2096                12.3620

                     31                     32                     33
                      A                      A                      A
 Frequencies --   1210.0126              1282.9716              1300.5937
 Red. masses --      2.0707                 1.8809                 2.1105
 Frc consts  --      1.7863                 1.8241                 2.1034
 IR Inten    --     76.9231                25.4972                14.2980

                     34                     35                     36
                      A                      A                      A
 Frequencies --   1323.6366              1358.9732              1387.7838
 Red. masses --      2.0825                 1.6766                 1.7493
 Frc consts  --      2.1497                 1.8244                 1.9850
 IR Inten    --     12.3794                 4.9691                13.1811

                     37                     38                     39
                      A                      A                      A
 Frequencies --   1399.4677              1482.8951              1507.7136
 Red. masses --      1.5644                 1.0588                 1.0532
 Frc consts  --      1.8052                 1.3718                 1.4106
 IR Inten    --     17.4445                 0.3728                 4.3030

                     40                     41                     42
                      A                      A                      A
 Frequencies --   1631.6036              1645.4734              1649.9115
 Red. masses --      1.0954                 1.1066                 1.0961
 Frc consts  --      1.7182                 1.7653                 1.7580
 IR Inten    --     51.2938                47.9445                 5.7901

                     43                     44                     45
                      A                      A                      A
 Frequencies --   1657.5110              1669.2467              3041.3606
 Red. masses --      1.0970                 1.0934                 1.0351
 Frc consts  --      1.7757                 1.7950                 5.6409
 IR Inten    --     18.9116                27.7398                18.7180

                     46                     47                     48
                      A                      A                      A
 Frequencies --   3108.4516              3131.3684              3466.4800
 Red. masses --      1.1002                 1.1026                 1.0497
 Frc consts  --      6.2635                 6.3702                 7.4317
 IR Inten    --     24.8971                15.0742                 0.6739

                     49                     50                     51
                      A                      A                      A
 Frequencies --   3472.6095              3477.2143              3485.5170
 Red. masses --      1.0485                 1.0484                 1.0499
 Frc consts  --      7.4494                 7.4687                 7.5148
 IR Inten    --      3.0301                 1.1753                 1.1647

                     52                     53                     54
                      A                      A                      A
 Frequencies --   3491.9463              3537.4337              3557.3107
 Red. masses --      1.0502                 1.0901                 1.0916
 Frc consts  --      7.5451                 8.0371                 8.1389
 IR Inten    --      0.2166                 0.2415                 6.5442

                     55                     56                     57
                      A                      A                      A
 Frequencies --   3559.8861              3561.7622              3576.5716
 Red. masses --      1.0913                 1.0909                 1.0907
 Frc consts  --      8.1485                 8.1540                 8.2204
 IR Inten    --      2.1024                 1.1872                 2.8901

 - Thermochemistry -
 -------------------
 Temperature   298.150 Kelvin.  Pressure   1.00000 Atm.
 Atom     1 has atomic number  6 and mass  12.00000

 Molecular mass:   119.11710 amu.
 Principal axes and moments of inertia in atomic units:
                           1         2         3
     Eigenvalues --   727.547861019.498461024.53672
           X            0.99962  -0.02082  -0.01787
           Y            0.02238   0.99548   0.09233
           Z            0.01587  -0.09269   0.99557
 This molecule is an asymmetric top.
 Rotational symmetry number  1.
 Warning -- assumption of classical behavior for rotation
           may cause significant error
 Rotational temperatures (Kelvin)      0.11905     0.08496     0.08454
 Rotational constants (GHZ):           2.48058     1.77022     1.76152
 Zero-point vibrational energy     499790.6 (Joules/Mol)
                                  119.45283 (Kcal/Mol)
 Warning -- explicit consideration of  17 degrees of freedom as
           vibrations may cause significant error
 Vibrational temperatures:    151.78   336.45   352.66   366.86   400.40
          (Kelvin)            461.74   482.61   501.08   514.81   537.81
                              545.17   596.38   641.64   651.08   765.24
                              788.14   800.86   994.68  1223.77  1258.23
                             1299.53  1334.24  1355.82  1390.78  1414.11
                             1448.93  1485.44  1511.82  1542.20  1582.13
                             1740.94  1845.91  1871.26  1904.42  1955.26
                             1996.71  2013.52  2133.55  2169.26  2347.51
                             2367.47  2373.85  2384.79  2401.67  4375.83
                             4472.36  4505.34  4987.49  4996.30  5002.93
                             5014.88  5024.13  5089.57  5118.17  5121.88
                             5124.57  5145.88

 Zero-point correction=                           0.190360 (Hartree/Particle)
 Thermal correction to Energy=                    0.200122
 Thermal correction to Enthalpy=                  0.201067
 Thermal correction to Gibbs Free Energy=         0.157577
 Sum of electronic and zero-point Energies=           -395.740240
 Sum of electronic and thermal Energies=              -395.730478
 Sum of electronic and thermal Enthalpies=            -395.729533
 Sum of electronic and thermal Free Energies=         -395.773023

                     E (Thermal)             CV                S
                      KCal/Mol        Cal/Mol-Kelvin    Cal/Mol-Kelvin
 Total                  125.579             39.106             91.532
 Electronic               0.000              0.000              0.000
 Translational            0.889              2.981             40.240
 Rotational               0.889              2.981             28.121
 Vibrational            123.801             33.144             23.172
 Vibration     1          0.605              1.945              3.350
 Vibration     2          0.654              1.789              1.849
 Vibration     3          0.660              1.771              1.765
 Vibration     4          0.665              1.754              1.696
 Vibration     5          0.679              1.714              1.544
 Vibration     6          0.706              1.633              1.305
 Vibration     7          0.717              1.605              1.234
 Vibration     8          0.726              1.579              1.174
 Vibration     9          0.733              1.559              1.132
 Vibration    10          0.745              1.526              1.064
 Vibration    11          0.749              1.515              1.043
 Vibration    12          0.778              1.439              0.911
 Vibration    13          0.805              1.370              0.808
 Vibration    14          0.811              1.355              0.788
 Vibration    15          0.887              1.180              0.583
 Vibration    16          0.903              1.145              0.549
 Vibration    17          0.912              1.125              0.531

 Optimization completed.
    -- Stationary point found.
 Normal termination of Gaussian 09 at Mon Aug 22 23:25:26 2022.

 -----------------------------------------------------------------
 #P Geom=AllCheck Guess=TCheck SCRF=Check CCSD(T,E4T,FrzG4)/GTBas1
 -----------------------------------------------------------------

 Structure from the checkpoint file:  "G4.Frag_1139.chk"
 ---------
 Frag_1139
 ---------
 Charge =  0 Multiplicity = 1

 SCF Done:  E(RHF) =  -393.390363389     A.U. after   12 cycles
 E2 =    -0.1227489941D+01 EUMP2 =    -0.39461785332947D+03
 CCSD(T)
 CCSD(T)= -0.39472586472D+03
 9\MP4SDTQ=-394.7249967\MP4SDQ=-394.6880353\CCSD=-394.6892113\CCSD(T)=-
 Normal termination of Gaussian 09 at Tue Aug 23 00:02:56 2022.

 ---------------------------------------------------------
 #P Geom=AllCheck Guess=TCheck SCRF=Check MP4=FrzG4/GTBas2
 ---------------------------------------------------------

 Structure from the checkpoint file:  "G4.Frag_1139.chk"
 ---------
 Frag_1139
 ---------
 Charge =  0 Multiplicity = 1

 SCF Done:  E(RHF) =  -393.406773031     A.U. after   12 cycles
 E2 =    -0.1250805451D+01 EUMP2 =    -0.39465757848144D+03
 Normal termination of Gaussian 09 at Tue Aug 23 00:56:49 2022.

 ---------------------------------------------------------
 #P Geom=AllCheck Guess=TCheck SCRF=Check MP4=FrzG4/GTBas3
 ---------------------------------------------------------

 Structure from the checkpoint file:  "G4.Frag_1139.chk"
 ---------
 Frag_1139
 ---------
 Charge =  0 Multiplicity = 1

 SCF Done:  E(RHF) =  -393.453046164     A.U. after   10 cycles
 E2 =    -0.1507278721D+01 EUMP2 =    -0.39496032488483D+03
 Normal termination of Gaussian 09 at Tue Aug 23 16:48:51 2022.

 -----------------------------------------------------------
 #P Geom=AllCheck Guess=TCheck SCRF=Check MP2=Full/GTLargeXP
 -----------------------------------------------------------

 Structure from the checkpoint file:  "G4.Frag_1139.chk"
 ---------
 Frag_1139
 ---------
 Charge =  0 Multiplicity = 1

 SCF Done:  E(RHF) =  -393.555539495     A.U. after   12 cycles
 E2 =    -0.1960883562D+01 EUMP2 =    -0.39551642305753D+03
 Normal termination of Gaussian 09 at Tue Aug 23 17:19:22 2022.
 SCF Done:  E(RHF) =  -393.585136207     A.U. after    8 cycles
 Normal termination of Gaussian 09 at Tue Aug 23 17:36:17 2022.

                         Standard orientation:
 ---------------------------------------------------------------------
 Center     Atomic      Atomic             Coordinates (Angstroms)
 Number     Number       Type             X           Y           Z
 ---------------------------------------------------------------------
      1          6           0       -1.388422    1.393924   -0.038182
      2          6           0       -0.785485   -0.019979   -0.026127
      3          7           0       -1.228386   -0.813618    1.137247
      4          7           0       -1.286774   -0.727170   -1.203869
      5          6           0        0.793887    0.025671    0.021366
      6          7           0        1.411629   -1.296814   -0.114970
      7          7           0        1.272246    0.803128   -1.116779
      8          7           0        1.191874    0.639746    1.294801
      9          1           0       -2.478768    1.320262   -0.001268
     10          1           0       -1.125035    1.933261   -0.953573
     11          1           0       -1.028926    1.972880    0.815761
     12          1           0       -1.329715   -0.205636    1.944947
     13          1           0       -2.163441   -1.154865    0.928759
     14          1           0       -0.950056   -1.686733   -1.179409
     15          1           0       -0.871988   -0.298775   -2.027859
     16          1           0        1.234571   -1.658342   -1.048572
     17          1           0        0.949915   -1.925459    0.538708
     18          1           0        1.168224    1.791158   -0.909032
     19          1           0        2.267785    0.626385   -1.223508
     20          1           0        0.875020    0.043584    2.056933
     21          1           0        2.208412    0.607675    1.340759
 ---------------------------------------------------------------------

 SCF Done:  E(RHF) =  -393.591785383     A.U. after    8 cycles

 The electronic state is 1-A.
 Alpha  occ. eigenvalues --  -15.54379 -15.54182 -15.53846 -15.53806 -15.53655
 Alpha  occ. eigenvalues --  -11.31242 -11.28767 -11.20748  -1.27584  -1.21237
 Alpha  occ. eigenvalues --   -1.13824  -1.12651  -1.11509  -0.97502  -0.86287
 Alpha  occ. eigenvalues --   -0.75652  -0.71037  -0.67867  -0.67008  -0.65637
 Alpha  occ. eigenvalues --   -0.63166  -0.60264  -0.57672  -0.56502  -0.55603
 Alpha  occ. eigenvalues --   -0.54214  -0.51618  -0.51069  -0.42992  -0.42323
 Alpha  occ. eigenvalues --   -0.41364  -0.40260  -0.37782
 Alpha virt. eigenvalues --    0.03406   0.04452   0.04630   0.04886   0.06348
 Alpha virt. eigenvalues --    0.06932   0.07017   0.07427   0.07598   0.09857
 Alpha virt. eigenvalues --    0.10245   0.11033   0.11593   0.11753   0.12108

 Mulliken charges:
               1
     1  C   -0.620072
     2  C    0.498520
     3  N   -0.839675
     4  N   -0.803191
     5  C    0.481502
     6  N   -0.768921
     7  N   -0.807098
     8  N   -0.754112
     9  H    0.177883
    10  H    0.170650
    11  H    0.202533
    12  H    0.302398
    13  H    0.321532
    14  H    0.292867
    15  H    0.325316
    16  H    0.294945
    17  H    0.318450
    18  H    0.316296
    19  H    0.306988
    20  H    0.289473
    21  H    0.293718
 Sum of Mulliken charges =  -0.00000

 Dipole moment (field-independent basis, Debye):
    X=              0.3058    Y=             -0.0013    Z=              0.5289  Tot=              0.6110
 Quadrupole moment (field-independent basis, Debye-Ang):
   XX=            -52.3809   YY=            -50.6531   ZZ=            -50.0480
   XY=              1.4530   XZ=             -3.2442   YZ=              0.0989

 Normal termination of Gaussian 09 at Wed Aug 24 01:49:26 2022.
