 Gaussian 09, Revision E.01,
 Gaussian 09:  ES64L-G09RevE.01 30-Nov-2015

 -----
 #P G4
 -----

 --------
 Frag_939
 --------
 Symbolic Z-matrix:
 Charge =  0 Multiplicity = 1

 SCF Done:  E(RB3LYP) =  -269.497510328     A.U. after   12 cycles
 SCF Done:  E(RB3LYP) =  -269.508970518     A.U. after   12 cycles
 SCF Done:  E(RB3LYP) =  -269.511482493     A.U. after   12 cycles
 SCF Done:  E(RB3LYP) =  -269.511844609     A.U. after   11 cycles
 SCF Done:  E(RB3LYP) =  -269.511878027     A.U. after   10 cycles
 SCF Done:  E(RB3LYP) =  -269.511885632     A.U. after    8 cycles
 SCF Done:  E(RB3LYP) =  -269.511887748     A.U. after    8 cycles
 SCF Done:  E(RB3LYP) =  -269.511888372     A.U. after    7 cycles
 SCF Done:  E(RB3LYP) =  -269.511888628     A.U. after    7 cycles
 Optimization completed.
    -- Stationary point found.
 Normal termination of Gaussian 09 at Sat Aug 20 23:02:13 2022.

 ----------------------------------------------------------
 #P Geom=AllCheck Guess=TCheck SCRF=Check B3LYP/GTBas3 Freq
 ----------------------------------------------------------

 Structure from the checkpoint file:  "G4.Frag_939.chk"
 --------
 Frag_939
 --------
 Charge =  0 Multiplicity = 1

 SCF Done:  E(RB3LYP) =  -269.511888628     A.U. after    1 cycles

  Exact polarizability:  51.747  -0.548  42.672   1.709   0.687  37.942
 Approx polarizability:  68.639  -1.754  56.807   2.407  -0.530  55.789

                      1                      2                      3
                      A                      A                      A
 Frequencies --    137.2841               198.4097               223.1229
 Red. masses --      3.7490                 1.0464                 1.0314
 Frc consts  --      0.0416                 0.0243                 0.0303
 IR Inten    --      5.9149                 0.2279                61.0317

                      4                      5                      6
                      A                      A                      A
 Frequencies --    244.5865               290.2339               346.3453
 Red. masses --      1.2750                 2.8463                 2.3032
 Frc consts  --      0.0449                 0.1413                 0.1628
 IR Inten    --     36.7148                 2.7535                 1.4665

                      7                      8                      9
                      A                      A                      A
 Frequencies --    467.3462               503.3435               823.6669
 Red. masses --      2.4832                 3.8099                 2.5365
 Frc consts  --      0.3196                 0.5687                 1.0139
 IR Inten    --      3.5262                 5.3852                 3.5397

                     10                     11                     12
                      A                      A                      A
 Frequencies --    906.3158               929.4727               950.5481
 Red. masses --      2.5331                 1.2920                 1.4693
 Frc consts  --      1.2259                 0.6576                 0.7822
 IR Inten    --      9.9934                 1.1557                 1.9725

                     13                     14                     15
                      A                      A                      A
 Frequencies --    965.5076              1136.9889              1178.6305
 Red. masses --      5.8075                 1.8873                 2.1717
 Frc consts  --      3.1897                 1.4375                 1.7775
 IR Inten    --      2.9052                11.7197                31.4726

                     16                     17                     18
                      A                      A                      A
 Frequencies --   1196.2915              1349.2808              1368.2616
 Red. masses --      1.9556                 1.3815                 1.1507
 Frc consts  --      1.6489                 1.4819                 1.2693
 IR Inten    --      3.0469                 9.7801                19.1055

                     19                     20                     21
                      A                      A                      A
 Frequencies --   1390.0388              1403.0600              1411.2487
 Red. masses --      1.2062                 1.3406                 1.2474
 Frc consts  --      1.3732                 1.5549                 1.4638
 IR Inten    --     36.8896                28.6787                 8.3047

                     22                     23                     24
                      A                      A                      A
 Frequencies --   1478.2492              1486.2097              1492.2129
 Red. masses --      1.0539                 1.0471                 1.0473
 Frc consts  --      1.3569                 1.3627                 1.3740
 IR Inten    --      0.9587                 1.5015                 2.5909

                     25                     26                     27
                      A                      A                      A
 Frequencies --   1512.7505              2989.1776              3040.6613
 Red. masses --      1.0556                 1.0833                 1.0360
 Frc consts  --      1.4233                 5.7030                 5.6437
 IR Inten    --      5.5203                41.9159                14.4123

                     28                     29                     30
                      A                      A                      A
 Frequencies --   3046.4372              3108.8707              3121.2191
 Red. masses --      1.0348                 1.1018                 1.1015
 Frc consts  --      5.6586                 6.2741                 6.3226
 IR Inten    --     14.2487                14.2604                32.3274

                     31                     32                     33
                      A                      A                      A
 Frequencies --   3124.7609              3137.1122              3750.7102
 Red. masses --      1.1021                 1.0999                 1.0687
 Frc consts  --      6.3405                 6.3778                 8.8581
 IR Inten    --     20.9691                13.7784                25.9521

 - Thermochemistry -
 -------------------
 Temperature   298.150 Kelvin.  Pressure   1.00000 Atm.
 Atom     1 has atomic number  6 and mass  12.00000

 Molecular mass:    76.05243 amu.
 Principal axes and moments of inertia in atomic units:
                           1         2         3
     Eigenvalues --   231.62140 468.19332 636.17125
           X            0.99985  -0.01004   0.01398
           Y            0.00972   0.99970   0.02238
           Z           -0.01420  -0.02224   0.99965
 This molecule is an asymmetric top.
 Rotational symmetry number  1.
 Rotational temperatures (Kelvin)      0.37395     0.18500     0.13615
 Rotational constants (GHZ):           7.79177     3.85469     2.83688
 Zero-point vibrational energy     291340.7 (Joules/Mol)
                                   69.63209 (Kcal/Mol)
 Warning -- explicit consideration of   8 degrees of freedom as
           vibrations may cause significant error
 Vibrational temperatures:    197.52   285.47   321.02   351.91   417.58
          (Kelvin)            498.31   672.41   724.20  1185.07  1303.98
                             1337.30  1367.62  1389.15  1635.87  1695.78
                             1721.19  1941.31  1968.62  1999.95  2018.69
                             2030.47  2126.87  2138.32  2146.96  2176.51
                             4300.75  4374.83  4383.14  4472.97  4490.73
                             4495.83  4513.60  5396.43

 Zero-point correction=                           0.110966 (Hartree/Particle)
 Thermal correction to Energy=                    0.117692
 Thermal correction to Enthalpy=                  0.118636
 Thermal correction to Gibbs Free Energy=         0.081415
 Sum of electronic and zero-point Energies=           -269.400923
 Sum of electronic and thermal Energies=              -269.394196
 Sum of electronic and thermal Enthalpies=            -269.393252
 Sum of electronic and thermal Free Energies=         -269.430473

                     E (Thermal)             CV                S
                      KCal/Mol        Cal/Mol-Kelvin    Cal/Mol-Kelvin
 Total                   73.853             23.098             78.338
 Electronic               0.000              0.000              0.000
 Translational            0.889              2.981             38.902
 Rotational               0.889              2.981             25.737
 Vibrational             72.075             17.137             13.699
 Vibration     1          0.614              1.916              2.841
 Vibration     2          0.637              1.842              2.148
 Vibration     3          0.649              1.806              1.934
 Vibration     4          0.660              1.772              1.769
 Vibration     5          0.686              1.692              1.473
 Vibration     6          0.724              1.583              1.183
 Vibration     7          0.825              1.322              0.745
 Vibration     8          0.859              1.243              0.650

 Optimization completed.
    -- Stationary point found.
 Normal termination of Gaussian 09 at Sat Aug 20 23:03:53 2022.

 -----------------------------------------------------------------
 #P Geom=AllCheck Guess=TCheck SCRF=Check CCSD(T,E4T,FrzG4)/GTBas1
 -----------------------------------------------------------------

 Structure from the checkpoint file:  "G4.Frag_939.chk"
 --------
 Frag_939
 --------
 Charge =  0 Multiplicity = 1

 SCF Done:  E(RHF) =  -267.872671037     A.U. after   13 cycles
 E2 =    -0.7603140384D+00 EUMP2 =    -0.26863298507493D+03
 CCSD(T)
 CCSD(T)= -0.26870280415D+03
 P4SDTQ=-268.7019861\MP4SDQ=-268.6796576\CCSD=-268.6803197\CCSD(T)=-268
 Normal termination of Gaussian 09 at Sat Aug 20 23:06:32 2022.

 ---------------------------------------------------------
 #P Geom=AllCheck Guess=TCheck SCRF=Check MP4=FrzG4/GTBas2
 ---------------------------------------------------------

 Structure from the checkpoint file:  "G4.Frag_939.chk"
 --------
 Frag_939
 --------
 Charge =  0 Multiplicity = 1

 SCF Done:  E(RHF) =  -267.879334796     A.U. after   12 cycles
 E2 =    -0.7721942122D+00 EUMP2 =    -0.26865152900820D+03
 Normal termination of Gaussian 09 at Sat Aug 20 23:10:04 2022.

 ---------------------------------------------------------
 #P Geom=AllCheck Guess=TCheck SCRF=Check MP4=FrzG4/GTBas3
 ---------------------------------------------------------

 Structure from the checkpoint file:  "G4.Frag_939.chk"
 --------
 Frag_939
 --------
 Charge =  0 Multiplicity = 1

 SCF Done:  E(RHF) =  -267.906120655     A.U. after   12 cycles
 E2 =    -0.9479164468D+00 EUMP2 =    -0.26885403710175D+03
 Normal termination of Gaussian 09 at Sun Aug 21 00:04:21 2022.

 -----------------------------------------------------------
 #P Geom=AllCheck Guess=TCheck SCRF=Check MP2=Full/GTLargeXP
 -----------------------------------------------------------

 Structure from the checkpoint file:  "G4.Frag_939.chk"
 --------
 Frag_939
 --------
 Charge =  0 Multiplicity = 1

 SCF Done:  E(RHF) =  -267.976367967     A.U. after   12 cycles
 E2 =    -0.1235833606D+01 EUMP2 =    -0.26921220157326D+03
 Normal termination of Gaussian 09 at Sun Aug 21 00:07:33 2022.
 SCF Done:  E(RHF) =  -267.999696556     A.U. after    9 cycles
 Normal termination of Gaussian 09 at Sun Aug 21 00:11:18 2022.

                         Standard orientation:
 ---------------------------------------------------------------------
 Center     Atomic      Atomic             Coordinates (Angstroms)
 Number     Number       Type             X           Y           Z
 ---------------------------------------------------------------------
      1          6           0        1.637614   -0.812295    0.009469
      2          6           0        0.396638    0.008059   -0.331100
      3          6           0        0.507730    1.469095    0.093861
      4          8           0       -0.666850   -0.662728    0.353820
      5          8           0       -1.913223   -0.046113   -0.039478
      6          1           0        1.822094   -0.796738    1.087944
      7          1           0        2.511876   -0.392206   -0.495566
      8          1           0        1.518191   -1.851984   -0.306302
      9          1           0        0.199437   -0.048242   -1.412404
     10          1           0        0.725725    1.539363    1.164390
     11          1           0       -0.427730    1.995129   -0.106040
     12          1           0        1.311123    1.967165   -0.458533
     13          1           0       -2.272017   -0.730917   -0.621604
 ---------------------------------------------------------------------

 SCF Done:  E(RHF) =  -268.004551390     A.U. after    8 cycles

 The electronic state is 1-A.
 Alpha  occ. eigenvalues --  -20.61629 -20.61473 -11.28678 -11.22098 -11.21310
 Alpha  occ. eigenvalues --   -1.46951  -1.22611  -1.03235  -0.94087  -0.80412
 Alpha  occ. eigenvalues --   -0.70962  -0.67508  -0.64070  -0.59708  -0.55770
 Alpha  occ. eigenvalues --   -0.54525  -0.54213  -0.51459  -0.48487  -0.47500
 Alpha  occ. eigenvalues --   -0.44346
 Alpha virt. eigenvalues --    0.03882   0.04284   0.04535   0.05735   0.07296
 Alpha virt. eigenvalues --    0.07629   0.07920   0.08059   0.09528   0.10452
 Alpha virt. eigenvalues --    0.12830   0.13471   0.14823   0.15112   0.15949

 Mulliken charges:
               1
     1  C   -0.526073
     2  C    0.159439
     3  C   -0.537889
     4  O   -0.231931
     5  O   -0.432601
     6  H    0.176032
     7  H    0.171540
     8  H    0.171270
     9  H    0.134817
    10  H    0.167585
    11  H    0.194190
    12  H    0.163751
    13  H    0.389869
 Sum of Mulliken charges =  -0.00000

 Dipole moment (field-independent basis, Debye):
    X=              0.9059    Y=             -0.2966    Z=             -1.7690  Tot=              2.0095
 Quadrupole moment (field-independent basis, Debye-Ang):
   XX=            -30.1313   YY=            -31.6180   ZZ=            -31.2658
   XY=              2.1478   XZ=              2.9259   YZ=              1.5349

 Normal termination of Gaussian 09 at Sun Aug 21 01:49:16 2022.
