 Gaussian 09, Revision E.01,
 Gaussian 09:  ES64L-G09RevE.01 30-Nov-2015

 -----
 #P G4
 -----

 --------
 Frag_743
 --------
 Symbolic Z-matrix:
 Charge =  0 Multiplicity = 1

 SCF Done:  E(RB3LYP) =  -344.344787314     A.U. after   12 cycles
 SCF Done:  E(RB3LYP) =  -344.354057410     A.U. after   11 cycles
 SCF Done:  E(RB3LYP) =  -344.354885985     A.U. after   11 cycles
 SCF Done:  E(RB3LYP) =  -344.355319276     A.U. after   10 cycles
 SCF Done:  E(RB3LYP) =  -344.355687007     A.U. after   10 cycles
 SCF Done:  E(RB3LYP) =  -344.355932778     A.U. after   10 cycles
 SCF Done:  E(RB3LYP) =  -344.356048789     A.U. after   10 cycles
 SCF Done:  E(RB3LYP) =  -344.356100320     A.U. after    9 cycles
 SCF Done:  E(RB3LYP) =  -344.356120019     A.U. after    9 cycles
 SCF Done:  E(RB3LYP) =  -344.356126475     A.U. after    9 cycles
 SCF Done:  E(RB3LYP) =  -344.356133693     A.U. after    9 cycles
 SCF Done:  E(RB3LYP) =  -344.356138771     A.U. after    9 cycles
 SCF Done:  E(RB3LYP) =  -344.356139222     A.U. after    7 cycles
 Optimization completed.
    -- Stationary point found.
 Normal termination of Gaussian 09 at Sat Aug 20 11:26:09 2022.

 ----------------------------------------------------------
 #P Geom=AllCheck Guess=TCheck SCRF=Check B3LYP/GTBas3 Freq
 ----------------------------------------------------------

 Structure from the checkpoint file:  "G4.Frag_743.chk"
 --------
 Frag_743
 --------
 Charge =  0 Multiplicity = 1

 SCF Done:  E(RB3LYP) =  -344.356139222     A.U. after    1 cycles

  Exact polarizability:  71.091   0.117  65.508  -1.923   0.325  56.268
 Approx polarizability:  95.028   1.195  92.658  -2.516   2.542  81.702

                      1                      2                      3
                      A                      A                      A
 Frequencies --    108.4629               189.2816               210.6390
 Red. masses --      2.4484                 1.0656                 1.1070
 Frc consts  --      0.0170                 0.0225                 0.0289
 IR Inten    --      0.7024                75.4244                13.6188

                      4                      5                      6
                      A                      A                      A
 Frequencies --    233.7595               250.1197               268.2455
 Red. masses --      1.1204                 1.1294                 1.2860
 Frc consts  --      0.0361                 0.0416                 0.0545
 IR Inten    --     14.4113                 1.4297                15.0127

                      7                      8                      9
                      A                      A                      A
 Frequencies --    290.4654               313.8739               360.9352
 Red. masses --      2.1406                 2.1921                 2.3232
 Frc consts  --      0.1064                 0.1272                 0.1783
 IR Inten    --      9.0684                 0.6998                 1.9725

                     10                     11                     12
                      A                      A                      A
 Frequencies --    404.3978               411.9083               476.7609
 Red. masses --      3.0519                 3.2577                 2.3977
 Frc consts  --      0.2941                 0.3257                 0.3211
 IR Inten    --      1.1489                 2.5727                 1.3502

                     13                     14                     15
                      A                      A                      A
 Frequencies --    531.8614               541.9045               710.8252
 Red. masses --      3.6628                 3.4024                 3.8301
 Frc consts  --      0.6105                 0.5887                 1.1402
 IR Inten    --     17.6040                13.6610                 5.3593

                     16                     17                     18
                      A                      A                      A
 Frequencies --    839.7573               910.0258               943.4060
 Red. masses --      3.1060                 1.5391                 2.5597
 Frc consts  --      1.2905                 0.7510                 1.3422
 IR Inten    --     16.9042                 2.2284                28.1198

                     19                     20                     21
                      A                      A                      A
 Frequencies --    967.6341              1004.5845              1082.3142
 Red. masses --      2.0923                 1.3220                 2.2519
 Frc consts  --      1.1542                 0.7861                 1.5542
 IR Inten    --      5.7353                 5.3263                24.5306

                     22                     23                     24
                      A                      A                      A
 Frequencies --   1133.5778              1144.4116              1164.8136
 Red. masses --      1.5136                 1.3874                 1.6251
 Frc consts  --      1.1459                 1.0706                 1.2991
 IR Inten    --     75.6363                27.4364                23.7332

                     25                     26                     27
                      A                      A                      A
 Frequencies --   1198.0055              1225.9860              1260.4611
 Red. masses --      1.9422                 2.0674                 2.9949
 Frc consts  --      1.6423                 1.8308                 2.8034
 IR Inten    --     73.5123                25.9441                30.0582

                     28                     29                     30
                      A                      A                      A
 Frequencies --   1349.2077              1388.5907              1404.0761
 Red. masses --      1.4854                 1.2746                 1.3266
 Frc consts  --      1.5931                 1.4480                 1.5409
 IR Inten    --     61.2289                16.2291                19.8921

                     31                     32                     33
                      A                      A                      A
 Frequencies --   1415.9919              1449.8108              1475.5769
 Red. masses --      1.4863                 1.1704                 1.0519
 Frc consts  --      1.7558                 1.4495                 1.3494
 IR Inten    --      7.5733                 0.3080                 2.8724

                     34                     35                     36
                      A                      A                      A
 Frequencies --   1480.3777              1489.5119              1498.7012
 Red. masses --      1.0496                 1.0615                 1.0512
 Frc consts  --      1.3552                 1.3875                 1.3912
 IR Inten    --      3.2632                 1.2107                 6.1358

                     37                     38                     39
                      A                      A                      A
 Frequencies --   1509.2852              1517.6090              1643.7620
 Red. masses --      1.0574                 1.0736                 1.0674
 Frc consts  --      1.4192                 1.4568                 1.6993
 IR Inten    --      3.0909                 2.3341                49.1823

                     40                     41                     42
                      A                      A                      A
 Frequencies --   2974.2754              3035.7057              3048.0849
 Red. masses --      1.0536                 1.0408                 1.0358
 Frc consts  --      5.4912                 5.6509                 5.6698
 IR Inten    --     57.2953                15.0739                16.3250

                     43                     44                     45
                      A                      A                      A
 Frequencies --   3063.3408              3101.3248              3116.0127
 Red. masses --      1.0845                 1.0963                 1.1007
 Frc consts  --      5.9964                 6.2124                 6.2965
 IR Inten    --     39.0000                10.0092                38.4450

                     46                     47                     48
                      A                      A                      A
 Frequencies --   3131.9686              3137.9418              3144.4239
 Red. masses --      1.0976                 1.1004                 1.1000
 Frc consts  --      6.3435                 6.3841                 6.4083
 IR Inten    --     18.0050                16.1938                11.3950

                     49                     50                     51
                      A                      A                      A
 Frequencies --   3434.9442              3514.7151              3836.4449
 Red. masses --      1.0515                 1.0893                 1.0660
 Frc consts  --      7.3093                 7.9285                 9.2443
 IR Inten    --      6.6458                 5.0121                21.0822

 - Thermochemistry -
 -------------------
 Temperature   298.150 Kelvin.  Pressure   1.00000 Atm.
 Atom     1 has atomic number  6 and mass  12.00000

 Molecular mass:   104.09496 amu.
 Principal axes and moments of inertia in atomic units:
                           1         2         3
     Eigenvalues --   559.73091 755.64078 909.72695
           X            0.99974  -0.00785  -0.02118
           Y            0.00719   0.99949  -0.03097
           Z            0.02141   0.03081   0.99930
 This molecule is an asymmetric top.
 Rotational symmetry number  1.
 Warning -- assumption of classical behavior for rotation
           may cause significant error
 Rotational temperatures (Kelvin)      0.15474     0.11462     0.09521
 Rotational constants (GHZ):           3.22430     2.38836     1.98383
 Zero-point vibrational energy     444652.6 (Joules/Mol)
                                  106.27451 (Kcal/Mol)
 Warning -- explicit consideration of  14 degrees of freedom as
           vibrations may cause significant error
 Vibrational temperatures:    156.05   272.33   303.06   336.33   359.87
          (Kelvin)            385.94   417.91   451.59   519.30   581.84
                              592.64   685.95   765.23   779.68  1022.72
                             1208.22  1309.32  1357.35  1392.21  1445.37
                             1557.21  1630.96  1646.55  1675.90  1723.66
                             1763.92  1813.52  1941.21  1997.87  2020.15
                             2037.29  2085.95  2123.02  2129.93  2143.07
                             2156.29  2171.52  2183.50  2365.00  4279.31
                             4367.70  4385.51  4407.46  4462.11  4483.24
                             4506.20  4514.79  4524.12  4942.11  5056.88
                             5519.78

 Zero-point correction=                           0.169359 (Hartree/Particle)
 Thermal correction to Energy=                    0.178472
 Thermal correction to Enthalpy=                  0.179416
 Thermal correction to Gibbs Free Energy=         0.137071
 Sum of electronic and zero-point Energies=           -344.186780
 Sum of electronic and thermal Energies=              -344.177668
 Sum of electronic and thermal Enthalpies=            -344.176723
 Sum of electronic and thermal Free Energies=         -344.219068

                     E (Thermal)             CV                S
                      KCal/Mol        Cal/Mol-Kelvin    Cal/Mol-Kelvin
 Total                  111.993             34.032             89.121
 Electronic               0.000              0.000              0.000
 Translational            0.889              2.981             39.838
 Rotational               0.889              2.981             27.445
 Vibrational            110.215             28.070             21.839
 Vibration     1          0.606              1.942              3.296
 Vibration     2          0.633              1.855              2.235
 Vibration     3          0.643              1.825              2.038
 Vibration     4          0.654              1.789              1.850
 Vibration     5          0.663              1.763              1.730
 Vibration     6          0.673              1.732              1.607
 Vibration     7          0.686              1.691              1.471
 Vibration     8          0.702              1.647              1.342
 Vibration     9          0.735              1.553              1.118
 Vibration    10          0.770              1.461              0.947
 Vibration    11          0.776              1.444              0.920
 Vibration    12          0.833              1.302              0.719
 Vibration    13          0.887              1.180              0.583
 Vibration    14          0.897              1.157              0.561

 Normal termination of Gaussian 09 at Sat Aug 20 11:34:08 2022.

 -----------------------------------------------------------------
 #P Geom=AllCheck Guess=TCheck SCRF=Check CCSD(T,E4T,FrzG4)/GTBas1
 -----------------------------------------------------------------

 Structure from the checkpoint file:  "G4.Frag_743.chk"
 --------
 Frag_743
 --------
 Charge =  0 Multiplicity = 1

 SCF Done:  E(RHF) =  -342.150011425     A.U. after   12 cycles
 E2 =    -0.1042496558D+01 EUMP2 =    -0.34319250798217D+03
 CCSD(T)
 CCSD(T)= -0.34329194140D+03
 3.2910968\MP4SDQ=-343.2589775\CCSD=-343.2599288\CCSD(T)=-343.2919414\R
 Normal termination of Gaussian 09 at Sat Aug 20 11:52:44 2022.

 ---------------------------------------------------------
 #P Geom=AllCheck Guess=TCheck SCRF=Check MP4=FrzG4/GTBas2
 ---------------------------------------------------------

 Structure from the checkpoint file:  "G4.Frag_743.chk"
 --------
 Frag_743
 --------
 Charge =  0 Multiplicity = 1

 SCF Done:  E(RHF) =  -342.160297701     A.U. after   12 cycles
 E2 =    -0.1059764627D+01 EUMP2 =    -0.34322006232788D+03
 Normal termination of Gaussian 09 at Sat Aug 20 12:18:43 2022.

 ---------------------------------------------------------
 #P Geom=AllCheck Guess=TCheck SCRF=Check MP4=FrzG4/GTBas3
 ---------------------------------------------------------

 Structure from the checkpoint file:  "G4.Frag_743.chk"
 --------
 Frag_743
 --------
 Charge =  0 Multiplicity = 1

 SCF Done:  E(RHF) =  -342.197469991     A.U. after   11 cycles
 E2 =    -0.1292745788D+01 EUMP2 =    -0.34349021577851D+03
 Normal termination of Gaussian 09 at Sat Aug 20 18:32:39 2022.

 -----------------------------------------------------------
 #P Geom=AllCheck Guess=TCheck SCRF=Check MP2=Full/GTLargeXP
 -----------------------------------------------------------

 Structure from the checkpoint file:  "G4.Frag_743.chk"
 --------
 Frag_743
 --------
 Charge =  0 Multiplicity = 1

 SCF Done:  E(RHF) =  -342.283573753     A.U. after   11 cycles
 E2 =    -0.1686175233D+01 EUMP2 =    -0.34396974898542D+03
 Normal termination of Gaussian 09 at Sat Aug 20 18:46:59 2022.
 SCF Done:  E(RHF) =  -342.310390557     A.U. after    9 cycles
 Normal termination of Gaussian 09 at Sat Aug 20 18:59:36 2022.

                         Standard orientation:
 ---------------------------------------------------------------------
 Center     Atomic      Atomic             Coordinates (Angstroms)
 Number     Number       Type             X           Y           Z
 ---------------------------------------------------------------------
      1          6           0        1.562924    1.184422    0.096523
      2          7           0        0.814785    0.061503   -0.449537
      3          7           0        1.492538   -1.166744    0.000501
      4          6           0       -0.592638   -0.004638   -0.031305
      5          6           0       -0.802286   -0.209770    1.481574
      6          6           0       -1.339337    1.236053   -0.537406
      7          8           0       -1.087189   -1.150200   -0.741880
      8          1           0        2.571015    1.170011   -0.332078
      9          1           0        1.668315    1.157261    1.193197
     10          1           0        1.097314    2.124662   -0.202684
     11          1           0        0.917090   -1.902293   -0.409566
     12          1           0        2.347001   -1.185588   -0.557098
     13          1           0       -1.867301   -0.338959    1.706744
     14          1           0       -0.249103   -1.085041    1.825747
     15          1           0       -0.456785    0.659550    2.047891
     16          1           0       -2.415326    1.061442   -0.447256
     17          1           0       -1.100642    2.135575    0.035884
     18          1           0       -1.101644    1.403575   -1.590279
     19          1           0       -1.835656   -1.498309   -0.248536
 ---------------------------------------------------------------------

 SCF Done:  E(RHF) =  -342.316306937     A.U. after    8 cycles

 The electronic state is 1-A.
 Alpha  occ. eigenvalues --  -20.55489 -15.56987 -15.55911 -11.31670 -11.24107
 Alpha  occ. eigenvalues --  -11.21650 -11.21417  -1.37450  -1.26048  -1.07926
 Alpha  occ. eigenvalues --   -1.00769  -0.94319  -0.90138  -0.76597  -0.68483
 Alpha  occ. eigenvalues --   -0.67272  -0.64776  -0.61356  -0.58718  -0.57906
 Alpha  occ. eigenvalues --   -0.55178  -0.54513  -0.52798  -0.52017  -0.51361
 Alpha  occ. eigenvalues --   -0.49764  -0.46965  -0.44247  -0.33589
 Alpha virt. eigenvalues --    0.03241   0.04059   0.04404   0.05177   0.06319
 Alpha virt. eigenvalues --    0.06757   0.06916   0.07256   0.07502   0.09610
 Alpha virt. eigenvalues --    0.09761   0.10094   0.10409   0.11203   0.11821

 Mulliken charges:
               1
     1  C   -0.473202
     2  N   -0.029167
     3  N   -0.720000
     4  C    0.473212
     5  C   -0.586138
     6  C   -0.599272
     7  O   -0.640870
     8  H    0.158354
     9  H    0.155900
    10  H    0.175935
    11  H    0.336026
    12  H    0.292631
    13  H    0.165460
    14  H    0.204295
    15  H    0.175601
    16  H    0.169873
    17  H    0.173235
    18  H    0.195572
    19  H    0.372553
 Sum of Mulliken charges =  -0.00000

 Dipole moment (field-independent basis, Debye):
    X=             -0.8269    Y=              0.6619    Z=              0.9776  Tot=              1.4413
 Quadrupole moment (field-independent basis, Debye-Ang):
   XX=            -40.7385   YY=            -43.0518   ZZ=            -49.0694
   XY=              1.6139   XZ=             -3.6652   YZ=              0.3473

 Normal termination of Gaussian 09 at Sun Aug 21 00:33:53 2022.
