 Gaussian 09, Revision E.01,
 Gaussian 09:  ES64L-G09RevE.01 30-Nov-2015

 -----
 #P G4
 -----

 --------
 Frag_725
 --------
 Symbolic Z-matrix:
 Charge =  0 Multiplicity = 1

 SCF Done:  E(RB3LYP) =  -227.296925174     A.U. after   15 cycles
 SCF Done:  E(RB3LYP) =  -227.361064155     A.U. after   14 cycles
 SCF Done:  E(RB3LYP) =  -227.382329796     A.U. after   14 cycles
 SCF Done:  E(RB3LYP) =  -227.387665598     A.U. after   11 cycles
 SCF Done:  E(RB3LYP) =  -227.388846347     A.U. after   13 cycles
 SCF Done:  E(RB3LYP) =  -227.389013127     A.U. after   12 cycles
 SCF Done:  E(RB3LYP) =  -227.389089934     A.U. after   11 cycles
 SCF Done:  E(RB3LYP) =  -227.373532417     A.U. after   16 cycles
 SCF Done:  E(RB3LYP) =  -227.389210739     A.U. after   12 cycles
 SCF Done:  E(RB3LYP) =  -227.389475112     A.U. after   13 cycles
 SCF Done:  E(RB3LYP) =  -227.390882784     A.U. after    8 cycles
 SCF Done:  E(RB3LYP) =  -227.390883455     A.U. after    7 cycles
 SCF Done:  E(RB3LYP) =  -227.390884132     A.U. after    9 cycles
 Optimization completed.
    -- Stationary point found.
 Normal termination of Gaussian 09 at Tue Aug 30 10:10:14 2022.

 ----------------------------------------------------------
 #P Geom=AllCheck Guess=TCheck SCRF=Check B3LYP/GTBas3 Freq
 ----------------------------------------------------------

 Structure from the checkpoint file:  "G4.Frag_725.chk"
 --------
 Frag_725
 --------
 Charge =  0 Multiplicity = 1

 SCF Done:  E(RB3LYP) =  -227.390884132     A.U. after    1 cycles

  Exact polarizability:  71.561   0.000  42.306  -0.000   0.001  32.368
 Approx polarizability: 137.551   0.001  54.120   0.001   0.001  46.989

                      1                      2                      3
                      A                      A                      A
 Frequencies --    128.2163               148.7916               218.7635
 Red. masses --      1.1219                 1.0276                 4.6924
 Frc consts  --      0.0109                 0.0134                 0.1323
 IR Inten    --      0.0037                 0.0000                 3.1343

                      4                      5                      6
                      A                      A                      A
 Frequencies --    243.4110               323.1126               533.1833
 Red. masses --      2.7058                 2.3372                12.7297
 Frc consts  --      0.0945                 0.1438                 2.1322
 IR Inten    --      1.9328                 0.7057                 3.9926

                      7                      8                      9
                      A                      A                      A
 Frequencies --    628.8172               751.0967               990.5119
 Red. masses --      5.7937                 4.3220                 1.3655
 Frc consts  --      1.3498                 1.4366                 0.7893
 IR Inten    --      3.4564                 0.3919                 0.7264

                     10                     11                     12
                      A                      A                      A
 Frequencies --   1001.5586              1033.4194              1087.2983
 Red. masses --      1.2064                 1.5665                 1.4074
 Frc consts  --      0.7130                 0.9857                 0.9803
 IR Inten    --      0.0000                16.0585                 0.0314

                     13                     14                     15
                      A                      A                      A
 Frequencies --   1259.8406              1408.2509              1416.4414
 Red. masses --      5.3286                 1.2197                 3.1494
 Frc consts  --      4.9830                 1.4252                 3.7228
 IR Inten    --      1.4260                 0.1309                 0.0486

                     16                     17                     18
                      A                      A                      A
 Frequencies --   1423.4068              1467.8261              1479.3332
 Red. masses --      1.2022                 1.0443                 1.0421
 Frc consts  --      1.4351                 1.3256                 1.3437
 IR Inten    --     22.4667                 0.0000                12.3139

                     19                     20                     21
                      A                      A                      A
 Frequencies --   1494.3358              1527.5741              2168.6492
 Red. masses --      1.0446                 1.2486                13.3107
 Frc consts  --      1.3743                 1.7167                36.8832
 IR Inten    --      8.8785                 0.5749               442.7488

                     22                     23                     24
                      A                      A                      A
 Frequencies --   3003.1384              3007.4133              3044.8790
 Red. masses --      1.0387                 1.0392                 1.1008
 Frc consts  --      5.5195                 5.5378                 6.0131
 IR Inten    --     31.1733                64.0085                52.7529

                     25                     26                     27
                      A                      A                      A
 Frequencies --   3047.7219              3121.8747              3122.4675
 Red. masses --      1.1010                 1.0965                 1.0968
 Frc consts  --      6.0254                 6.2965                 6.3004
 IR Inten    --      0.0160                 9.3928                14.3394

 - Thermochemistry -
 -------------------
 Temperature   298.150 Kelvin.  Pressure   1.00000 Atm.
 Atom     1 has atomic number  6 and mass  12.00000

 Molecular mass:    70.05310 amu.
 Principal axes and moments of inertia in atomic units:
                           1         2         3
     Eigenvalues --   221.42678 421.57112 620.53312
           X            1.00000  -0.00000  -0.00000
           Y            0.00000   1.00000   0.00000
           Z            0.00000  -0.00000   1.00000
 This molecule is an asymmetric top.
 Rotational symmetry number  1.
 Rotational temperatures (Kelvin)      0.39116     0.20545     0.13958
 Rotational constants (GHZ):           8.15051     4.28099     2.90837
 Zero-point vibrational energy     233758.3 (Joules/Mol)
                                   55.86957 (Kcal/Mol)
 Warning -- explicit consideration of   6 degrees of freedom as
           vibrations may cause significant error
 Vibrational temperatures:    184.47   214.08   314.75   350.21   464.89
          (Kelvin)            767.13   904.73  1080.66  1425.12  1441.02
                             1486.86  1564.38  1812.63  2026.16  2037.94
                             2047.96  2111.87  2128.43  2150.01  2197.84
                             3120.20  4320.84  4326.99  4380.90  4384.99
                             4491.68  4492.53

 Zero-point correction=                           0.089034 (Hartree/Particle)
 Thermal correction to Energy=                    0.095241
 Thermal correction to Enthalpy=                  0.096185
 Thermal correction to Gibbs Free Energy=         0.059778
 Sum of electronic and zero-point Energies=           -227.301850
 Sum of electronic and thermal Energies=              -227.295643
 Sum of electronic and thermal Enthalpies=            -227.294699
 Sum of electronic and thermal Free Energies=         -227.331106

                     E (Thermal)             CV                S
                      KCal/Mol        Cal/Mol-Kelvin    Cal/Mol-Kelvin
 Total                   59.765             20.070             76.626
 Electronic               0.000              0.000              0.000
 Translational            0.889              2.981             38.657
 Rotational               0.889              2.981             25.563
 Vibrational             57.987             14.109             12.405
 Vibration     1          0.611              1.925              2.973
 Vibration     2          0.618              1.904              2.688
 Vibration     3          0.647              1.812              1.969
 Vibration     4          0.659              1.774              1.778
 Vibration     5          0.708              1.629              1.294
 Vibration     6          0.888              1.177              0.580

 Optimization completed.
    -- Stationary point found.
 Normal termination of Gaussian 09 at Tue Aug 30 10:10:32 2022.

 -----------------------------------------------------------------
 #P Geom=AllCheck Guess=TCheck SCRF=Check CCSD(T,E4T,FrzG4)/GTBas1
 -----------------------------------------------------------------

 Structure from the checkpoint file:  "G4.Frag_725.chk"
 --------
 Frag_725
 --------
 Charge =  0 Multiplicity = 1

 SCF Done:  E(RHF) =  -225.916364049     A.U. after   13 cycles
 E2 =    -0.7194583641D+00 EUMP2 =    -0.22663582241325D+03
 CCSD(T)
 CCSD(T)= -0.22669950147D+03
 \MP4SDQ=-226.6702542\CCSD=-226.6693622\CCSD(T)=-226.6995015\RMSD=4.497
 Normal termination of Gaussian 09 at Tue Aug 30 10:11:20 2022.

 ---------------------------------------------------------
 #P Geom=AllCheck Guess=TCheck SCRF=Check MP4=FrzG4/GTBas2
 ---------------------------------------------------------

 Structure from the checkpoint file:  "G4.Frag_725.chk"
 --------
 Frag_725
 --------
 Charge =  0 Multiplicity = 1

 SCF Done:  E(RHF) =  -225.920997059     A.U. after   11 cycles
 E2 =    -0.7268201861D+00 EUMP2 =    -0.22664781724488D+03
 Normal termination of Gaussian 09 at Tue Aug 30 10:11:34 2022.

 ---------------------------------------------------------
 #P Geom=AllCheck Guess=TCheck SCRF=Check MP4=FrzG4/GTBas3
 ---------------------------------------------------------

 Structure from the checkpoint file:  "G4.Frag_725.chk"
 --------
 Frag_725
 --------
 Charge =  0 Multiplicity = 1

 SCF Done:  E(RHF) =  -225.943076556     A.U. after   12 cycles
 E2 =    -0.8646916798D+00 EUMP2 =    -0.22680776823583D+03
 Normal termination of Gaussian 09 at Tue Aug 30 10:12:42 2022.

 -----------------------------------------------------------
 #P Geom=AllCheck Guess=TCheck SCRF=Check MP2=Full/GTLargeXP
 -----------------------------------------------------------

 Structure from the checkpoint file:  "G4.Frag_725.chk"
 --------
 Frag_725
 --------
 Charge =  0 Multiplicity = 1

 SCF Done:  E(RHF) =  -225.994514693     A.U. after   13 cycles
 E2 =    -0.1132905361D+01 EUMP2 =    -0.22712742005395D+03
 Normal termination of Gaussian 09 at Tue Aug 30 10:13:31 2022.
 SCF Done:  E(RHF) =  -226.012600071     A.U. after   10 cycles
 Normal termination of Gaussian 09 at Tue Aug 30 10:14:31 2022.

                         Standard orientation:
 ---------------------------------------------------------------------
 Center     Atomic      Atomic             Coordinates (Angstroms)
 Number     Number       Type             X           Y           Z
 ---------------------------------------------------------------------
      1          6           0       -1.040081   -1.314561    0.000007
      2          6           0       -0.308287    0.000003   -0.000037
      3          6           0       -1.040144    1.314535    0.000002
      4          7           0        0.981084    0.000012    0.000020
      5          7           0        2.127918    0.000033   -0.000005
      6          1           0       -1.685889   -1.409609    0.883219
      7          1           0       -0.344354   -2.156793    0.000261
      8          1           0       -1.685576   -1.409887   -0.883415
      9          1           0       -1.685464    1.409921    0.883565
     10          1           0       -0.344463    2.156780   -0.000507
     11          1           0       -1.686198    1.409412   -0.883053
 ---------------------------------------------------------------------

 SCF Done:  E(RHF) =  -226.016039306     A.U. after    8 cycles

 The electronic state is 1-A.
 Alpha  occ. eigenvalues --  -15.70583 -15.62804 -11.27376 -11.23977 -11.23975
 Alpha  occ. eigenvalues --   -1.42927  -1.14305  -0.96303  -0.96198  -0.68492
 Alpha  occ. eigenvalues --   -0.65857  -0.65508  -0.63636  -0.57915  -0.56060
 Alpha  occ. eigenvalues --   -0.55383  -0.54325  -0.49904  -0.29958
 Alpha virt. eigenvalues --    0.03502   0.04000   0.05206   0.05325   0.06929
 Alpha virt. eigenvalues --    0.07218   0.07667   0.08373   0.08584   0.09884
 Alpha virt. eigenvalues --    0.11648   0.12152   0.13567   0.14738   0.14772

 Mulliken charges:
               1
     1  C   -0.537998
     2  C    0.088319
     3  C   -0.537999
     4  N    0.334812
     5  N   -0.409894
     6  H    0.175996
     7  H    0.179378
     8  H    0.176005
     9  H    0.175999
    10  H    0.179384
    11  H    0.175998
 Sum of Mulliken charges =  -0.00000

 Dipole moment (field-independent basis, Debye):
    X=             -2.5665    Y=             -0.0000    Z=              0.0001  Tot=              2.5665
 Quadrupole moment (field-independent basis, Debye-Ang):
   XX=            -36.0935   YY=            -28.7948   ZZ=            -31.7898
   XY=             -0.0001   XZ=              0.0001   YZ=             -0.0001

 CCSD(T)/G3Bas1=-226.6995015\MP2/GTBas2=-226.6478172\MP4/GTBas2=-226.71
 Normal termination of Gaussian 09 at Tue Aug 30 10:20:00 2022.
