 Gaussian 09, Revision E.01,
 Gaussian 09:  ES64L-G09RevE.01 30-Nov-2015

 -----
 #P G4
 -----

 --------
 Frag_864
 --------
 Symbolic Z-matrix:
 Charge =  0 Multiplicity = 1

 SCF Done:  E(RB3LYP) =  -338.574472132     A.U. after   15 cycles
 SCF Done:  E(RB3LYP) =  -338.602360604     A.U. after   13 cycles
 SCF Done:  E(RB3LYP) =  -338.606714963     A.U. after   12 cycles
 SCF Done:  E(RB3LYP) =  -338.606810844     A.U. after    9 cycles
 SCF Done:  E(RB3LYP) =  -338.606817911     A.U. after    9 cycles
 SCF Done:  E(RB3LYP) =  -338.606818643     A.U. after    8 cycles
 Optimization completed.
    -- Stationary point found.
 Normal termination of Gaussian 09 at Sat Aug 20 17:03:09 2022.

 ----------------------------------------------------------
 #P Geom=AllCheck Guess=TCheck SCRF=Check B3LYP/GTBas3 Freq
 ----------------------------------------------------------

 Structure from the checkpoint file:  "G4.Frag_864.chk"
 --------
 Frag_864
 --------
 Charge =  0 Multiplicity = 1

 SCF Done:  E(RB3LYP) =  -338.606818643     A.U. after    1 cycles

  Exact polarizability:  48.094  -3.696  52.081  -0.001   0.000  22.098
 Approx polarizability:  66.782  -6.092  91.160  -0.002  -0.001  33.598

                      1                      2                      3
                      A                      A                      A
 Frequencies --     85.1199               278.6808               286.8420
 Red. masses --      7.1573                 4.6033                 1.1828
 Frc consts  --      0.0306                 0.2106                 0.0573
 IR Inten    --      2.8212                13.1391               194.5851

                      4                      5                      6
                      A                      A                      A
 Frequencies --    416.4009               421.0553               510.9630
 Red. masses --      2.4753                 4.3250                 4.5898
 Frc consts  --      0.2529                 0.4518                 0.7060
 IR Inten    --      1.0051                15.2911                 2.3190

                      7                      8                      9
                      A                      A                      A
 Frequencies --    559.1010               603.5898               656.4187
 Red. masses --      1.1521                 3.7313                 1.4112
 Frc consts  --      0.2122                 0.8009                 0.3583
 IR Inten    --     84.0237                21.8056                64.0340

                     10                     11                     12
                      A                      A                      A
 Frequencies --    771.0706               815.4777               931.3453
 Red. masses --      3.3748                 7.1339                 1.1614
 Frc consts  --      1.1822                 2.7951                 0.5936
 IR Inten    --     12.2594                 2.0684                37.4005

                     13                     14                     15
                      A                      A                      A
 Frequencies --   1086.4910              1105.6316              1241.4191
 Red. masses --      1.9602                 1.9268                 1.3633
 Frc consts  --      1.3634                 1.3877                 1.2378
 IR Inten    --    153.2674                51.7187                88.2696

                     16                     17                     18
                      A                      A                      A
 Frequencies --   1327.0849              1459.8306              1606.8236
 Red. masses --      2.7430                 2.9751                 1.2637
 Frc consts  --      2.8463                 3.7356                 1.9224
 IR Inten    --    177.1552                20.6748               139.8302

                     19                     20                     21
                      A                      A                      A
 Frequencies --   1758.5258              1808.3666              3476.6800
 Red. masses --      9.4805                10.3546                 1.0729
 Frc consts  --     17.2735                19.9507                 7.6406
 IR Inten    --    182.9112               196.1242                19.0659

                     22                     23                     24
                      A                      A                      A
 Frequencies --   3607.0750              3746.3376              3757.9682
 Red. masses --      1.0442                 1.1055                 1.0644
 Frc consts  --      8.0047                 9.1413                 8.8565
 IR Inten    --     51.8156                68.0655                51.1480

 - Thermochemistry -
 -------------------
 Temperature   298.150 Kelvin.  Pressure   1.00000 Atm.
 Atom     1 has atomic number  7 and mass  14.00307

 Molecular mass:    88.02728 amu.
 Principal axes and moments of inertia in atomic units:
                           1         2         3
     Eigenvalues --   316.44890 493.84602 810.29491
           X            0.99752  -0.07034  -0.00000
           Y            0.07034   0.99752   0.00001
           Z            0.00000  -0.00001   1.00000
 This molecule is an asymmetric top.
 Rotational symmetry number  1.
 Rotational temperatures (Kelvin)      0.27371     0.17539     0.10689
 Rotational constants (GHZ):           5.70310     3.65446     2.22726
 Zero-point vibrational energy     193306.4 (Joules/Mol)
                                   46.20133 (Kcal/Mol)
 Warning -- explicit consideration of   8 degrees of freedom as
           vibrations may cause significant error
 Vibrational temperatures:    122.47   400.96   412.70   599.11   605.80
          (Kelvin)            735.16   804.42   868.43   944.44  1109.40
                             1173.29  1340.00  1563.22  1590.76  1786.12
                             1909.38  2100.37  2311.86  2530.12  2601.83
                             5002.16  5189.77  5390.14  5406.87

 Zero-point correction=                           0.073627 (Hartree/Particle)
 Thermal correction to Energy=                    0.079676
 Thermal correction to Enthalpy=                  0.080620
 Thermal correction to Gibbs Free Energy=         0.044034
 Sum of electronic and zero-point Energies=           -338.533192
 Sum of electronic and thermal Energies=              -338.527143
 Sum of electronic and thermal Enthalpies=            -338.526199
 Sum of electronic and thermal Free Energies=         -338.562785

                     E (Thermal)             CV                S
                      KCal/Mol        Cal/Mol-Kelvin    Cal/Mol-Kelvin
 Total                   49.997             21.333             77.002
 Electronic               0.000              0.000              0.000
 Translational            0.889              2.981             39.338
 Rotational               0.889              2.981             26.340
 Vibrational             48.220             15.371             11.324
 Vibration     1          0.601              1.959              3.769
 Vibration     2          0.679              1.713              1.542
 Vibration     3          0.684              1.698              1.493
 Vibration     4          0.780              1.435              0.904
 Vibration     5          0.784              1.424              0.888
 Vibration     6          0.866              1.226              0.631
 Vibration     7          0.915              1.120              0.526
 Vibration     8          0.962              1.024              0.444

 Optimization completed.
    -- Stationary point found.
 Normal termination of Gaussian 09 at Sat Aug 20 17:04:48 2022.

 -----------------------------------------------------------------
 #P Geom=AllCheck Guess=TCheck SCRF=Check CCSD(T,E4T,FrzG4)/GTBas1
 -----------------------------------------------------------------

 Structure from the checkpoint file:  "G4.Frag_864.chk"
 --------
 Frag_864
 --------
 Charge =  0 Multiplicity = 1

 SCF Done:  E(RHF) =  -336.693621263     A.U. after   13 cycles
 E2 =    -0.9275919321D+00 EUMP2 =    -0.33762121319481D+03
 CCSD(T)
 CCSD(T)= -0.33767657874D+03
 Normal termination of Gaussian 09 at Sat Aug 20 17:09:35 2022.

 ---------------------------------------------------------
 #P Geom=AllCheck Guess=TCheck SCRF=Check MP4=FrzG4/GTBas2
 ---------------------------------------------------------

 Structure from the checkpoint file:  "G4.Frag_864.chk"
 --------
 Frag_864
 --------
 Charge =  0 Multiplicity = 1

 SCF Done:  E(RHF) =  -336.705934474     A.U. after   12 cycles
 E2 =    -0.9422364436D+00 EUMP2 =    -0.33764817091771D+03
 Normal termination of Gaussian 09 at Sat Aug 20 17:15:13 2022.

 ---------------------------------------------------------
 #P Geom=AllCheck Guess=TCheck SCRF=Check MP4=FrzG4/GTBas3
 ---------------------------------------------------------

 Structure from the checkpoint file:  "G4.Frag_864.chk"
 --------
 Frag_864
 --------
 Charge =  0 Multiplicity = 1

 SCF Done:  E(RHF) =  -336.736927895     A.U. after   12 cycles
 E2 =    -0.1121618298D+01 EUMP2 =    -0.33785854619309D+03
 Normal termination of Gaussian 09 at Sat Aug 20 18:45:15 2022.

 -----------------------------------------------------------
 #P Geom=AllCheck Guess=TCheck SCRF=Check MP2=Full/GTLargeXP
 -----------------------------------------------------------

 Structure from the checkpoint file:  "G4.Frag_864.chk"
 --------
 Frag_864
 --------
 Charge =  0 Multiplicity = 1

 SCF Done:  E(RHF) =  -336.831032339     A.U. after   13 cycles
 E2 =    -0.1466206918D+01 EUMP2 =    -0.33829723925682D+03
 Normal termination of Gaussian 09 at Sat Aug 20 18:48:52 2022.
 SCF Done:  E(RHF) =  -336.857509371     A.U. after    9 cycles
 Normal termination of Gaussian 09 at Sat Aug 20 18:52:45 2022.

                         Standard orientation:
 ---------------------------------------------------------------------
 Center     Atomic      Atomic             Coordinates (Angstroms)
 Number     Number       Type             X           Y           Z
 ---------------------------------------------------------------------
      1          7           0       -1.520751    1.080995   -0.000041
      2          6           0       -0.758137    0.076760    0.000025
      3          8           0       -1.232086   -1.191312   -0.000004
      4          6           0        0.764555    0.159444    0.000205
      5          7           0        1.400377   -1.035435   -0.000025
      6          8           0        1.314103    1.243011   -0.000065
      7          1           0       -0.942532    1.923865    0.000022
      8          1           0       -2.198095   -1.127284   -0.000092
      9          1           0        0.881844   -1.896352   -0.000094
     10          1           0        2.406755   -1.049968   -0.000198
 ---------------------------------------------------------------------

 SCF Done:  E(RHF) =  -336.863042045     A.U. after    7 cycles

 The electronic state is 1-A.
 Alpha  occ. eigenvalues --  -20.62055 -20.54289 -15.60457 -15.56221 -11.38093
 Alpha  occ. eigenvalues --  -11.36194  -1.45364  -1.40517  -1.23623  -1.21577
 Alpha  occ. eigenvalues --   -0.93641  -0.80664  -0.77247  -0.72333  -0.70718
 Alpha  occ. eigenvalues --   -0.64186  -0.63259  -0.60953  -0.57974  -0.48180
 Alpha  occ. eigenvalues --   -0.45046  -0.44255  -0.42454
 Alpha virt. eigenvalues --    0.03322   0.04130   0.05562   0.05951   0.07203
 Alpha virt. eigenvalues --    0.07543   0.07621   0.09001   0.09798   0.11246
 Alpha virt. eigenvalues --    0.11638   0.11941   0.13879   0.14794   0.14898

 Mulliken charges:
               1
     1  N   -0.652063
     2  C    0.482795
     3  O   -0.576637
     4  C    0.585252
     5  N   -0.698145
     6  O   -0.634223
     7  H    0.335381
     8  H    0.422040
     9  H    0.362593
    10  H    0.373007
 Sum of Mulliken charges =  -0.00000

 Dipole moment (field-independent basis, Debye):
    X=              0.1664    Y=             -3.7267    Z=              0.0002  Tot=              3.7304
 Quadrupole moment (field-independent basis, Debye-Ang):
   XX=            -32.9923   YY=            -34.2534   ZZ=            -35.8681
   XY=             -2.6009   XZ=             -0.0004   YZ=              0.0014

 Normal termination of Gaussian 09 at Sat Aug 20 20:29:45 2022.
