 Gaussian 09, Revision E.01,
 Gaussian 09:  ES64L-G09RevE.01 30-Nov-2015

 -----
 #P G4
 -----

 --------
 Frag_771
 --------
 Symbolic Z-matrix:
 Charge =  0 Multiplicity = 1

 SCF Done:  E(RB3LYP) =  -300.078456874     A.U. after   14 cycles
 SCF Done:  E(RB3LYP) =  -300.329143877     A.U. after   13 cycles
 SCF Done:  E(RB3LYP) =  -300.430104775     A.U. after   14 cycles
 SCF Done:  E(RB3LYP) =  -300.449731240     A.U. after   13 cycles
 SCF Done:  E(RB3LYP) =  -300.453707335     A.U. after   11 cycles
 SCF Done:  E(RB3LYP) =  -300.454038171     A.U. after   10 cycles
 SCF Done:  E(RB3LYP) =  -300.454067067     A.U. after    9 cycles
 SCF Done:  E(RB3LYP) =  -300.454068772     A.U. after    9 cycles
 SCF Done:  E(RB3LYP) =  -300.454072154     A.U. after    8 cycles
 SCF Done:  E(RB3LYP) =  -300.454073914     A.U. after    8 cycles
 SCF Done:  E(RB3LYP) =  -300.454869451     A.U. after   10 cycles
 SCF Done:  E(RB3LYP) =  -300.454876179     A.U. after    9 cycles
 SCF Done:  E(RB3LYP) =  -300.454876881     A.U. after    7 cycles
 Optimization completed.
    -- Stationary point found.
 Normal termination of Gaussian 09 at Tue Aug 30 12:26:18 2022.

 ----------------------------------------------------------
 #P Geom=AllCheck Guess=TCheck SCRF=Check B3LYP/GTBas3 Freq
 ----------------------------------------------------------

 Structure from the checkpoint file:  "G4.Frag_771.chk"
 --------
 Frag_771
 --------
 Charge =  0 Multiplicity = 1

 SCF Done:  E(RB3LYP) =  -300.454876881     A.U. after    1 cycles

  Exact polarizability:  44.151   2.714  33.024   1.357  -0.499  21.381
 Approx polarizability:  56.875   4.209  56.105   0.739  -0.893  31.179

                      1                      2                      3
                      A                      A                      A
 Frequencies --    154.6911               188.6645               336.2508
 Red. masses --      2.3895                 1.4244                 3.7448
 Frc consts  --      0.0337                 0.0299                 0.2495
 IR Inten    --     14.5520                47.3719                39.3197

                      4                      5                      6
                      A                      A                      A
 Frequencies --    368.0166               467.1713               508.1847
 Red. masses --      1.2584                 1.7625                 1.5414
 Frc consts  --      0.1004                 0.2266                 0.2345
 IR Inten    --    237.0220                 7.9525                10.0770

                      7                      8                      9
                      A                      A                      A
 Frequencies --    688.0824               772.4840               869.5891
 Red. masses --      5.4105                10.9505                 4.4793
 Frc consts  --      1.5093                 3.8500                 1.9957
 IR Inten    --      1.2237                21.9938                41.1285

                     10                     11                     12
                      A                      A                      A
 Frequencies --   1019.4620              1114.1815              1266.1217
 Red. masses --      6.3227                 1.9467                 1.3242
 Frc consts  --      3.8716                 1.4238                 1.2507
 IR Inten    --     28.8810                 2.7503                76.6210

                     13                     14                     15
                      A                      A                      A
 Frequencies --   1367.0501              1392.9631              1610.5326
 Red. masses --      2.8427                 1.2605                 1.2065
 Frc consts  --      3.1300                 1.4411                 1.8437
 IR Inten    --    312.5197                31.7997                91.1595

                     16                     17                     18
                      A                      A                      A
 Frequencies --   1656.6775              1835.9032              3378.7313
 Red. masses --      1.0863                 9.0155                 1.0492
 Frc consts  --      1.7566                17.9035                 7.0570
 IR Inten    --     74.3119               301.5771                21.9280

                     19                     20                     21
                      A                      A                      A
 Frequencies --   3473.4056              3610.3502              3738.3054
 Red. masses --      1.0914                 1.0451                 1.1034
 Frc consts  --      7.7576                 8.0263                 9.0850
 IR Inten    --      7.8778                49.5070                53.9879

 - Thermochemistry -
 -------------------
 Temperature   298.150 Kelvin.  Pressure   1.00000 Atm.
 Atom     1 has atomic number  7 and mass  14.00307

 Molecular mass:    76.02728 amu.
 Principal axes and moments of inertia in atomic units:
                           1         2         3
     Eigenvalues --   165.60689 406.02954 564.08931
           X            0.99862   0.04917   0.01863
           Y           -0.04914   0.99879  -0.00237
           Z           -0.01873   0.00145   0.99982
 This molecule is an asymmetric top.
 Rotational symmetry number  1.
 Rotational temperatures (Kelvin)      0.52301     0.21332     0.15355
 Rotational constants (GHZ):          10.89774     4.44485     3.19939
 Zero-point vibrational energy     178344.2 (Joules/Mol)
                                   42.62528 (Kcal/Mol)
 Warning -- explicit consideration of   6 degrees of freedom as
           vibrations may cause significant error
 Vibrational temperatures:    222.57   271.45   483.79   529.49   672.15
          (Kelvin)            731.16   990.00  1111.43  1251.14  1466.78
                             1603.06  1821.66  1966.88  2004.16  2317.19
                             2383.59  2641.45  4861.23  4997.45  5194.48
                             5378.58

 Zero-point correction=                           0.067928 (Hartree/Particle)
 Thermal correction to Energy=                    0.073519
 Thermal correction to Enthalpy=                  0.074463
 Thermal correction to Gibbs Free Energy=         0.039521
 Sum of electronic and zero-point Energies=           -300.386949
 Sum of electronic and thermal Energies=              -300.381358
 Sum of electronic and thermal Enthalpies=            -300.380414
 Sum of electronic and thermal Free Energies=         -300.415355

                     E (Thermal)             CV                S
                      KCal/Mol        Cal/Mol-Kelvin    Cal/Mol-Kelvin
 Total                   46.134             18.635             73.541
 Electronic               0.000              0.000              0.000
 Translational            0.889              2.981             38.901
 Rotational               0.889              2.981             25.143
 Vibrational             44.356             12.673              9.497
 Vibration     1          0.620              1.897              2.614
 Vibration     2          0.633              1.855              2.241
 Vibration     3          0.717              1.603              1.230
 Vibration     4          0.741              1.538              1.088
 Vibration     5          0.824              1.323              0.746
 Vibration     6          0.863              1.232              0.638

 Optimization completed.
    -- Stationary point found.
 Normal termination of Gaussian 09 at Tue Aug 30 12:26:35 2022.

 -----------------------------------------------------------------
 #P Geom=AllCheck Guess=TCheck SCRF=Check CCSD(T,E4T,FrzG4)/GTBas1
 -----------------------------------------------------------------

 Structure from the checkpoint file:  "G4.Frag_771.chk"
 --------
 Frag_771
 --------
 Charge =  0 Multiplicity = 1

 SCF Done:  E(RHF) =  -298.778405037     A.U. after   13 cycles
 E2 =    -0.8045035662D+00 EUMP2 =    -0.29958290860340D+03
 CCSD(T)
 CCSD(T)= -0.29963161386D+03
 SD=-299.6069151\CCSD(T)=-299.6316139\RMSD=7.291e-09\PG=C01 [X(C1H4N2O2
 Normal termination of Gaussian 09 at Tue Aug 30 12:27:26 2022.

 ---------------------------------------------------------
 #P Geom=AllCheck Guess=TCheck SCRF=Check MP4=FrzG4/GTBas2
 ---------------------------------------------------------

 Structure from the checkpoint file:  "G4.Frag_771.chk"
 --------
 Frag_771
 --------
 Charge =  0 Multiplicity = 1

 SCF Done:  E(RHF) =  -298.788814397     A.U. after   12 cycles
 E2 =    -0.8177314911D+00 EUMP2 =    -0.29960654588784D+03
 Normal termination of Gaussian 09 at Tue Aug 30 12:27:40 2022.

 ---------------------------------------------------------
 #P Geom=AllCheck Guess=TCheck SCRF=Check MP4=FrzG4/GTBas3
 ---------------------------------------------------------

 Structure from the checkpoint file:  "G4.Frag_771.chk"
 --------
 Frag_771
 --------
 Charge =  0 Multiplicity = 1

 SCF Done:  E(RHF) =  -298.816965986     A.U. after   12 cycles
 E2 =    -0.9811255222D+00 EUMP2 =    -0.29979809150788D+03
 Normal termination of Gaussian 09 at Tue Aug 30 12:28:41 2022.

 -----------------------------------------------------------
 #P Geom=AllCheck Guess=TCheck SCRF=Check MP2=Full/GTLargeXP
 -----------------------------------------------------------

 Structure from the checkpoint file:  "G4.Frag_771.chk"
 --------
 Frag_771
 --------
 Charge =  0 Multiplicity = 1

 SCF Done:  E(RHF) =  -298.902653023     A.U. after   12 cycles
 E2 =    -0.1275074802D+01 EUMP2 =    -0.30017772782549D+03
 Normal termination of Gaussian 09 at Tue Aug 30 12:29:19 2022.
 SCF Done:  E(RHF) =  -298.926706177     A.U. after    9 cycles
 Normal termination of Gaussian 09 at Tue Aug 30 12:30:01 2022.

                         Standard orientation:
 ---------------------------------------------------------------------
 Center     Atomic      Atomic             Coordinates (Angstroms)
 Number     Number       Type             X           Y           Z
 ---------------------------------------------------------------------
      1          7           0        1.854414   -0.163857   -0.083400
      2          8           0        0.544488   -0.764614   -0.041856
      3          6           0       -0.470077    0.145271    0.005823
      4          7           0       -1.664461   -0.506774    0.069283
      5          8           0       -0.312867    1.345217    0.004964
      6          1           0        1.651823    0.828855   -0.247413
      7          1           0        2.158567   -0.206684    0.891601
      8          1           0       -1.690342   -1.487638   -0.155004
      9          1           0       -2.482222    0.043434   -0.130169
 ---------------------------------------------------------------------

 SCF Done:  E(RHF) =  -298.931810543     A.U. after    8 cycles

 The electronic state is 1-A.
 Alpha  occ. eigenvalues --  -20.62909 -20.54216 -15.62257 -15.59794 -11.41530
 Alpha  occ. eigenvalues --   -1.48687  -1.37831  -1.23807  -1.11054  -0.83534
 Alpha  occ. eigenvalues --   -0.76966  -0.73109  -0.69514  -0.65974  -0.62874
 Alpha  occ. eigenvalues --   -0.57408  -0.52261  -0.47872  -0.44807  -0.43935
 Alpha virt. eigenvalues --    0.03698   0.04912   0.05764   0.05959   0.08769
 Alpha virt. eigenvalues --    0.09022   0.09668   0.11388   0.11490   0.12151
 Alpha virt. eigenvalues --    0.14508   0.15168   0.16426   0.16899   0.18101

 Mulliken charges:
               1
     1  N   -0.484574
     2  O   -0.281838
     3  C    0.753376
     4  N   -0.690354
     5  O   -0.638890
     6  H    0.340789
     7  H    0.306111
     8  H    0.343743
     9  H    0.351636
 Sum of Mulliken charges =  -0.00000

 Dipole moment (field-independent basis, Debye):
    X=             -1.5521    Y=             -1.4196    Z=              0.5552  Tot=              2.1754
 Quadrupole moment (field-independent basis, Debye-Ang):
   XX=            -22.7675   YY=            -32.2104   ZZ=            -29.2263
   XY=              4.8009   XZ=              4.7529   YZ=             -0.3845

 Normal termination of Gaussian 09 at Tue Aug 30 12:33:57 2022.
