 Gaussian 09, Revision E.01,
 Gaussian 09:  ES64L-G09RevE.01 30-Nov-2015

 -----
 #P G4
 -----

 --------
 Frag_804
 --------
 Symbolic Z-matrix:
 Charge =  0 Multiplicity = 1

 SCF Done:  E(RB3LYP) =  -287.520792426     A.U. after   14 cycles
 SCF Done:  E(RB3LYP) =  -287.658297655     A.U. after   15 cycles
 SCF Done:  E(RB3LYP) =  -287.701277809     A.U. after   16 cycles
 SCF Done:  E(RB3LYP) =  -287.749097559     A.U. after   16 cycles
 SCF Done:  E(RB3LYP) =  -287.759935663     A.U. after   14 cycles
 SCF Done:  E(RB3LYP) =  -287.764086523     A.U. after   14 cycles
 SCF Done:  E(RB3LYP) =  -287.764812794     A.U. after   16 cycles
 SCF Done:  E(RB3LYP) =  -287.765456003     A.U. after   17 cycles
 SCF Done:  E(RB3LYP) =  -287.765763213     A.U. after   17 cycles
 SCF Done:  E(RB3LYP) =  -287.766369603     A.U. after   13 cycles
 SCF Done:  E(RB3LYP) =  -287.766715202     A.U. after    8 cycles
 SCF Done:  E(RB3LYP) =  -287.766715208     A.U. after    6 cycles
 SCF Done:  E(RB3LYP) =  -287.766715300     A.U. after    6 cycles
 Optimization completed.
    -- Stationary point found.
 Normal termination of Gaussian 09 at Tue Aug 30 12:32:02 2022.

 ----------------------------------------------------------
 #P Geom=AllCheck Guess=TCheck SCRF=Check B3LYP/GTBas3 Freq
 ----------------------------------------------------------

 Structure from the checkpoint file:  "G4.Frag_804.chk"
 --------
 Frag_804
 --------
 Charge =  0 Multiplicity = 1

 SCF Done:  E(RB3LYP) =  -287.766715300     A.U. after    1 cycles

  Exact polarizability:  60.521  -0.006  51.281   1.349  -0.001  51.598
 Approx polarizability:  94.183  -0.014  70.688   3.035  -0.010  72.898

                      1                      2                      3
                      A                      A                      A
 Frequencies --     81.8495               163.1039               217.4301
 Red. masses --      5.5802                 1.0146                 1.0464
 Frc consts  --      0.0220                 0.0159                 0.0291
 IR Inten    --      0.0263                 0.0000                 0.0071

                      4                      5                      6
                      A                      A                      A
 Frequencies --    231.0450               297.6238               333.3692
 Red. masses --      1.0518                 2.9026                 2.5928
 Frc consts  --      0.0331                 0.1515                 0.1698
 IR Inten    --      0.2135                 1.0350                 1.2070

                      7                      8                      9
                      A                      A                      A
 Frequencies --    354.6326               386.0478               435.7026
 Red. masses --      2.8456                 2.4066                 3.2680
 Frc consts  --      0.2109                 0.2113                 0.3655
 IR Inten    --      1.1951                 0.0852                 4.1290

                     10                     11                     12
                      A                      A                      A
 Frequencies --    586.7678               763.1603               793.3785
 Red. masses --      3.5995                 4.8210                 3.2849
 Frc consts  --      0.7302                 1.6543                 1.2182
 IR Inten    --      0.9008                 9.5973                23.7559

                     13                     14                     15
                      A                      A                      A
 Frequencies --    937.9752               938.0048               964.7813
 Red. masses --      1.6598                 1.5618                 1.2093
 Frc consts  --      0.8604                 0.8096                 0.6632
 IR Inten    --      0.6095                 0.4740                 0.0099

                     16                     17                     18
                      A                      A                      A
 Frequencies --   1007.7895              1050.0128              1211.0333
 Red. masses --      1.4249                 1.4843                 2.1364
 Frc consts  --      0.8526                 0.9642                 1.8461
 IR Inten    --      0.4011                 1.7145                 0.9197

                     19                     20                     21
                      A                      A                      A
 Frequencies --   1222.7462              1287.6913              1387.9852
 Red. masses --      2.5962                 3.1547                 1.2118
 Frc consts  --      2.2870                 3.0820                 1.3754
 IR Inten    --      7.2810                10.3231                 3.7363

                     22                     23                     24
                      A                      A                      A
 Frequencies --   1397.3692              1420.9113              1470.7094
 Red. masses --      1.2624                 1.2208                 1.0472
 Frc consts  --      1.4523                 1.4522                 1.3345
 IR Inten    --     10.3105                 1.4122                 0.0018

                     25                     26                     27
                      A                      A                      A
 Frequencies --   1477.3169              1484.4213              1492.8145
 Red. masses --      1.0447                 1.0470                 1.0483
 Frc consts  --      1.3433                 1.3593                 1.3765
 IR Inten    --      0.0541                 0.5933                 4.3256

                     28                     29                     30
                      A                      A                      A
 Frequencies --   1497.0225              1514.9974              1675.9504
 Red. masses --      1.0653                 1.0566                13.9325
 Frc consts  --      1.4067                 1.4289                23.0570
 IR Inten    --      5.6409                14.3136                96.6093

                     31                     32                     33
                      A                      A                      A
 Frequencies --   3037.3406              3039.4359              3047.8646
 Red. masses --      1.0336                 1.0343                 1.0354
 Frc consts  --      5.6181                 5.6295                 5.6671
 IR Inten    --     21.1513                11.8205                10.3043

                     34                     35                     36
                      A                      A                      A
 Frequencies --   3111.0149              3112.1181              3117.7099
 Red. masses --      1.1025                 1.1021                 1.1023
 Frc consts  --      6.2868                 6.2892                 6.3126
 IR Inten    --      8.5872                 7.0427                 0.9726

                     37                     38                     39
                      A                      A                      A
 Frequencies --   3119.3823              3121.6295              3123.2153
 Red. masses --      1.1014                 1.1015                 1.1011
 Frc consts  --      6.3143                 6.3240                 6.3284
 IR Inten    --     25.9987                31.4122                24.0120

 - Thermochemistry -
 -------------------
 Temperature   298.150 Kelvin.  Pressure   1.00000 Atm.
 Atom     1 has atomic number  6 and mass  12.00000

 Molecular mass:    87.06841 amu.
 Principal axes and moments of inertia in atomic units:
                           1         2         3
     Eigenvalues --   405.65183 615.16463 620.93918
           X            0.99846   0.05544   0.00001
           Y            0.00027  -0.00496   0.99999
           Z           -0.05544   0.99845   0.00496
 This molecule is an asymmetric top.
 Rotational symmetry number  1.
 Rotational temperatures (Kelvin)      0.21352     0.14080     0.13949
 Rotational constants (GHZ):           4.44899     2.93375     2.90647
 Zero-point vibrational energy     334436.1 (Joules/Mol)
                                   79.93215 (Kcal/Mol)
 Warning -- explicit consideration of  10 degrees of freedom as
           vibrations may cause significant error
 Vibrational temperatures:    117.76   234.67   312.83   332.42   428.21
          (Kelvin)            479.64   510.24   555.44   626.88   844.23
                             1098.02  1141.49  1349.54  1349.58  1388.10
                             1449.98  1510.73  1742.40  1759.26  1852.70
                             1997.00  2010.50  2044.37  2116.02  2125.53
                             2135.75  2147.82  2153.88  2179.74  2411.32
                             4370.05  4373.06  4385.19  4476.05  4477.64
                             4485.68  4488.09  4491.32  4493.60

 Zero-point correction=                           0.127380 (Hartree/Particle)
 Thermal correction to Energy=                    0.135047
 Thermal correction to Enthalpy=                  0.135992
 Thermal correction to Gibbs Free Energy=         0.096360
 Sum of electronic and zero-point Energies=           -287.639335
 Sum of electronic and thermal Energies=              -287.631668
 Sum of electronic and thermal Enthalpies=            -287.630724
 Sum of electronic and thermal Free Energies=         -287.670355

                     E (Thermal)             CV                S
                      KCal/Mol        Cal/Mol-Kelvin    Cal/Mol-Kelvin
 Total                   84.744             26.977             83.411
 Electronic               0.000              0.000              0.000
 Translational            0.889              2.981             39.305
 Rotational               0.889              2.981             26.541
 Vibrational             82.966             21.016             17.565
 Vibration     1          0.600              1.962              3.846
 Vibration     2          0.623              1.888              2.513
 Vibration     3          0.646              1.815              1.980
 Vibration     4          0.653              1.794              1.871
 Vibration     5          0.691              1.678              1.430
 Vibration     6          0.715              1.609              1.244
 Vibration     7          0.730              1.566              1.146
 Vibration     8          0.755              1.500              1.015
 Vibration     9          0.796              1.392              0.840
 Vibration    10          0.944              1.060              0.473

 Optimization completed.
    -- Stationary point found.
 Normal termination of Gaussian 09 at Tue Aug 30 12:32:37 2022.

 -----------------------------------------------------------------
 #P Geom=AllCheck Guess=TCheck SCRF=Check CCSD(T,E4T,FrzG4)/GTBas1
 -----------------------------------------------------------------

 Structure from the checkpoint file:  "G4.Frag_804.chk"
 --------
 Frag_804
 --------
 Charge =  0 Multiplicity = 1

 SCF Done:  E(RHF) =  -285.938626011     A.U. after   13 cycles
 E2 =    -0.8692548349D+00 EUMP2 =    -0.28680788084633D+03
 CCSD(T)
 CCSD(T)= -0.28689277633D+03
 8616036\CCSD(T)=-286.8927763\RMSD=2.815e-09\PG=C01 [X(C4H9N1O1)]\\@
 Normal termination of Gaussian 09 at Tue Aug 30 12:34:51 2022.

 ---------------------------------------------------------
 #P Geom=AllCheck Guess=TCheck SCRF=Check MP4=FrzG4/GTBas2
 ---------------------------------------------------------

 Structure from the checkpoint file:  "G4.Frag_804.chk"
 --------
 Frag_804
 --------
 Charge =  0 Multiplicity = 1

 SCF Done:  E(RHF) =  -285.945300156     A.U. after   12 cycles
 E2 =    -0.8802386827D+00 EUMP2 =    -0.28682553883823D+03
 Normal termination of Gaussian 09 at Tue Aug 30 12:35:38 2022.

 ---------------------------------------------------------
 #P Geom=AllCheck Guess=TCheck SCRF=Check MP4=FrzG4/GTBas3
 ---------------------------------------------------------

 Structure from the checkpoint file:  "G4.Frag_804.chk"
 --------
 Frag_804
 --------
 Charge =  0 Multiplicity = 1

 SCF Done:  E(RHF) =  -285.970800145     A.U. after   12 cycles
 E2 =    -0.1068476864D+01 EUMP2 =    -0.28703927700891D+03
 Normal termination of Gaussian 09 at Tue Aug 30 12:39:37 2022.

 -----------------------------------------------------------
 #P Geom=AllCheck Guess=TCheck SCRF=Check MP2=Full/GTLargeXP
 -----------------------------------------------------------

 Structure from the checkpoint file:  "G4.Frag_804.chk"
 --------
 Frag_804
 --------
 Charge =  0 Multiplicity = 1

 SCF Done:  E(RHF) =  -286.038840416     A.U. after   12 cycles
 E2 =    -0.1398418134D+01 EUMP2 =    -0.28743725855019D+03
 Normal termination of Gaussian 09 at Tue Aug 30 12:41:44 2022.
 SCF Done:  E(RHF) =  -286.061810616     A.U. after    9 cycles
 Normal termination of Gaussian 09 at Tue Aug 30 12:43:57 2022.

                         Standard orientation:
 ---------------------------------------------------------------------
 Center     Atomic      Atomic             Coordinates (Angstroms)
 Number     Number       Type             X           Y           Z
 ---------------------------------------------------------------------
      1          6           0       -1.073231    1.265179   -0.398507
      2          6           0       -0.318964   -0.000185    0.042961
      3          6           0       -1.072998   -1.261583   -0.410189
      4          6           0       -0.015981   -0.007097    1.536649
      5          7           0        0.935245    0.003888   -0.813391
      6          8           0        1.968912    0.000972   -0.200006
      7          1           0       -2.070827    1.280366    0.050573
      8          1           0       -0.541883    2.168675   -0.084133
      9          1           0       -1.182051    1.292268   -1.486369
     10          1           0       -0.541194   -2.167825   -0.104619
     11          1           0       -2.070346   -1.281332    0.039226
     12          1           0       -1.182294   -1.278406   -1.498213
     13          1           0        0.563422    0.873390    1.826542
     14          1           0        0.563667   -0.890103    1.818252
     15          1           0       -0.949459   -0.009905    2.107042
 ---------------------------------------------------------------------

 SCF Done:  E(RHF) =  -286.066528906     A.U. after    7 cycles

 The electronic state is 1-A.
 Alpha  occ. eigenvalues --  -20.62040 -15.68959 -11.27906 -11.23136 -11.23135
 Alpha  occ. eigenvalues --  -11.22301  -1.51122  -1.13300  -0.95923  -0.95146
 Alpha  occ. eigenvalues --   -0.93664  -0.76534  -0.68234  -0.66909  -0.63256
 Alpha  occ. eigenvalues --   -0.60226  -0.57673  -0.55595  -0.54530  -0.54289
 Alpha  occ. eigenvalues --   -0.52868  -0.48640  -0.48357  -0.38609
 Alpha virt. eigenvalues --    0.03240   0.03991   0.04102   0.05415   0.06902
 Alpha virt. eigenvalues --    0.06934   0.07351   0.07382   0.08393   0.09716
 Alpha virt. eigenvalues --    0.10261   0.10513   0.11203   0.11484   0.14018

 Mulliken charges:
               1
     1  C   -0.554232
     2  C    0.310770
     3  C   -0.554206
     4  C   -0.573053
     5  N    0.034368
     6  O   -0.293177
     7  H    0.176442
     8  H    0.178783
     9  H    0.190529
    10  H    0.178793
    11  H    0.176444
    12  H    0.190510
    13  H    0.179767
    14  H    0.179781
    15  H    0.178481
 Sum of Mulliken charges =  -0.00000

 Dipole moment (field-independent basis, Debye):
    X=             -2.6643    Y=             -0.0042    Z=              0.8752  Tot=              2.8043
 Quadrupole moment (field-independent basis, Debye-Ang):
   XX=            -42.0717   YY=            -36.5019   ZZ=            -39.1624
   XY=             -0.0061   XZ=              1.2925   YZ=              0.0126

 Normal termination of Gaussian 09 at Tue Aug 30 12:51:12 2022.
