 Gaussian 09, Revision E.01,
 Gaussian 09:  ES64L-G09RevE.01 30-Nov-2015

 -----
 #P G4
 -----

 ---------
 Frag_1145
 ---------
 Symbolic Z-matrix:
 Charge =  0 Multiplicity = 1

 SCF Done:  E(RB3LYP) =  -245.778685463     A.U. after   16 cycles
 SCF Done:  E(RB3LYP) =  -245.790684726     A.U. after   13 cycles
 SCF Done:  E(RB3LYP) =  -245.793001612     A.U. after   14 cycles
 SCF Done:  E(RB3LYP) =  -245.793471820     A.U. after   11 cycles
 SCF Done:  E(RB3LYP) =  -245.793583968     A.U. after   10 cycles
 SCF Done:  E(RB3LYP) =  -245.793625109     A.U. after   10 cycles
 SCF Done:  E(RB3LYP) =  -245.793644103     A.U. after   10 cycles
 SCF Done:  E(RB3LYP) =  -245.793654965     A.U. after   10 cycles
 SCF Done:  E(RB3LYP) =  -245.793656224     A.U. after    7 cycles
 SCF Done:  E(RB3LYP) =  -245.793656382     A.U. after    6 cycles
 Optimization completed.
    -- Stationary point found.
 Normal termination of Gaussian 09 at Thu Aug 25 19:18:50 2022.

 ----------------------------------------------------------
 #P Geom=AllCheck Guess=TCheck SCRF=Check B3LYP/GTBas3 Freq
 ----------------------------------------------------------

 Structure from the checkpoint file:  "G4.Frag_1145.chk"
 ---------
 Frag_1145
 ---------
 Charge =  0 Multiplicity = 1

 SCF Done:  E(RB3LYP) =  -245.793656382     A.U. after    1 cycles

  Exact polarizability:  60.104  -2.761  46.525  -2.351   0.348  44.538
 Approx polarizability:  78.662  -3.770  67.103  -4.335   3.195  67.806

                      1                      2                      3
                      A                      A                      A
 Frequencies --    152.0883               196.0860               224.5676
 Red. masses --      2.4438                 1.0383                 1.3221
 Frc consts  --      0.0333                 0.0235                 0.0393
 IR Inten    --     31.4470                 1.4559                25.7428

                      4                      5                      6
                      A                      A                      A
 Frequencies --    275.1604               318.9844               399.0589
 Red. masses --      1.5903                 1.4628                 2.1245
 Frc consts  --      0.0709                 0.0877                 0.1993
 IR Inten    --     16.5577                19.5513                15.8447

                      7                      8                      9
                      A                      A                      A
 Frequencies --    506.6318               522.4074               763.8090
 Red. masses --      2.2624                 2.4508                 3.1857
 Frc consts  --      0.3421                 0.3941                 1.0950
 IR Inten    --     56.7462                 5.6160                68.7991

                     10                     11                     12
                      A                      A                      A
 Frequencies --    802.9782               846.1392               936.2430
 Red. masses --      2.5073                 2.2355                 2.1815
 Frc consts  --      0.9525                 0.9430                 1.1266
 IR Inten    --    116.6015                17.4001                22.1145

                     13                     14                     15
                      A                      A                      A
 Frequencies --    981.8405              1074.7743              1097.7077
 Red. masses --      1.1715                 1.3561                 1.4986
 Frc consts  --      0.6654                 0.9230                 1.0639
 IR Inten    --      5.7146                 7.5752                23.0856

                     16                     17                     18
                      A                      A                      A
 Frequencies --   1110.9067              1187.6669              1248.8848
 Red. masses --      1.8657                 2.0486                 1.8486
 Frc consts  --      1.3566                 1.7026                 1.6988
 IR Inten    --     31.4470                42.1711                 7.3704

                     19                     20                     21
                      A                      A                      A
 Frequencies --   1335.5983              1388.7230              1402.9169
 Red. masses --      1.3845                 1.1824                 1.4159
 Frc consts  --      1.4551                 1.3436                 1.6419
 IR Inten    --     45.8601                 9.3687                23.1876

                     22                     23                     24
                      A                      A                      A
 Frequencies --   1467.2002              1480.4539              1493.6779
 Red. masses --      1.1381                 1.0462                 1.0561
 Frc consts  --      1.4435                 1.3510                 1.3883
 IR Inten    --     26.3104                 2.6360                 1.8497

                     25                     26                     27
                      A                      A                      A
 Frequencies --   1600.9363              1632.7424              1662.2768
 Red. masses --      1.0600                 1.0986                 1.0539
 Frc consts  --      1.6006                 1.7256                 1.7158
 IR Inten    --     21.6658                 6.1866                46.7280

                     28                     29                     30
                      A                      A                      A
 Frequencies --   2755.5185              3036.0448              3043.5745
 Red. masses --      1.0770                 1.0842                 1.0363
 Frc consts  --      4.8179                 5.8880                 5.6560
 IR Inten    --    173.3987                65.2909                13.8452

                     31                     32                     33
                      A                      A                      A
 Frequencies --   3099.2591              3112.5965              3133.3192
 Red. masses --      1.0424                 1.0991                 1.1031
 Frc consts  --      5.8994                 6.2740                 6.3808
 IR Inten    --    188.5566                30.4887                24.1253

                     34                     35                     36
                      A                      A                      A
 Frequencies --   3456.9480              3518.6072              3554.4805
 Red. masses --      1.0475                 1.0772                 1.0933
 Frc consts  --      7.3756                 7.8575                 8.1387
 IR Inten    --      6.2900                43.9260                 3.9943

 - Thermochemistry -
 -------------------
 Temperature   298.150 Kelvin.  Pressure   1.00000 Atm.
 Atom     1 has atomic number  6 and mass  12.00000

 Molecular mass:    75.07965 amu.
 Principal axes and moments of inertia in atomic units:
                           1         2         3
     Eigenvalues --   226.98314 477.54079 638.92561
           X            0.99851  -0.05380  -0.00888
           Y            0.05362   0.99838  -0.01879
           Z            0.00987   0.01829   0.99978
 This molecule is an asymmetric top.
 Rotational symmetry number  1.
 Rotational temperatures (Kelvin)      0.38159     0.18137     0.13556
 Rotational constants (GHZ):           7.95099     3.77924     2.82465
 Zero-point vibrational energy     327901.3 (Joules/Mol)
                                   78.37028 (Kcal/Mol)
 Warning -- explicit consideration of   8 degrees of freedom as
           vibrations may cause significant error
 Vibrational temperatures:    218.82   282.12   323.10   395.89   458.95
          (Kelvin)            574.16   728.93   751.63  1098.95  1155.31
                             1217.40  1347.04  1412.65  1546.36  1579.35
                             1598.35  1708.79  1796.86  1921.63  1998.06
                             2018.48  2110.97  2130.04  2149.07  2303.39
                             2349.15  2391.64  3964.57  4368.19  4379.02
                             4459.14  4478.33  4508.14  4973.77  5062.48
                             5114.10

 Zero-point correction=                           0.124891 (Hartree/Particle)
 Thermal correction to Energy=                    0.131517
 Thermal correction to Enthalpy=                  0.132461
 Thermal correction to Gibbs Free Energy=         0.095563
 Sum of electronic and zero-point Energies=           -245.668765
 Sum of electronic and thermal Energies=              -245.662139
 Sum of electronic and thermal Enthalpies=            -245.661195
 Sum of electronic and thermal Free Energies=         -245.698093

                     E (Thermal)             CV                S
                      KCal/Mol        Cal/Mol-Kelvin    Cal/Mol-Kelvin
 Total                   82.528             23.534             77.659
 Electronic               0.000              0.000              0.000
 Translational            0.889              2.981             38.864
 Rotational               0.889              2.981             25.741
 Vibrational             80.751             17.572             13.054
 Vibration     1          0.619              1.900              2.646
 Vibration     2          0.636              1.845              2.170
 Vibration     3          0.649              1.804              1.922
 Vibration     4          0.677              1.719              1.564
 Vibration     5          0.705              1.637              1.315
 Vibration     6          0.765              1.472              0.966
 Vibration     7          0.862              1.235              0.642
 Vibration     8          0.877              1.200              0.604

 Optimization completed.
    -- Stationary point found.
 Normal termination of Gaussian 09 at Thu Aug 25 19:20:46 2022.

 -----------------------------------------------------------------
 #P Geom=AllCheck Guess=TCheck SCRF=Check CCSD(T,E4T,FrzG4)/GTBas1
 -----------------------------------------------------------------

 Structure from the checkpoint file:  "G4.Frag_1145.chk"
 ---------
 Frag_1145
 ---------
 Charge =  0 Multiplicity = 1

 SCF Done:  E(RHF) =  -244.186707008     A.U. after   12 cycles
 E2 =    -0.7622657787D+00 EUMP2 =    -0.24494897278642D+03
 CCSD(T)
 CCSD(T)= -0.24502323128D+03
 Q=-244.9989242\CCSD=-245.0001821\CCSD(T)=-245.0232313\RMSD=9.906e-09\P
 Normal termination of Gaussian 09 at Thu Aug 25 19:23:42 2022.

 ---------------------------------------------------------
 #P Geom=AllCheck Guess=TCheck SCRF=Check MP4=FrzG4/GTBas2
 ---------------------------------------------------------

 Structure from the checkpoint file:  "G4.Frag_1145.chk"
 ---------
 Frag_1145
 ---------
 Charge =  0 Multiplicity = 1

 SCF Done:  E(RHF) =  -244.199820838     A.U. after   13 cycles
 E2 =    -0.7769197360D+00 EUMP2 =    -0.24497674057389D+03
 Normal termination of Gaussian 09 at Thu Aug 25 19:27:30 2022.

 ---------------------------------------------------------
 #P Geom=AllCheck Guess=TCheck SCRF=Check MP4=FrzG4/GTBas3
 ---------------------------------------------------------

 Structure from the checkpoint file:  "G4.Frag_1145.chk"
 ---------
 Frag_1145
 ---------
 Charge =  0 Multiplicity = 1

 SCF Done:  E(RHF) =  -244.224661734     A.U. after   12 cycles
 E2 =    -0.9392235417D+00 EUMP2 =    -0.24516388527577D+03
 Normal termination of Gaussian 09 at Thu Aug 25 20:28:31 2022.

 -----------------------------------------------------------
 #P Geom=AllCheck Guess=TCheck SCRF=Check MP2=Full/GTLargeXP
 -----------------------------------------------------------

 Structure from the checkpoint file:  "G4.Frag_1145.chk"
 ---------
 Frag_1145
 ---------
 Charge =  0 Multiplicity = 1

 SCF Done:  E(RHF) =  -244.292909984     A.U. after   12 cycles
 E2 =    -0.1223562845D+01 EUMP2 =    -0.24551647282868D+03
 Normal termination of Gaussian 09 at Thu Aug 25 20:31:56 2022.
 SCF Done:  E(RHF) =  -244.311771821     A.U. after    9 cycles
 Normal termination of Gaussian 09 at Thu Aug 25 20:36:04 2022.

                         Standard orientation:
 ---------------------------------------------------------------------
 Center     Atomic      Atomic             Coordinates (Angstroms)
 Number     Number       Type             X           Y           Z
 ---------------------------------------------------------------------
      1          6           0        1.758287   -0.688578   -0.001626
      2          6           0        0.424626   -0.006964    0.298205
      3          7           0        0.536784    1.435846   -0.090691
      4          7           0       -0.594934   -0.774152   -0.350262
      5          7           0       -1.842529   -0.189129    0.058678
      6          1           0        1.934979   -0.694694   -1.082433
      7          1           0        2.579675   -0.155599    0.482236
      8          1           0        1.737804   -1.726302    0.340699
      9          1           0        0.295534    0.036747    1.410134
     10          1           0        0.393633    1.507126   -1.096751
     11          1           0       -0.164724    2.015226    0.361179
     12          1           0       -2.586304   -0.705188   -0.407576
     13          1           0       -2.034126   -0.226810    1.085229
     14          1           0       -1.949195    0.814797   -0.196265
 ---------------------------------------------------------------------

 SCF Done:  E(RHF) =  -244.316122236     A.U. after    8 cycles

 The electronic state is 1-A.
 Alpha  occ. eigenvalues --  -15.69179 -15.52283 -15.48846 -11.25368 -11.18204
 Alpha  occ. eigenvalues --   -1.31806  -1.16200  -1.03674  -0.92965  -0.78602
 Alpha  occ. eigenvalues --   -0.74169  -0.72985  -0.65992  -0.62234  -0.55923
 Alpha  occ. eigenvalues --   -0.50506  -0.49179  -0.47921  -0.41856  -0.37491
 Alpha  occ. eigenvalues --   -0.30308
 Alpha virt. eigenvalues --    0.02012   0.04816   0.05153   0.05299   0.07635
 Alpha virt. eigenvalues --    0.07895   0.08088   0.09479   0.09884   0.10771
 Alpha virt. eigenvalues --    0.11331   0.12679   0.13257   0.14865   0.14940

 Mulliken charges:
               1
     1  C   -0.510900
     2  C    0.169684
     3  N   -0.747253
     4  N   -0.609957
     5  N   -0.455829
     6  H    0.162980
     7  H    0.173466
     8  H    0.171374
     9  H    0.065610
    10  H    0.300352
    11  H    0.262827
    12  H    0.364831
    13  H    0.327360
    14  H    0.325456
 Sum of Mulliken charges =  -0.00000

 Dipole moment (field-independent basis, Debye):
    X=             -5.3991    Y=              1.6576    Z=              1.2897  Tot=              5.7933
 Quadrupole moment (field-independent basis, Debye-Ang):
   XX=            -22.8013   YY=            -37.1051   ZZ=            -32.6093
   XY=             -3.5860   XZ=             -1.8452   YZ=             -2.1203

 Normal termination of Gaussian 09 at Thu Aug 25 22:24:27 2022.
