 Gaussian 09, Revision E.01,
 Gaussian 09:  ES64L-G09RevE.01 30-Nov-2015

 -----
 #P G4
 -----

 ---------
 Frag_1147
 ---------
 Symbolic Z-matrix:
 Charge =  0 Multiplicity = 1

 SCF Done:  E(RB3LYP) =  -322.411570175     A.U. after   16 cycles
 SCF Done:  E(RB3LYP) =  -322.430619862     A.U. after   14 cycles
 SCF Done:  E(RB3LYP) =  -322.433738377     A.U. after   13 cycles
 SCF Done:  E(RB3LYP) =  -322.434736036     A.U. after   13 cycles
 SCF Done:  E(RB3LYP) =  -322.435235563     A.U. after   12 cycles
 SCF Done:  E(RB3LYP) =  -322.435505277     A.U. after   13 cycles
 SCF Done:  E(RB3LYP) =  -322.435625249     A.U. after   12 cycles
 SCF Done:  E(RB3LYP) =  -322.435658983     A.U. after   11 cycles
 SCF Done:  E(RB3LYP) =  -322.435666434     A.U. after    9 cycles
 SCF Done:  E(RB3LYP) =  -322.435667735     A.U. after    8 cycles
 Optimization completed.
    -- Stationary point found.
 Normal termination of Gaussian 09 at Fri Aug 26 14:38:09 2022.

 ----------------------------------------------------------
 #P Geom=AllCheck Guess=TCheck SCRF=Check B3LYP/GTBas3 Freq
 ----------------------------------------------------------

 Structure from the checkpoint file:  "G4.Frag_1147.chk"
 ---------
 Frag_1147
 ---------
 Charge =  0 Multiplicity = 1

 SCF Done:  E(RB3LYP) =  -322.435667735     A.U. after    1 cycles

  Exact polarizability:  59.284 -12.882  64.643   0.404   0.065  26.118
 Approx polarizability:  83.565 -24.870 131.512   1.399   4.006  40.852

                      1                      2                      3
                      A                      A                      A
 Frequencies --     94.3313               307.8078               331.6887
 Red. masses --      4.7164                 1.2176                 3.3196
 Frc consts  --      0.0247                 0.0680                 0.2152
 IR Inten    --     11.3184                92.9655                27.1674

                      4                      5                      6
                      A                      A                      A
 Frequencies --    415.2745               425.9209               547.6192
 Red. masses --      2.4333                 3.4272                 4.6608
 Frc consts  --      0.2472                 0.3663                 0.8235
 IR Inten    --     16.1490                 4.5895                 4.1992

                      7                      8                      9
                      A                      A                      A
 Frequencies --    561.4954               680.5802               726.0265
 Red. masses --      2.8177                 1.6446                 1.4481
 Frc consts  --      0.5234                 0.4488                 0.4497
 IR Inten    --     19.3182                13.4116                16.6034

                     10                     11                     12
                      A                      A                      A
 Frequencies --    778.4399               778.8105               792.9512
 Red. masses --      1.1899                 2.8572                 1.9066
 Frc consts  --      0.4248                 1.0211                 0.7063
 IR Inten    --      6.3850                 4.0745                37.8304

                     13                     14                     15
                      A                      A                      A
 Frequencies --    911.9655               969.9712              1096.1444
 Red. masses --      1.3646                 2.0562                 2.0423
 Frc consts  --      0.6687                 1.1398                 1.4458
 IR Inten    --     41.7292                27.5571                20.8752

                     16                     17                     18
                      A                      A                      A
 Frequencies --   1214.0649              1278.8874              1344.8925
 Red. masses --      1.8092                 1.7653                 2.8454
 Frc consts  --      1.5712                 1.7011                 3.0322
 IR Inten    --      0.1246               216.4557                 2.8008

                     19                     20                     21
                      A                      A                      A
 Frequencies --   1401.1940              1454.7546              1605.7982
 Red. masses --      1.1846                 1.4888                 6.2089
 Frc consts  --      1.3703                 1.8563                 9.4329
 IR Inten    --      7.9505                24.3414               152.8982

                     22                     23                     24
                      A                      A                      A
 Frequencies --   1761.4825              3200.6591              3205.6388
 Red. masses --      6.5830                 1.0602                 1.0509
 Frc consts  --     12.0346                 6.3992                 6.3625
 IR Inten    --     30.9612                 4.3831                 4.0895

                     25                     26                     27
                      A                      A                      A
 Frequencies --   3309.3192              3335.7989              3770.9672
 Red. masses --      1.1176                 1.1246                 1.0653
 Frc consts  --      7.2111                 7.3733                 8.9250
 IR Inten    --      2.1950                 0.3928                39.7989

 - Thermochemistry -
 -------------------
 Temperature   298.150 Kelvin.  Pressure   1.00000 Atm.
 Atom     1 has atomic number  6 and mass  12.00000

 Molecular mass:    87.03203 amu.
 Principal axes and moments of inertia in atomic units:
                           1         2         3
     Eigenvalues --   322.45439 472.40148 775.97876
           X            0.98497  -0.17264  -0.00561
           Y            0.17255   0.98491  -0.01301
           Z            0.00777   0.01184   0.99990
 This molecule is an asymmetric top.
 Rotational symmetry number  1.
 Rotational temperatures (Kelvin)      0.26861     0.18335     0.11162
 Rotational constants (GHZ):           5.59689     3.82035     2.32576
 Zero-point vibrational energy     217137.1 (Joules/Mol)
                                   51.89701 (Kcal/Mol)
 Warning -- explicit consideration of   7 degrees of freedom as
           vibrations may cause significant error
 Vibrational temperatures:    135.72   442.87   477.23   597.49   612.80
          (Kelvin)            787.90   807.87   979.20  1044.59  1120.00
                             1120.53  1140.88  1312.11  1395.57  1577.11
                             1746.77  1840.03  1935.00  2016.00  2093.06
                             2310.38  2534.38  4605.03  4612.19  4761.37
                             4799.46  5425.57

 Zero-point correction=                           0.082703 (Hartree/Particle)
 Thermal correction to Energy=                    0.088674
 Thermal correction to Enthalpy=                  0.089618
 Thermal correction to Gibbs Free Energy=         0.053353
 Sum of electronic and zero-point Energies=           -322.352965
 Sum of electronic and thermal Energies=              -322.346993
 Sum of electronic and thermal Enthalpies=            -322.346049
 Sum of electronic and thermal Free Energies=         -322.382315

                     E (Thermal)             CV                S
                      KCal/Mol        Cal/Mol-Kelvin    Cal/Mol-Kelvin
 Total                   55.644             21.914             76.328
 Electronic               0.000              0.000              0.000
 Translational            0.889              2.981             39.304
 Rotational               0.889              2.981             26.272
 Vibrational             53.867             15.952             10.752
 Vibration     1          0.603              1.953              3.568
 Vibration     2          0.698              1.659              1.374
 Vibration     3          0.714              1.612              1.252
 Vibration     4          0.779              1.437              0.908
 Vibration     5          0.788              1.414              0.872
 Vibration     6          0.903              1.145              0.549
 Vibration     7          0.917              1.115              0.521

 Optimization completed.
    -- Stationary point found.
 Normal termination of Gaussian 09 at Fri Aug 26 14:38:34 2022.

 -----------------------------------------------------------------
 #P Geom=AllCheck Guess=TCheck SCRF=Check CCSD(T,E4T,FrzG4)/GTBas1
 -----------------------------------------------------------------

 Structure from the checkpoint file:  "G4.Frag_1147.chk"
 ---------
 Frag_1147
 ---------
 Charge =  0 Multiplicity = 1

 SCF Done:  E(RHF) =  -320.538594064     A.U. after   14 cycles
 E2 =    -0.9152214369D+00 EUMP2 =    -0.32145381550120D+03
 CCSD(T)
 CCSD(T)= -0.32152001011D+03
 553\MP4SDQ=-321.4859981\CCSD=-321.4837817\CCSD(T)=-321.5200101\RMSD=4.
 Normal termination of Gaussian 09 at Fri Aug 26 14:40:22 2022.

 ---------------------------------------------------------
 #P Geom=AllCheck Guess=TCheck SCRF=Check MP4=FrzG4/GTBas2
 ---------------------------------------------------------

 Structure from the checkpoint file:  "G4.Frag_1147.chk"
 ---------
 Frag_1147
 ---------
 Charge =  0 Multiplicity = 1

 SCF Done:  E(RHF) =  -320.551119053     A.U. after   14 cycles
 E2 =    -0.9286150470D+00 EUMP2 =    -0.32147973409987D+03
 Normal termination of Gaussian 09 at Fri Aug 26 14:40:50 2022.

 ---------------------------------------------------------
 #P Geom=AllCheck Guess=TCheck SCRF=Check MP4=FrzG4/GTBas3
 ---------------------------------------------------------

 Structure from the checkpoint file:  "G4.Frag_1147.chk"
 ---------
 Frag_1147
 ---------
 Charge =  0 Multiplicity = 1

 SCF Done:  E(RHF) =  -320.579632858     A.U. after   13 cycles
 E2 =    -0.1109219571D+01 EUMP2 =    -0.32168885242904D+03
 Normal termination of Gaussian 09 at Fri Aug 26 14:43:14 2022.

 -----------------------------------------------------------
 #P Geom=AllCheck Guess=TCheck SCRF=Check MP2=Full/GTLargeXP
 -----------------------------------------------------------

 Structure from the checkpoint file:  "G4.Frag_1147.chk"
 ---------
 Frag_1147
 ---------
 Charge =  0 Multiplicity = 1

 SCF Done:  E(RHF) =  -320.666832970     A.U. after   13 cycles
 E2 =    -0.1448380828D+01 EUMP2 =    -0.32211521379855D+03
 Normal termination of Gaussian 09 at Fri Aug 26 14:44:45 2022.
 SCF Done:  E(RHF) =  -320.692825095     A.U. after   10 cycles
 Normal termination of Gaussian 09 at Fri Aug 26 14:46:19 2022.

                         Standard orientation:
 ---------------------------------------------------------------------
 Center     Atomic      Atomic             Coordinates (Angstroms)
 Number     Number       Type             X           Y           Z
 ---------------------------------------------------------------------
      1          6           0        1.463516   -1.082669    0.164873
      2          6           0        0.724995    0.003823    0.000577
      3          8           0        1.222934    1.261010   -0.098153
      4          7           0       -0.743441   -0.110442   -0.004523
      5          6           0       -1.459541    0.968759    0.196757
      6          8           0       -1.216935   -1.261070   -0.207238
      7          1           0        2.541801   -1.008272    0.152079
      8          1           0        0.975848   -2.032574    0.320015
      9          1           0        0.766560    1.731054   -0.807740
     10          1           0       -0.969843    1.889740    0.464537
     11          1           0       -2.532098    0.854146    0.172651
 ---------------------------------------------------------------------

 SCF Done:  E(RHF) =  -320.698184121     A.U. after    8 cycles

 The electronic state is 1-A.
 Alpha  occ. eigenvalues --  -20.61699 -20.52040 -15.74616 -11.35019 -11.29711
 Alpha  occ. eigenvalues --  -11.24029  -1.47506  -1.42956  -1.16116  -1.06561
 Alpha  occ. eigenvalues --   -0.90500  -0.80628  -0.77163  -0.69342  -0.67725
 Alpha  occ. eigenvalues --   -0.64457  -0.61809  -0.60919  -0.56915  -0.56622
 Alpha  occ. eigenvalues --   -0.43116  -0.38578  -0.34865
 Alpha virt. eigenvalues --    0.02884   0.03753   0.04102   0.05035   0.06271
 Alpha virt. eigenvalues --    0.06878   0.07699   0.08071   0.08801   0.09894
 Alpha virt. eigenvalues --    0.10216   0.12035   0.13757   0.14276   0.15071

 Mulliken charges:
               1
     1  C   -0.369805
     2  C    0.208628
     3  O   -0.544423
     4  N    0.305716
     5  C   -0.355542
     6  O   -0.603962
     7  H    0.228853
     8  H    0.252660
     9  H    0.380519
    10  H    0.245126
    11  H    0.252232
 Sum of Mulliken charges =  -0.00000

 Dipole moment (field-independent basis, Debye):
    X=              0.7071    Y=              3.4938    Z=             -0.1790  Tot=              3.5692
 Quadrupole moment (field-independent basis, Debye-Ang):
   XX=            -35.0998   YY=            -34.5092   ZZ=            -36.1466
   XY=             -8.0303   XZ=             -1.7066   YZ=             -2.9438

 Normal termination of Gaussian 09 at Fri Aug 26 14:52:02 2022.
