 Gaussian 09, Revision E.01,
 Gaussian 09:  ES64L-G09RevE.01 30-Nov-2015

 -----
 #P G4
 -----

 --------
 Frag_799
 --------
 Symbolic Z-matrix:
 Charge =  0 Multiplicity = 1

 SCF Done:  E(RB3LYP) =  -339.676978249     A.U. after   15 cycles
 SCF Done:  E(RB3LYP) =  -339.708228409     A.U. after   13 cycles
 SCF Done:  E(RB3LYP) =  -339.714182874     A.U. after   13 cycles
 SCF Done:  E(RB3LYP) =  -339.715333702     A.U. after   13 cycles
 SCF Done:  E(RB3LYP) =  -339.715370996     A.U. after   13 cycles
 SCF Done:  E(RB3LYP) =  -339.715582173     A.U. after   12 cycles
 SCF Done:  E(RB3LYP) =  -339.715874260     A.U. after   11 cycles
 SCF Done:  E(RB3LYP) =  -339.715942686     A.U. after   13 cycles
 SCF Done:  E(RB3LYP) =  -339.715985533     A.U. after   13 cycles
 SCF Done:  E(RB3LYP) =  -339.716061276     A.U. after   11 cycles
 SCF Done:  E(RB3LYP) =  -339.716073082     A.U. after   11 cycles
 SCF Done:  E(RB3LYP) =  -339.716073721     A.U. after    8 cycles
 Optimization completed.
    -- Stationary point found.
 Normal termination of Gaussian 09 at Fri Aug 26 13:21:03 2022.

 ----------------------------------------------------------
 #P Geom=AllCheck Guess=TCheck SCRF=Check B3LYP/GTBas3 Freq
 ----------------------------------------------------------

 Structure from the checkpoint file:  "G4.Frag_799.chk"
 --------
 Frag_799
 --------
 Charge =  0 Multiplicity = 1

 SCF Done:  E(RB3LYP) =  -339.716073721     A.U. after    1 cycles

  Exact polarizability:  52.038  -3.436  45.839   1.145  -6.165  38.223
 Approx polarizability:  70.516 -11.555  80.765   3.200 -21.804  64.639

                      1                      2                      3
                      A                      A                      A
 Frequencies --     63.1590               234.2247               262.7848
 Red. masses --      5.8640                 1.0597                 2.7353
 Frc consts  --      0.0138                 0.0343                 0.1113
 IR Inten    --      3.7806                 0.1739                 2.2831

                      4                      5                      6
                      A                      A                      A
 Frequencies --    328.0003               389.9540               441.8160
 Red. masses --      2.9255                 2.7659                 1.5558
 Frc consts  --      0.1854                 0.2478                 0.1789
 IR Inten    --     36.6775                12.0344               103.4196

                      7                      8                      9
                      A                      A                      A
 Frequencies --    528.5822               665.7139               681.6545
 Red. masses --      3.8379                 2.8427                 3.7189
 Frc consts  --      0.6318                 0.7423                 1.0181
 IR Inten    --     17.8119                14.4502                15.4972

                     10                     11                     12
                      A                      A                      A
 Frequencies --    788.3922               911.8382               931.6604
 Red. masses --      3.3403                 2.0608                 1.4063
 Frc consts  --      1.2233                 1.0095                 0.7192
 IR Inten    --     28.1376                 8.4673                55.8706

                     13                     14                     15
                      A                      A                      A
 Frequencies --   1053.2668              1109.2448              1175.0084
 Red. masses --      1.5754                 1.9242                 2.4457
 Frc consts  --      1.0297                 1.3950                 1.9894
 IR Inten    --     31.7861                22.4306               151.0844

                     16                     17                     18
                      A                      A                      A
 Frequencies --   1262.9112              1294.2932              1364.4502
 Red. masses --      2.9562                 1.4945                 1.4425
 Frc consts  --      2.7780                 1.4751                 1.5823
 IR Inten    --     17.7832                12.2821                18.1166

                     19                     20                     21
                      A                      A                      A
 Frequencies --   1397.1849              1428.4056              1484.7765
 Red. masses --      1.2781                 1.2175                 1.0602
 Frc consts  --      1.4700                 1.4636                 1.3770
 IR Inten    --     13.0867               131.5293                17.7569

                     22                     23                     24
                      A                      A                      A
 Frequencies --   1491.4562              1515.0910              1630.9096
 Red. masses --      1.0673                 1.8911                 9.0825
 Frc consts  --      1.3988                 2.5576                14.2337
 IR Inten    --      3.1791                55.9542               163.2514

                     25                     26                     27
                      A                      A                      A
 Frequencies --   3051.0129              3116.0256              3137.6734
 Red. masses --      1.0341                 1.0906                 1.0994
 Frc consts  --      5.6716                 6.2391                 6.3770
 IR Inten    --      5.5837                 1.7302                16.0600

                     28                     29                     30
                      A                      A                      A
 Frequencies --   3141.8853              3392.3693              3688.9058
 Red. masses --      1.1031                 1.0711                 1.0634
 Frc consts  --      6.4160                 7.2626                 8.5259
 IR Inten    --      8.2852                 2.6111                70.4949

 - Thermochemistry -
 -------------------
 Temperature   298.150 Kelvin.  Pressure   1.00000 Atm.
 Atom     1 has atomic number  6 and mass  12.00000

 Molecular mass:    90.04293 amu.
 Principal axes and moments of inertia in atomic units:
                           1         2         3
     Eigenvalues --   340.02001 557.52489 699.37268
           X            0.99843   0.04928   0.02666
           Y           -0.05015   0.99820   0.03299
           Z           -0.02499  -0.03428   0.99910
 This molecule is an asymmetric top.
 Rotational symmetry number  1.
 Rotational temperatures (Kelvin)      0.25473     0.15535     0.12385
 Rotational constants (GHZ):           5.30775     3.23706     2.58051
 Zero-point vibrational energy     250992.4 (Joules/Mol)
                                   59.98862 (Kcal/Mol)
 Warning -- explicit consideration of   7 degrees of freedom as
           vibrations may cause significant error
 Vibrational temperatures:     90.87   337.00   378.09   471.92   561.06
          (Kelvin)            635.67   760.51   957.81   980.75  1134.32
                             1311.93  1340.45  1515.41  1595.95  1690.57
                             1817.05  1862.20  1963.14  2010.23  2055.15
                             2136.26  2145.87  2179.88  2346.51  4389.72
                             4483.26  4514.41  4520.47  4880.86  5307.51

 Zero-point correction=                           0.095598 (Hartree/Particle)
 Thermal correction to Energy=                    0.101962
 Thermal correction to Enthalpy=                  0.102907
 Thermal correction to Gibbs Free Energy=         0.065462
 Sum of electronic and zero-point Energies=           -339.620476
 Sum of electronic and thermal Energies=              -339.614111
 Sum of electronic and thermal Enthalpies=            -339.613167
 Sum of electronic and thermal Free Energies=         -339.650611

                     E (Thermal)             CV                S
                      KCal/Mol        Cal/Mol-Kelvin    Cal/Mol-Kelvin
 Total                   63.982             22.245             78.808
 Electronic               0.000              0.000              0.000
 Translational            0.889              2.981             39.405
 Rotational               0.889              2.981             26.386
 Vibrational             62.205             16.283             13.017
 Vibration     1          0.597              1.972              4.356
 Vibration     2          0.654              1.789              1.846
 Vibration     3          0.670              1.741              1.643
 Vibration     4          0.711              1.620              1.270
 Vibration     5          0.758              1.492              1.000
 Vibration     6          0.802              1.379              0.821
 Vibration     7          0.884              1.187              0.590

 Normal termination of Gaussian 09 at Fri Aug 26 13:21:30 2022.

 -----------------------------------------------------------------
 #P Geom=AllCheck Guess=TCheck SCRF=Check CCSD(T,E4T,FrzG4)/GTBas1
 -----------------------------------------------------------------

 Structure from the checkpoint file:  "G4.Frag_799.chk"
 --------
 Frag_799
 --------
 Charge =  0 Multiplicity = 1

 SCF Done:  E(RHF) =  -337.733348803     A.U. after   14 cycles
 E2 =    -0.9656882653D+00 EUMP2 =    -0.33869903706852D+03
 CCSD(T)
 CCSD(T)= -0.33876169500D+03
 33\CCSD=-338.7266425\CCSD(T)=-338.761695\RMSD=5.203e-09\PG=C01 [X(C2H6
 Normal termination of Gaussian 09 at Fri Aug 26 13:23:20 2022.

 ---------------------------------------------------------
 #P Geom=AllCheck Guess=TCheck SCRF=Check MP4=FrzG4/GTBas2
 ---------------------------------------------------------

 Structure from the checkpoint file:  "G4.Frag_799.chk"
 --------
 Frag_799
 --------
 Charge =  0 Multiplicity = 1

 SCF Done:  E(RHF) =  -337.744744661     A.U. after   13 cycles
 E2 =    -0.9805300936D+00 EUMP2 =    -0.33872527475506D+03
 Normal termination of Gaussian 09 at Fri Aug 26 13:23:55 2022.

 ---------------------------------------------------------
 #P Geom=AllCheck Guess=TCheck SCRF=Check MP4=FrzG4/GTBas3
 ---------------------------------------------------------

 Structure from the checkpoint file:  "G4.Frag_799.chk"
 --------
 Frag_799
 --------
 Charge =  0 Multiplicity = 1

 SCF Done:  E(RHF) =  -337.775907538     A.U. after   12 cycles
 E2 =    -0.1173609521D+01 EUMP2 =    -0.33894951705910D+03
 Normal termination of Gaussian 09 at Fri Aug 26 13:26:43 2022.

 -----------------------------------------------------------
 #P Geom=AllCheck Guess=TCheck SCRF=Check MP2=Full/GTLargeXP
 -----------------------------------------------------------

 Structure from the checkpoint file:  "G4.Frag_799.chk"
 --------
 Frag_799
 --------
 Charge =  0 Multiplicity = 1

 SCF Done:  E(RHF) =  -337.867904089     A.U. after   13 cycles
 E2 =    -0.1520183097D+01 EUMP2 =    -0.33938808718636D+03
 Normal termination of Gaussian 09 at Fri Aug 26 13:28:27 2022.
 SCF Done:  E(RHF) =  -337.895476594     A.U. after   10 cycles
 Normal termination of Gaussian 09 at Fri Aug 26 13:30:09 2022.

                         Standard orientation:
 ---------------------------------------------------------------------
 Center     Atomic      Atomic             Coordinates (Angstroms)
 Number     Number       Type             X           Y           Z
 ---------------------------------------------------------------------
      1          6           0        1.309902    1.101898    0.544625
      2          6           0        0.661934    0.144195   -0.451155
      3          8           0        1.238627   -1.109955   -0.485739
      4          7           0       -0.802069   -0.024913   -0.037473
      5          7           0       -1.617215    0.808494   -0.513910
      6          8           0       -1.024987   -0.951655    0.764792
      7          1           0        0.833141    2.084385    0.508874
      8          1           0        1.231435    0.697724    1.558142
      9          1           0        2.366781    1.204353    0.288752
     10          1           0        0.635374    0.558985   -1.459725
     11          1           0        0.856144   -1.592852    0.265882
     12          1           0       -2.528009    0.578660   -0.095487
 ---------------------------------------------------------------------

 SCF Done:  E(RHF) =  -337.901245180     A.U. after    8 cycles

 The electronic state is 1-A.
 Alpha  occ. eigenvalues --  -20.58143 -20.57351 -15.79573 -15.62345 -11.35748
 Alpha  occ. eigenvalues --  -11.24433  -1.53782  -1.40183  -1.28945  -1.07302
 Alpha  occ. eigenvalues --   -0.95674  -0.83667  -0.76038  -0.74335  -0.69407
 Alpha  occ. eigenvalues --   -0.66116  -0.63464  -0.58148  -0.57215  -0.55617
 Alpha  occ. eigenvalues --   -0.51096  -0.47797  -0.46803  -0.41233
 Alpha virt. eigenvalues --    0.03475   0.04459   0.05091   0.05651   0.06822
 Alpha virt. eigenvalues --    0.07514   0.07663   0.08994   0.09385   0.09725
 Alpha virt. eigenvalues --    0.12121   0.13447   0.13824   0.14279   0.15817

 Mulliken charges:
               1
     1  C   -0.553358
     2  C    0.184607
     3  O   -0.568852
     4  N    0.474384
     5  N   -0.512949
     6  O   -0.566140
     7  H    0.199387
     8  H    0.196931
     9  H    0.194793
    10  H    0.218836
    11  H    0.406264
    12  H    0.326096
 Sum of Mulliken charges =  -0.00000

 Dipole moment (field-independent basis, Debye):
    X=              0.4807    Y=              1.8157    Z=              0.2719  Tot=              1.8978
 Quadrupole moment (field-independent basis, Debye-Ang):
   XX=            -34.3936   YY=            -37.9675   ZZ=            -37.4827
   XY=              0.9506   XZ=              1.6340   YZ=              0.5041

 Normal termination of Gaussian 09 at Fri Aug 26 13:36:19 2022.
