 Gaussian 09, Revision E.01,
 Gaussian 09:  ES64L-G09RevE.01 30-Nov-2015

 -----
 #P G4
 -----

 --------
 Frag_843
 --------
 Symbolic Z-matrix:
 Charge =  0 Multiplicity = 1

 SCF Done:  E(RB3LYP) =  -248.432250914     A.U. after   13 cycles
 SCF Done:  E(RB3LYP) =  -248.440525236     A.U. after   12 cycles
 SCF Done:  E(RB3LYP) =  -248.441487725     A.U. after   12 cycles
 SCF Done:  E(RB3LYP) =  -248.442204098     A.U. after   11 cycles
 SCF Done:  E(RB3LYP) =  -248.444092646     A.U. after   12 cycles
 SCF Done:  E(RB3LYP) =  -248.445623240     A.U. after   12 cycles
 SCF Done:  E(RB3LYP) =  -248.448317551     A.U. after   13 cycles
 SCF Done:  E(RB3LYP) =  -248.449226437     A.U. after   11 cycles
 SCF Done:  E(RB3LYP) =  -248.449536801     A.U. after   12 cycles
 SCF Done:  E(RB3LYP) =  -248.449790656     A.U. after   11 cycles
 SCF Done:  E(RB3LYP) =  -248.449940587     A.U. after    8 cycles
 SCF Done:  E(RB3LYP) =  -248.449940784     A.U. after    7 cycles
 SCF Done:  E(RB3LYP) =  -248.449940859     A.U. after    7 cycles
 Optimization completed.
    -- Stationary point found.
 Normal termination of Gaussian 09 at Fri Aug 26 13:28:29 2022.

 ----------------------------------------------------------
 #P Geom=AllCheck Guess=TCheck SCRF=Check B3LYP/GTBas3 Freq
 ----------------------------------------------------------

 Structure from the checkpoint file:  "G4.Frag_843.chk"
 --------
 Frag_843
 --------
 Charge =  0 Multiplicity = 1

 SCF Done:  E(RB3LYP) =  -248.449940859     A.U. after    1 cycles

  Exact polarizability:  51.207   0.575  55.696   1.510   0.551  29.628
 Approx polarizability:  66.063   0.359  87.211   1.834  -0.125  44.425

                      1                      2                      3
                      A                      A                      A
 Frequencies --    147.1580               174.6648               295.2205
 Red. masses --      1.6132                 1.5382                 4.0974
 Frc consts  --      0.0206                 0.0276                 0.2104
 IR Inten    --      0.1419                 0.1848                 2.0005

                      4                      5                      6
                      A                      A                      A
 Frequencies --    315.0699               397.3881               506.2665
 Red. masses --      1.1157                 2.3483                 2.1642
 Frc consts  --      0.0653                 0.2185                 0.3268
 IR Inten    --     69.6674                 0.9856                19.3884

                      7                      8                      9
                      A                      A                      A
 Frequencies --    556.9097               704.6178               784.1385
 Red. masses --      3.2162                 1.2306                 1.7006
 Frc consts  --      0.5877                 0.3600                 0.6161
 IR Inten    --      5.5956               101.7573                55.3457

                     10                     11                     12
                      A                      A                      A
 Frequencies --    856.8344               901.1712               995.0115
 Red. masses --      1.3799                 2.0801                 1.5181
 Frc consts  --      0.5969                 0.9953                 0.8855
 IR Inten    --     49.1029                14.0566                16.2203

                     13                     14                     15
                      A                      A                      A
 Frequencies --   1019.8619              1064.5939              1081.1365
 Red. masses --      1.9839                 2.0917                 1.9659
 Frc consts  --      1.2158                 1.3968                 1.3539
 IR Inten    --      6.7799                12.2457                19.2031

                     16                     17                     18
                      A                      A                      A
 Frequencies --   1294.3639              1393.0444              1406.3461
 Red. masses --      2.4772                 1.2314                 1.2900
 Frc consts  --      2.4452                 1.4080                 1.5032
 IR Inten    --     12.1958                64.0833                10.5958

                     19                     20                     21
                      A                      A                      A
 Frequencies --   1435.4861              1473.1229              1487.3822
 Red. masses --      1.2041                 1.0613                 1.0808
 Frc consts  --      1.4619                 1.3570                 1.4088
 IR Inten    --      1.0049                 6.3580                15.8764

                     22                     23                     24
                      A                      A                      A
 Frequencies --   1498.5220              1734.3396              3020.4057
 Red. masses --      1.0900                 5.5395                 1.0434
 Frc consts  --      1.4421                 9.8173                 5.6081
 IR Inten    --      1.3021                56.0326                29.0837

                     25                     26                     27
                      A                      A                      A
 Frequencies --   3074.1568              3139.4411              3181.2004
 Red. masses --      1.0946                 1.0976                 1.0599
 Frc consts  --      6.0948                 6.3740                 6.3199
 IR Inten    --     19.4058                11.7444                 1.4275

                     28                     29                     30
                      A                      A                      A
 Frequencies --   3272.2235              3482.6827              3792.0706
 Red. masses --      1.1152                 1.0752                 1.0683
 Frc consts  --      7.0354                 7.6837                 9.0510
 IR Inten    --      5.2183                 2.2184                40.9142

 - Thermochemistry -
 -------------------
 Temperature   298.150 Kelvin.  Pressure   1.00000 Atm.
 Atom     1 has atomic number  6 and mass  12.00000

 Molecular mass:    73.05276 amu.
 Principal axes and moments of inertia in atomic units:
                           1         2         3
     Eigenvalues --   196.75370 459.12657 634.87040
           X            0.99962   0.02481   0.01228
           Y           -0.02497   0.99960   0.01304
           Z           -0.01195  -0.01334   0.99984
 This molecule is an asymmetric top.
 Rotational symmetry number  1.
 Rotational temperatures (Kelvin)      0.44021     0.18865     0.13643
 Rotational constants (GHZ):           9.17259     3.93081     2.84269
 Zero-point vibrational energy     266078.4 (Joules/Mol)
                                   63.59426 (Kcal/Mol)
 Warning -- explicit consideration of   7 degrees of freedom as
           vibrations may cause significant error
 Vibrational temperatures:    211.73   251.30   424.76   453.31   571.75
          (Kelvin)            728.40   801.27  1013.79  1128.20  1232.79
                             1296.58  1431.60  1467.35  1531.71  1555.51
                             1862.30  2004.28  2023.42  2065.34  2119.49
                             2140.01  2156.04  2495.32  4345.68  4423.02
                             4516.95  4577.03  4707.99  5010.80  5455.94

 Zero-point correction=                           0.101344 (Hartree/Particle)
 Thermal correction to Energy=                    0.107459
 Thermal correction to Enthalpy=                  0.108404
 Thermal correction to Gibbs Free Energy=         0.072473
 Sum of electronic and zero-point Energies=           -248.348597
 Sum of electronic and thermal Energies=              -248.342481
 Sum of electronic and thermal Enthalpies=            -248.341537
 Sum of electronic and thermal Free Energies=         -248.377468

                     E (Thermal)             CV                S
                      KCal/Mol        Cal/Mol-Kelvin    Cal/Mol-Kelvin
 Total                   67.432             21.535             75.622
 Electronic               0.000              0.000              0.000
 Translational            0.889              2.981             38.782
 Rotational               0.889              2.981             25.553
 Vibrational             65.654             15.573             11.286
 Vibration     1          0.617              1.906              2.709
 Vibration     2          0.627              1.874              2.385
 Vibration     3          0.689              1.683              1.444
 Vibration     4          0.702              1.645              1.336
 Vibration     5          0.764              1.476              0.972
 Vibration     6          0.861              1.236              0.643
 Vibration     7          0.912              1.125              0.530

 Optimization completed.
    -- Stationary point found.
 Normal termination of Gaussian 09 at Fri Aug 26 13:28:50 2022.

 -----------------------------------------------------------------
 #P Geom=AllCheck Guess=TCheck SCRF=Check CCSD(T,E4T,FrzG4)/GTBas1
 -----------------------------------------------------------------

 Structure from the checkpoint file:  "G4.Frag_843.chk"
 --------
 Frag_843
 --------
 Charge =  0 Multiplicity = 1

 SCF Done:  E(RHF) =  -246.896799965     A.U. after   13 cycles
 E2 =    -0.7287802844D+00 EUMP2 =    -0.24762558024912D+03
 CCSD(T)
 CCSD(T)= -0.24769426239D+03
 -247.6705174\CCSD(T)=-247.6942624\RMSD=2.771e-09\PG=C01 [X(C3H7N1O1)]\
 Normal termination of Gaussian 09 at Fri Aug 26 13:29:46 2022.

 ---------------------------------------------------------
 #P Geom=AllCheck Guess=TCheck SCRF=Check MP4=FrzG4/GTBas2
 ---------------------------------------------------------

 Structure from the checkpoint file:  "G4.Frag_843.chk"
 --------
 Frag_843
 --------
 Charge =  0 Multiplicity = 1

 SCF Done:  E(RHF) =  -246.906156654     A.U. after   14 cycles
 E2 =    -0.7397851945D+00 EUMP2 =    -0.24764594184895D+03
 Normal termination of Gaussian 09 at Fri Aug 26 13:30:03 2022.

 ---------------------------------------------------------
 #P Geom=AllCheck Guess=TCheck SCRF=Check MP4=FrzG4/GTBas3
 ---------------------------------------------------------

 Structure from the checkpoint file:  "G4.Frag_843.chk"
 --------
 Frag_843
 --------
 Charge =  0 Multiplicity = 1

 SCF Done:  E(RHF) =  -246.931144135     A.U. after   12 cycles
 E2 =    -0.8961534298D+00 EUMP2 =    -0.24782729756453D+03
 Normal termination of Gaussian 09 at Fri Aug 26 13:31:27 2022.

 -----------------------------------------------------------
 #P Geom=AllCheck Guess=TCheck SCRF=Check MP2=Full/GTLargeXP
 -----------------------------------------------------------

 Structure from the checkpoint file:  "G4.Frag_843.chk"
 --------
 Frag_843
 --------
 Charge =  0 Multiplicity = 1

 SCF Done:  E(RHF) =  -246.996639142     A.U. after   12 cycles
 E2 =    -0.1175927978D+01 EUMP2 =    -0.24817256711989D+03
 Normal termination of Gaussian 09 at Fri Aug 26 13:32:19 2022.
 SCF Done:  E(RHF) =  -247.017134564     A.U. after    9 cycles
 Normal termination of Gaussian 09 at Fri Aug 26 13:33:21 2022.

                         Standard orientation:
 ---------------------------------------------------------------------
 Center     Atomic      Atomic             Coordinates (Angstroms)
 Number     Number       Type             X           Y           Z
 ---------------------------------------------------------------------
      1          6           0       -0.375842    1.470293   -0.004056
      2          6           0       -0.462594    0.139822    0.018554
      3          6           0       -1.758825   -0.624559   -0.010577
      4          7           0        0.647635   -0.723590    0.149846
      5          8           0        1.887206   -0.096599   -0.149061
      6          1           0       -1.273353    2.074252   -0.027431
      7          1           0        0.580794    1.973238    0.000925
      8          1           0       -1.822005   -1.268088   -0.898255
      9          1           0       -2.606677    0.061484   -0.031836
     10          1           0       -1.856255   -1.274433    0.866322
     11          1           0        0.576206   -1.516346   -0.483743
     12          1           0        2.353761   -0.125510    0.694061
 ---------------------------------------------------------------------

 SCF Done:  E(RHF) =  -247.021392987     A.U. after    8 cycles

 The electronic state is 1-A.
 Alpha  occ. eigenvalues --  -20.59479 -15.61907 -11.27069 -11.23100 -11.19974
 Alpha  occ. eigenvalues --   -1.41503  -1.16021  -1.01130  -0.94106  -0.76281
 Alpha  occ. eigenvalues --   -0.70101  -0.67152  -0.64631  -0.58436  -0.56974
 Alpha  occ. eigenvalues --   -0.55123  -0.50990  -0.49407  -0.45607  -0.32739
 Alpha virt. eigenvalues --    0.03939   0.04696   0.04970   0.06019   0.06916
 Alpha virt. eigenvalues --    0.07254   0.08504   0.09065   0.09582   0.10533
 Alpha virt. eigenvalues --    0.11926   0.12385   0.13570   0.14465   0.15309

 Mulliken charges:
               1
     1  C   -0.503522
     2  C    0.216199
     3  C   -0.517625
     4  N   -0.315007
     5  O   -0.506652
     6  H    0.175463
     7  H    0.201249
     8  H    0.170051
     9  H    0.177189
    10  H    0.191558
    11  H    0.314736
    12  H    0.396360
 Sum of Mulliken charges =  -0.00000

 Dipole moment (field-independent basis, Debye):
    X=             -0.5149    Y=             -1.1955    Z=              0.4460  Tot=              1.3760
 Quadrupole moment (field-independent basis, Debye-Ang):
   XX=            -28.4464   YY=            -29.9171   ZZ=            -32.8503
   XY=              0.1447   XZ=              3.2362   YZ=              1.6285

 Normal termination of Gaussian 09 at Fri Aug 26 13:39:47 2022.
