 Gaussian 09, Revision E.01,
 Gaussian 09:  ES64L-G09RevE.01 30-Nov-2015

 -----
 #P G4
 -----

 ---------
 Frag_1082
 ---------
 Symbolic Z-matrix:
 Charge =  0 Multiplicity = 1

 SCF Done:  E(RB3LYP) =  -323.652072288     A.U. after   15 cycles
 SCF Done:  E(RB3LYP) =  -323.666511206     A.U. after   13 cycles
 SCF Done:  E(RB3LYP) =  -323.668907076     A.U. after   13 cycles
 SCF Done:  E(RB3LYP) =  -323.669742520     A.U. after   12 cycles
 SCF Done:  E(RB3LYP) =  -323.670046304     A.U. after   13 cycles
 SCF Done:  E(RB3LYP) =  -323.670187689     A.U. after   13 cycles
 SCF Done:  E(RB3LYP) =  -323.670235747     A.U. after   12 cycles
 SCF Done:  E(RB3LYP) =  -323.670295747     A.U. after   12 cycles
 SCF Done:  E(RB3LYP) =  -323.670316833     A.U. after   11 cycles
 SCF Done:  E(RB3LYP) =  -323.670326400     A.U. after   11 cycles
 SCF Done:  E(RB3LYP) =  -323.670324900     A.U. after   10 cycles
 SCF Done:  E(RB3LYP) =  -323.670327132     A.U. after    8 cycles
 SCF Done:  E(RB3LYP) =  -323.670327695     A.U. after    8 cycles
 Optimization completed.
    -- Stationary point found.
 Normal termination of Gaussian 09 at Fri Aug 26 14:31:55 2022.

 ----------------------------------------------------------
 #P Geom=AllCheck Guess=TCheck SCRF=Check B3LYP/GTBas3 Freq
 ----------------------------------------------------------

 Structure from the checkpoint file:  "G4.Frag_1082.chk"
 ---------
 Frag_1082
 ---------
 Charge =  0 Multiplicity = 1

 SCF Done:  E(RB3LYP) =  -323.670327695     A.U. after    1 cycles

  Exact polarizability:  57.515   3.251  42.255   5.798   4.992  49.892
 Approx polarizability:  78.863   6.532  62.828  18.243  17.344  95.468

                      1                      2                      3
                      A                      A                      A
 Frequencies --     56.0567               206.7261               263.1314
 Red. masses --      3.8755                 1.0752                 2.2755
 Frc consts  --      0.0072                 0.0271                 0.0928
 IR Inten    --      1.4557                 4.9358                 7.6958

                      4                      5                      6
                      A                      A                      A
 Frequencies --    315.4501               349.5858               372.8184
 Red. masses --      4.6588                 1.2913                 2.9463
 Frc consts  --      0.2731                 0.0930                 0.2413
 IR Inten    --     10.5983                96.3632                 8.9087

                      7                      8                      9
                      A                      A                      A
 Frequencies --    517.1599               615.0939               661.5887
 Red. masses --      2.8237                 1.8047                 2.0576
 Frc consts  --      0.4450                 0.4023                 0.5306
 IR Inten    --      8.0655                 3.1081                18.4688

                     10                     11                     12
                      A                      A                      A
 Frequencies --    708.6925               752.7806               799.5904
 Red. masses --      1.8645                 2.4988                 1.8439
 Frc consts  --      0.5517                 0.8343                 0.6946
 IR Inten    --     23.4579                 6.3109                26.9228

                     13                     14                     15
                      A                      A                      A
 Frequencies --    938.3091              1036.9120              1085.9737
 Red. masses --      2.0162                 1.7360                 1.7405
 Frc consts  --      1.0459                 1.0997                 1.2094
 IR Inten    --     13.4779                34.0912                30.6869

                     16                     17                     18
                      A                      A                      A
 Frequencies --   1120.6786              1178.8984              1283.8127
 Red. masses --      2.0668                 2.4879                 1.2784
 Frc consts  --      1.5293                 2.0372                 1.2414
 IR Inten    --     41.1598                60.4251                59.5121

                     19                     20                     21
                      A                      A                      A
 Frequencies --   1338.5015              1346.8523              1390.5888
 Red. masses --      2.1316                 1.3667                 1.2397
 Frc consts  --      2.2501                 1.4607                 1.4124
 IR Inten    --     82.6586                15.5705                 5.0208

                     22                     23                     24
                      A                      A                      A
 Frequencies --   1440.8322              1476.4709              1488.7207
 Red. masses --      1.5551                 1.0845                 1.3571
 Frc consts  --      1.9021                 1.3930                 1.7721
 IR Inten    --     25.1461                 9.8809                 3.6416

                     25                     26                     27
                      A                      A                      A
 Frequencies --   1493.5655              1642.3652              3016.6202
 Red. masses --      1.0536                 6.5646                 1.0844
 Frc consts  --      1.3847                10.4327                 5.8139
 IR Inten    --      0.7040               133.8508                37.9221

                     28                     29                     30
                      A                      A                      A
 Frequencies --   3062.0146              3139.3834              3160.9139
 Red. masses --      1.0347                 1.1025                 1.1022
 Frc consts  --      5.7158                 6.4022                 6.4886
 IR Inten    --      9.3374                12.4882                 2.9161

                     31                     32                     33
                      A                      A                      A
 Frequencies --   3190.1477              3316.0006              3807.9527
 Red. masses --      1.0514                 1.1242                 1.0661
 Frc consts  --      6.3045                 7.2829                 9.1080
 IR Inten    --      0.9311                 0.6210                25.7462

 - Thermochemistry -
 -------------------
 Temperature   298.150 Kelvin.  Pressure   1.00000 Atm.
 Atom     1 has atomic number  6 and mass  12.00000

 Molecular mass:    89.04768 amu.
 Principal axes and moments of inertia in atomic units:
                           1         2         3
     Eigenvalues --   339.91784 633.62675 659.31974
           X            0.99790   0.06383   0.01132
           Y           -0.06306   0.99631  -0.05828
           Z           -0.01500   0.05745   0.99824
 This molecule is an asymmetric top.
 Rotational symmetry number  1.
 Rotational temperatures (Kelvin)      0.25481     0.13670     0.13137
 Rotational constants (GHZ):           5.30935     2.84827     2.73728
 Zero-point vibrational energy     278575.5 (Joules/Mol)
                                   66.58115 (Kcal/Mol)
 Warning -- explicit consideration of   8 degrees of freedom as
           vibrations may cause significant error
 Vibrational temperatures:     80.65   297.43   378.59   453.86   502.98
          (Kelvin)            536.40   744.08   884.98   951.88  1019.65
                             1083.08  1150.43  1350.02  1491.88  1562.47
                             1612.40  1696.17  1847.12  1925.80  1937.82
                             2000.74  2073.03  2124.31  2141.93  2148.90
                             2362.99  4340.24  4405.55  4516.87  4547.84
                             4589.91  4770.98  5478.79

 Zero-point correction=                           0.106104 (Hartree/Particle)
 Thermal correction to Energy=                    0.112860
 Thermal correction to Enthalpy=                  0.113804
 Thermal correction to Gibbs Free Energy=         0.075617
 Sum of electronic and zero-point Energies=           -323.564224
 Sum of electronic and thermal Energies=              -323.557468
 Sum of electronic and thermal Enthalpies=            -323.556524
 Sum of electronic and thermal Free Energies=         -323.594711

                     E (Thermal)             CV                S
                      KCal/Mol        Cal/Mol-Kelvin    Cal/Mol-Kelvin
 Total                   70.821             24.026             80.371
 Electronic               0.000              0.000              0.000
 Translational            0.889              2.981             39.372
 Rotational               0.889              2.981             26.454
 Vibrational             69.043             18.065             14.545
 Vibration     1          0.596              1.975              4.591
 Vibration     2          0.641              1.830              2.072
 Vibration     3          0.670              1.740              1.641
 Vibration     4          0.703              1.644              1.334
 Vibration     5          0.727              1.576              1.168
 Vibration     6          0.744              1.528              1.068
 Vibration     7          0.872              1.212              0.617
 Vibration     8          0.975              1.000              0.424

 Normal termination of Gaussian 09 at Fri Aug 26 14:32:25 2022.

 -----------------------------------------------------------------
 #P Geom=AllCheck Guess=TCheck SCRF=Check CCSD(T,E4T,FrzG4)/GTBas1
 -----------------------------------------------------------------

 Structure from the checkpoint file:  "G4.Frag_1082.chk"
 ---------
 Frag_1082
 ---------
 Charge =  0 Multiplicity = 1

 SCF Done:  E(RHF) =  -321.734445951     A.U. after   14 cycles
 E2 =    -0.9269690859D+00 EUMP2 =    -0.32266141503669D+03
 CCSD(T)
 CCSD(T)= -0.32273133595D+03
 Normal termination of Gaussian 09 at Fri Aug 26 14:34:30 2022.

 ---------------------------------------------------------
 #P Geom=AllCheck Guess=TCheck SCRF=Check MP4=FrzG4/GTBas2
 ---------------------------------------------------------

 Structure from the checkpoint file:  "G4.Frag_1082.chk"
 ---------
 Frag_1082
 ---------
 Charge =  0 Multiplicity = 1

 SCF Done:  E(RHF) =  -321.747224159     A.U. after   13 cycles
 E2 =    -0.9415761955D+00 EUMP2 =    -0.32268880035437D+03
 Normal termination of Gaussian 09 at Fri Aug 26 14:35:06 2022.

 ---------------------------------------------------------
 #P Geom=AllCheck Guess=TCheck SCRF=Check MP4=FrzG4/GTBas3
 ---------------------------------------------------------

 Structure from the checkpoint file:  "G4.Frag_1082.chk"
 ---------
 Frag_1082
 ---------
 Charge =  0 Multiplicity = 1

 SCF Done:  E(RHF) =  -321.775579747     A.U. after   13 cycles
 E2 =    -0.1134567061D+01 EUMP2 =    -0.32291014680852D+03
 Normal termination of Gaussian 09 at Fri Aug 26 14:38:27 2022.

 -----------------------------------------------------------
 #P Geom=AllCheck Guess=TCheck SCRF=Check MP2=Full/GTLargeXP
 -----------------------------------------------------------

 Structure from the checkpoint file:  "G4.Frag_1082.chk"
 ---------
 Frag_1082
 ---------
 Charge =  0 Multiplicity = 1

 SCF Done:  E(RHF) =  -321.863739075     A.U. after   13 cycles
 E2 =    -0.1477287281D+01 EUMP2 =    -0.32334102635630D+03
 Normal termination of Gaussian 09 at Fri Aug 26 14:40:20 2022.
 SCF Done:  E(RHF) =  -321.889904913     A.U. after   10 cycles
 Normal termination of Gaussian 09 at Fri Aug 26 14:42:18 2022.

                         Standard orientation:
 ---------------------------------------------------------------------
 Center     Atomic      Atomic             Coordinates (Angstroms)
 Number     Number       Type             X           Y           Z
 ---------------------------------------------------------------------
      1          6           0       -1.796812   -0.236932   -0.736885
      2          7           0       -0.802523    0.067231    0.051794
      3          8           0       -0.897269    0.594472    1.188631
      4          6           0        0.614721   -0.248454   -0.413890
      5          6           0        1.428312    1.029279   -0.413158
      6          8           0        1.203297   -1.145051    0.471676
      7          1           0       -2.796744   -0.004188   -0.401353
      8          1           0       -1.593891   -0.698949   -1.690066
      9          1           0        0.511576   -0.667382   -1.423640
     10          1           0        2.462068    0.795490   -0.676148
     11          1           0        1.391016    1.465652    0.585910
     12          1           0        1.025378    1.742238   -1.136712
     13          1           0        0.692715   -1.962206    0.480592
 ---------------------------------------------------------------------

 SCF Done:  E(RHF) =  -321.895462269     A.U. after    8 cycles

 The electronic state is 1-A.
 Alpha  occ. eigenvalues --  -20.58412 -20.51562 -15.72825 -11.34881 -11.28717
 Alpha  occ. eigenvalues --  -11.22702  -1.46224  -1.39404  -1.15591  -1.04130
 Alpha  occ. eigenvalues --   -0.90384  -0.80834  -0.74849  -0.72502  -0.66319
 Alpha  occ. eigenvalues --   -0.65072  -0.60702  -0.57964  -0.55552  -0.54083
 Alpha  occ. eigenvalues --   -0.52838  -0.49452  -0.41686  -0.34644
 Alpha virt. eigenvalues --    0.02640   0.03840   0.04014   0.05121   0.06121
 Alpha virt. eigenvalues --    0.06693   0.07140   0.08068   0.09287   0.09803
 Alpha virt. eigenvalues --    0.11719   0.12103   0.13248   0.14186   0.15079

 Mulliken charges:
               1
     1  C   -0.374597
     2  N    0.267100
     3  O   -0.587797
     4  C    0.165808
     5  C   -0.529705
     6  O   -0.527917
     7  H    0.237347
     8  H    0.221996
     9  H    0.162277
    10  H    0.191779
    11  H    0.232156
    12  H    0.172520
    13  H    0.369033
 Sum of Mulliken charges =  -0.00000

 Dipole moment (field-independent basis, Debye):
    X=             -0.3810    Y=             -1.9823    Z=             -4.4561  Tot=              4.8920
 Quadrupole moment (field-independent basis, Debye-Ang):
   XX=            -35.4889   YY=            -33.9349   ZZ=            -39.2696
   XY=              3.3626   XZ=              2.5018   YZ=             -0.9637

 Normal termination of Gaussian 09 at Fri Aug 26 14:48:55 2022.
