 Gaussian 09, Revision E.01,
 Gaussian 09:  ES64L-G09RevE.01 30-Nov-2015

 -----
 #P G4
 -----

 --------
 Frag_693
 --------
 Symbolic Z-matrix:
 Charge =  0 Multiplicity = 1

 SCF Done:  E(RB3LYP) =  -207.953188575     A.U. after   13 cycles
 SCF Done:  E(RB3LYP) =  -207.956912816     A.U. after   12 cycles
 SCF Done:  E(RB3LYP) =  -207.957161881     A.U. after   10 cycles
 SCF Done:  E(RB3LYP) =  -207.957621047     A.U. after   12 cycles
 SCF Done:  E(RB3LYP) =  -207.957936010     A.U. after   12 cycles
 SCF Done:  E(RB3LYP) =  -207.958090691     A.U. after   11 cycles
 SCF Done:  E(RB3LYP) =  -207.958130892     A.U. after   10 cycles
 SCF Done:  E(RB3LYP) =  -207.958144637     A.U. after    9 cycles
 SCF Done:  E(RB3LYP) =  -207.958145933     A.U. after    8 cycles
 SCF Done:  E(RB3LYP) =  -207.958146042     A.U. after    7 cycles
 Optimization completed.
    -- Stationary point found.
 Normal termination of Gaussian 09 at Tue Aug 30 10:01:00 2022.

 ----------------------------------------------------------
 #P Geom=AllCheck Guess=TCheck SCRF=Check B3LYP/GTBas3 Freq
 ----------------------------------------------------------

 Structure from the checkpoint file:  "G4.Frag_693.chk"
 --------
 Frag_693
 --------
 Charge =  0 Multiplicity = 1

 SCF Done:  E(RB3LYP) =  -207.958146042     A.U. after    1 cycles

  Exact polarizability:  42.020  -2.476  22.981   0.000  -0.000  21.681
 Approx polarizability:  64.842  -9.567  35.208   0.000  -0.000  30.066

                      1                      2                      3
                      A                      A                      A
 Frequencies --    136.8841               233.1812               543.6103
 Red. masses --      1.1693                 4.3172                11.8945
 Frc consts  --      0.0129                 0.1383                 2.0710
 IR Inten    --      0.0008                 7.5160                10.7384

                      4                      5                      6
                      A                      A                      A
 Frequencies --    625.9323               897.1260              1145.9168
 Red. masses --      7.1310                 6.5017                 3.3583
 Frc consts  --      1.6461                 3.0831                 2.5982
 IR Inten    --      3.4044                33.1242                93.8971

                      7                      8                      9
                      A                      A                      A
 Frequencies --   1168.7196              1232.8449              1474.2467
 Red. masses --      1.2430                 1.9324                 1.1407
 Frc consts  --      1.0003                 1.7304                 1.4607
 IR Inten    --      0.7150                60.3670                 2.1356

                     10                     11                     12
                      A                      A                      A
 Frequencies --   1485.9899              1494.0423              2373.0918
 Red. masses --      1.0478                 1.0476                12.5076
 Frc consts  --      1.3632                 1.3778                41.5005
 IR Inten    --      8.2768                12.7742               165.6026

                     13                     14                     15
                      A                      A                      A
 Frequencies --   3056.1366              3142.4612              3178.9855
 Red. masses --      1.0293                 1.1085                 1.1061
 Frc consts  --      5.6640                 6.4494                 6.5862
 IR Inten    --     23.4560                13.0868                 6.1109

 - Thermochemistry -
 -------------------
 Temperature   298.150 Kelvin.  Pressure   1.00000 Atm.
 Atom     1 has atomic number  6 and mass  12.00000

 Molecular mass:    57.02146 amu.
 Principal axes and moments of inertia in atomic units:
                           1         2         3
     Eigenvalues --    44.33415 344.38669 377.12474
           X            0.99962   0.02745   0.00000
           Y           -0.02745   0.99962  -0.00000
           Z           -0.00000   0.00000   1.00000
 This molecule is an asymmetric top.
 Rotational symmetry number  1.
 Rotational temperatures (Kelvin)      1.95366     0.25150     0.22967
 Rotational constants (GHZ):          40.70770     5.24045     4.78553
 Zero-point vibrational energy     132720.7 (Joules/Mol)
                                   31.72101 (Kcal/Mol)
 Warning -- explicit consideration of   3 degrees of freedom as
           vibrations may cause significant error
 Vibrational temperatures:    196.95   335.50   782.13   900.58  1290.76
          (Kelvin)           1648.72  1681.52  1773.79  2121.11  2138.01
                             2149.59  3414.35  4397.09  4521.30  4573.85

 Zero-point correction=                           0.050551 (Hartree/Particle)
 Thermal correction to Energy=                    0.055025
 Thermal correction to Enthalpy=                  0.055969
 Thermal correction to Gibbs Free Energy=         0.023996
 Sum of electronic and zero-point Energies=           -207.907595
 Sum of electronic and thermal Energies=              -207.903121
 Sum of electronic and thermal Enthalpies=            -207.902177
 Sum of electronic and thermal Free Energies=         -207.934150

                     E (Thermal)             CV                S
                      KCal/Mol        Cal/Mol-Kelvin    Cal/Mol-Kelvin
 Total                   34.529             13.197             67.293
 Electronic               0.000              0.000              0.000
 Translational            0.889              2.981             38.044
 Rotational               0.889              2.981             23.269
 Vibrational             32.751              7.235              5.980
 Vibration     1          0.614              1.916              2.847
 Vibration     2          0.654              1.790              1.854
 Vibration     3          0.899              1.154              0.558

 Optimization completed.
    -- Stationary point found.
 Normal termination of Gaussian 09 at Tue Aug 30 10:01:11 2022.

 -----------------------------------------------------------------
 #P Geom=AllCheck Guess=TCheck SCRF=Check CCSD(T,E4T,FrzG4)/GTBas1
 -----------------------------------------------------------------

 Structure from the checkpoint file:  "G4.Frag_693.chk"
 --------
 Frag_693
 --------
 Charge =  0 Multiplicity = 1

 SCF Done:  E(RHF) =  -206.749563711     A.U. after   13 cycles
 E2 =    -0.5859664651D+00 EUMP2 =    -0.20733553017611D+03
 CCSD(T)
 CCSD(T)= -0.20737609364D+03
 Normal termination of Gaussian 09 at Tue Aug 30 10:01:27 2022.

 ---------------------------------------------------------
 #P Geom=AllCheck Guess=TCheck SCRF=Check MP4=FrzG4/GTBas2
 ---------------------------------------------------------

 Structure from the checkpoint file:  "G4.Frag_693.chk"
 --------
 Frag_693
 --------
 Charge =  0 Multiplicity = 1

 SCF Done:  E(RHF) =  -206.755507864     A.U. after   12 cycles
 E2 =    -0.5921798752D+00 EUMP2 =    -0.20734768773971D+03
 Normal termination of Gaussian 09 at Tue Aug 30 10:01:32 2022.

 ---------------------------------------------------------
 #P Geom=AllCheck Guess=TCheck SCRF=Check MP4=FrzG4/GTBas3
 ---------------------------------------------------------

 Structure from the checkpoint file:  "G4.Frag_693.chk"
 --------
 Frag_693
 --------
 Charge =  0 Multiplicity = 1

 SCF Done:  E(RHF) =  -206.772711692     A.U. after   11 cycles
 E2 =    -0.7054034443D+00 EUMP2 =    -0.20747811513654D+03
 Normal termination of Gaussian 09 at Tue Aug 30 10:01:52 2022.

 -----------------------------------------------------------
 #P Geom=AllCheck Guess=TCheck SCRF=Check MP2=Full/GTLargeXP
 -----------------------------------------------------------

 Structure from the checkpoint file:  "G4.Frag_693.chk"
 --------
 Frag_693
 --------
 Charge =  0 Multiplicity = 1

 SCF Done:  E(RHF) =  -206.826643719     A.U. after   12 cycles
 E2 =    -0.9256249253D+00 EUMP2 =    -0.20775226864385D+03
 Normal termination of Gaussian 09 at Tue Aug 30 10:02:06 2022.
 SCF Done:  E(RHF) =  -206.842721860     A.U. after   10 cycles
 Normal termination of Gaussian 09 at Tue Aug 30 10:02:25 2022.

                         Standard orientation:
 ---------------------------------------------------------------------
 Center     Atomic      Atomic             Coordinates (Angstroms)
 Number     Number       Type             X           Y           Z
 ---------------------------------------------------------------------
      1          6           0        1.499793    0.341600   -0.000001
      2          8           0        0.415775   -0.624378   -0.000007
      3          6           0       -0.771256   -0.123027    0.000012
      4          7           0       -1.856739    0.287419   -0.000005
      5          1           0        1.443815    0.961451   -0.897708
      6          1           0        2.412595   -0.251802    0.000438
      7          1           0        1.443342    0.962005    0.897292
 ---------------------------------------------------------------------

 SCF Done:  E(RHF) =  -206.845951508     A.U. after    7 cycles

 The electronic state is 1-A.
 Alpha  occ. eigenvalues --  -20.66013 -15.56637 -11.33448 -11.33153  -1.48750
 Alpha  occ. eigenvalues --   -1.21311  -1.01200  -0.80039  -0.71166  -0.69837
 Alpha  occ. eigenvalues --   -0.59207  -0.57537  -0.56026  -0.45877  -0.43988
 Alpha virt. eigenvalues --    0.02708   0.04722   0.04796   0.05469   0.07268
 Alpha virt. eigenvalues --    0.07670   0.07884   0.12166   0.13557   0.13639
 Alpha virt. eigenvalues --    0.13977   0.15479   0.16256   0.17648   0.19214

 Mulliken charges:
               1
     1  C   -0.332324
     2  O   -0.305319
     3  C    0.428846
     4  N   -0.407053
     5  H    0.203157
     6  H    0.209533
     7  H    0.203160
 Sum of Mulliken charges =  -0.00000

 Dipole moment (field-independent basis, Debye):
    X=              4.8688    Y=              0.3834    Z=              0.0001  Tot=              4.8839
 Quadrupole moment (field-independent basis, Debye-Ang):
   XX=            -26.8410   YY=            -23.8350   ZZ=            -22.9231
   XY=              2.8008   XZ=              0.0001   YZ=             -0.0000

 Normal termination of Gaussian 09 at Tue Aug 30 10:03:51 2022.
