 Gaussian 09, Revision E.01,
 Gaussian 09:  ES64L-G09RevE.01 30-Nov-2015

 -----
 #P G4
 -----

 ---------
 Frag_1013
 ---------
 Symbolic Z-matrix:
 Charge =  0 Multiplicity = 1

 SCF Done:  E(RB3LYP) =  -188.007203509     A.U. after   16 cycles
 SCF Done:  E(RB3LYP) =  -188.043703799     A.U. after   12 cycles
 SCF Done:  E(RB3LYP) =  -188.098712784     A.U. after   13 cycles
 SCF Done:  E(RB3LYP) =  -188.101125806     A.U. after   12 cycles
 SCF Done:  E(RB3LYP) =  -188.103409112     A.U. after   11 cycles
 SCF Done:  E(RB3LYP) =  -188.103534478     A.U. after   10 cycles
 SCF Done:  E(RB3LYP) =  -188.103631465     A.U. after   10 cycles
 SCF Done:  E(RB3LYP) =  -188.045122130     A.U. after   13 cycles
 SCF Done:  E(RB3LYP) =  -188.103635067     A.U. after    7 cycles
 SCF Done:  E(RB3LYP) =  -188.093124257     A.U. after   12 cycles
 SCF Done:  E(RB3LYP) =  -188.104553879     A.U. after   10 cycles
 SCF Done:  E(RB3LYP) =  -188.104560827     A.U. after    8 cycles
 SCF Done:  E(RB3LYP) =  -188.104561031     A.U. after    7 cycles
 Optimization completed.
    -- Stationary point found.
 Normal termination of Gaussian 09 at Tue Aug 30 12:05:22 2022.

 ----------------------------------------------------------
 #P Geom=AllCheck Guess=TCheck SCRF=Check B3LYP/GTBas3 Freq
 ----------------------------------------------------------

 Structure from the checkpoint file:  "G4.Frag_1013.chk"
 ---------
 Frag_1013
 ---------
 Charge =  0 Multiplicity = 1

 SCF Done:  E(RB3LYP) =  -188.104561031     A.U. after    1 cycles

  Exact polarizability:  46.062   3.533  27.519   0.055   0.406  23.341
 Approx polarizability:  71.106  11.334  40.778  -0.815   0.380  32.862

                      1                      2                      3
                      A                      A                      A
 Frequencies --    151.8186               224.2203               417.5226
 Red. masses --      1.1877                 3.6170                 1.5507
 Frc consts  --      0.0161                 0.1071                 0.1593
 IR Inten    --      0.5210                 6.5203                79.8105

                      4                      5                      6
                      A                      A                      A
 Frequencies --    551.8289               637.3347               933.5854
 Red. masses --      9.7450                 3.0462                 2.9207
 Frc consts  --      1.7484                 0.7290                 1.4999
 IR Inten    --     24.3781                22.9799                 2.2393

                      7                      8                      9
                      A                      A                      A
 Frequencies --   1143.9249              1165.3441              1204.0188
 Red. masses --      1.2799                 2.7409                 1.9458
 Frc consts  --      0.9868                 2.1931                 1.6619
 IR Inten    --      9.0704                32.2297                10.8347

                     10                     11                     12
                      A                      A                      A
 Frequencies --   1458.2143              1462.6573              1491.6023
 Red. masses --      1.2523                 1.1924                 1.0575
 Frc consts  --      1.5689                 1.5030                 1.3863
 IR Inten    --     19.0629                 1.8768                 9.7764

                     13                     14                     15
                      A                      A                      A
 Frequencies --   1517.3086              2346.4837              3027.5073
 Red. masses --      1.0631                12.3204                 1.0429
 Frc consts  --      1.4420                39.9678                 5.6320
 IR Inten    --     12.7152               122.9900                46.2939

                     16                     17                     18
                      A                      A                      A
 Frequencies --   3109.5592              3146.3003              3591.8203
 Red. masses --      1.0927                 1.1044                 1.0744
 Frc consts  --      6.2251                 6.4416                 8.1666
 IR Inten    --     18.1270                 9.4302                33.8543

 - Thermochemistry -
 -------------------
 Temperature   298.150 Kelvin.  Pressure   1.00000 Atm.
 Atom     1 has atomic number  6 and mass  12.00000

 Molecular mass:    56.03745 amu.
 Principal axes and moments of inertia in atomic units:
                           1         2         3
     Eigenvalues --    48.98529 367.00129 402.84624
           X            0.99979  -0.02004   0.00295
           Y            0.01988   0.99873   0.04632
           Z           -0.00388  -0.04625   0.99892
 This molecule is an asymmetric top.
 Rotational symmetry number  1.
 Rotational temperatures (Kelvin)      1.76816     0.23600     0.21500
 Rotational constants (GHZ):          36.84252     4.91753     4.47998
 Zero-point vibrational energy     164971.3 (Joules/Mol)
                                   39.42909 (Kcal/Mol)
 Warning -- explicit consideration of   4 degrees of freedom as
           vibrations may cause significant error
 Vibrational temperatures:    218.43   322.60   600.72   793.96   916.98
          (Kelvin)           1343.22  1645.85  1676.67  1732.31  2098.04
                             2104.43  2146.08  2183.07  3376.06  4355.90
                             4473.96  4526.82  5167.82

 Zero-point correction=                           0.062834 (Hartree/Particle)
 Thermal correction to Energy=                    0.067578
 Thermal correction to Enthalpy=                  0.068522
 Thermal correction to Gibbs Free Energy=         0.036115
 Sum of electronic and zero-point Energies=           -188.041727
 Sum of electronic and thermal Energies=              -188.036983
 Sum of electronic and thermal Enthalpies=            -188.036039
 Sum of electronic and thermal Free Energies=         -188.068446

                     E (Thermal)             CV                S
                      KCal/Mol        Cal/Mol-Kelvin    Cal/Mol-Kelvin
 Total                   42.406             14.642             68.208
 Electronic               0.000              0.000              0.000
 Translational            0.889              2.981             37.992
 Rotational               0.889              2.981             23.497
 Vibrational             40.628              8.681              6.718
 Vibration     1          0.619              1.901              2.649
 Vibration     2          0.649              1.804              1.925
 Vibration     3          0.781              1.432              0.900
 Vibration     4          0.907              1.136              0.540

 Optimization completed.
    -- Stationary point found.
 Normal termination of Gaussian 09 at Tue Aug 30 12:05:34 2022.

 -----------------------------------------------------------------
 #P Geom=AllCheck Guess=TCheck SCRF=Check CCSD(T,E4T,FrzG4)/GTBas1
 -----------------------------------------------------------------

 Structure from the checkpoint file:  "G4.Frag_1013.chk"
 ---------
 Frag_1013
 ---------
 Charge =  0 Multiplicity = 1

 SCF Done:  E(RHF) =  -186.935814321     A.U. after   13 cycles
 E2 =    -0.5714410074D+00 EUMP2 =    -0.18750725532886D+03
 CCSD(T)
 CCSD(T)= -0.18755315693D+03
 187.5556867\MP4SDQ=-187.5326449\CCSD=-187.5320594\CCSD(T)=-187.5531569
 Normal termination of Gaussian 09 at Tue Aug 30 12:05:51 2022.

 ---------------------------------------------------------
 #P Geom=AllCheck Guess=TCheck SCRF=Check MP4=FrzG4/GTBas2
 ---------------------------------------------------------

 Structure from the checkpoint file:  "G4.Frag_1013.chk"
 ---------
 Frag_1013
 ---------
 Charge =  0 Multiplicity = 1

 SCF Done:  E(RHF) =  -186.941555464     A.U. after   12 cycles
 E2 =    -0.5778645471D+00 EUMP2 =    -0.18751942001112D+03
 Normal termination of Gaussian 09 at Tue Aug 30 12:05:58 2022.

 ---------------------------------------------------------
 #P Geom=AllCheck Guess=TCheck SCRF=Check MP4=FrzG4/GTBas3
 ---------------------------------------------------------

 Structure from the checkpoint file:  "G4.Frag_1013.chk"
 ---------
 Frag_1013
 ---------
 Charge =  0 Multiplicity = 1

 SCF Done:  E(RHF) =  -186.958220886     A.U. after   12 cycles
 E2 =    -0.6840384458D+00 EUMP2 =    -0.18764225933197D+03
 Normal termination of Gaussian 09 at Tue Aug 30 12:06:21 2022.

 -----------------------------------------------------------
 #P Geom=AllCheck Guess=TCheck SCRF=Check MP2=Full/GTLargeXP
 -----------------------------------------------------------

 Structure from the checkpoint file:  "G4.Frag_1013.chk"
 ---------
 Frag_1013
 ---------
 Charge =  0 Multiplicity = 1

 SCF Done:  E(RHF) =  -187.004697154     A.U. after   12 cycles
 E2 =    -0.8998440684D+00 EUMP2 =    -0.18790454122215D+03
 Normal termination of Gaussian 09 at Tue Aug 30 12:06:36 2022.
 SCF Done:  E(RHF) =  -187.018911440     A.U. after   10 cycles
 Normal termination of Gaussian 09 at Tue Aug 30 12:06:59 2022.

                         Standard orientation:
 ---------------------------------------------------------------------
 Center     Atomic      Atomic             Coordinates (Angstroms)
 Number     Number       Type             X           Y           Z
 ---------------------------------------------------------------------
      1          6           0        1.543456   -0.370287    0.020910
      2          7           0        0.427051    0.573370   -0.095339
      3          6           0       -0.823641    0.109844   -0.007877
      4          7           0       -1.910997   -0.298970    0.020729
      5          1           0        1.376935   -1.199323   -0.669424
      6          1           0        2.461718    0.143850   -0.270176
      7          1           0        1.659977   -0.772237    1.034747
      8          1           0        0.570103    1.469565    0.348919
 ---------------------------------------------------------------------

 SCF Done:  E(RHF) =  -187.021712050     A.U. after    7 cycles

 The electronic state is 1-A.
 Alpha  occ. eigenvalues --  -15.62253 -15.55598 -11.29943 -11.29086  -1.28990
 Alpha  occ. eigenvalues --   -1.18871  -0.97153  -0.79464  -0.67847  -0.64237
 Alpha  occ. eigenvalues --   -0.58366  -0.55087  -0.52939  -0.45722  -0.39623
 Alpha virt. eigenvalues --    0.02869   0.03948   0.04858   0.05524   0.07050
 Alpha virt. eigenvalues --    0.07557   0.07852   0.10716   0.11456   0.13477
 Alpha virt. eigenvalues --    0.13670   0.15006   0.15818   0.16652   0.18020

 Mulliken charges:
               1
     1  C   -0.411748
     2  N   -0.450945
     3  C    0.396769
     4  N   -0.448341
     5  H    0.203746
     6  H    0.194815
     7  H    0.181934
     8  H    0.333770
 Sum of Mulliken charges =  -0.00000

 Dipole moment (field-independent basis, Debye):
    X=              4.8864    Y=              1.3053    Z=              0.6736  Tot=              5.1024
 Quadrupole moment (field-independent basis, Debye-Ang):
   XX=            -29.8585   YY=            -21.9558   ZZ=            -24.7551
   XY=             -1.5289   XZ=              0.5176   YZ=              1.4594

 Normal termination of Gaussian 09 at Tue Aug 30 12:08:48 2022.
