 Gaussian 09, Revision E.01,
 Gaussian 09:  ES64L-G09RevE.01 30-Nov-2015

 -----
 #P G4
 -----

 ---------
 Frag_1014
 ---------
 Symbolic Z-matrix:
 Charge =  0 Multiplicity = 1

 SCF Done:  E(RB3LYP) =  -305.402882184     A.U. after   12 cycles
 SCF Done:  E(RB3LYP) =  -305.414283620     A.U. after   12 cycles
 SCF Done:  E(RB3LYP) =  -305.416678411     A.U. after   12 cycles
 SCF Done:  E(RB3LYP) =  -305.417271327     A.U. after   12 cycles
 SCF Done:  E(RB3LYP) =  -305.417412060     A.U. after   11 cycles
 SCF Done:  E(RB3LYP) =  -305.417464096     A.U. after   10 cycles
 SCF Done:  E(RB3LYP) =  -305.417480321     A.U. after    9 cycles
 SCF Done:  E(RB3LYP) =  -305.417484380     A.U. after    8 cycles
 SCF Done:  E(RB3LYP) =  -305.417486291     A.U. after    8 cycles
 SCF Done:  E(RB3LYP) =  -305.417486805     A.U. after    7 cycles
 Optimization completed.
    -- Stationary point found.
 Normal termination of Gaussian 09 at Tue Aug 23 16:52:32 2022.

 ----------------------------------------------------------
 #P Geom=AllCheck Guess=TCheck SCRF=Check B3LYP/GTBas3 Freq
 ----------------------------------------------------------

 Structure from the checkpoint file:  "G4.Frag_1014.chk"
 ---------
 Frag_1014
 ---------
 Charge =  0 Multiplicity = 1

 SCF Done:  E(RB3LYP) =  -305.417486805     A.U. after    1 cycles

  Exact polarizability:  43.900  -0.647  34.199  -2.969  -0.160  32.669
 Approx polarizability:  60.035  -5.025  47.033  -4.195   0.940  47.721

                      1                      2                      3
                      A                      A                      A
 Frequencies --    119.4557               238.2559               256.7451
 Red. masses --      4.2026                 1.0442                 1.3581
 Frc consts  --      0.0353                 0.0349                 0.0527
 IR Inten    --      7.5053                13.7884                66.7608

                      4                      5                      6
                      A                      A                      A
 Frequencies --    282.0821               341.0560               429.6094
 Red. masses --      1.7600                 1.4665                 3.0477
 Frc consts  --      0.0825                 0.1005                 0.3314
 IR Inten    --     43.4920                67.4365                33.7544

                      7                      8                      9
                      A                      A                      A
 Frequencies --    481.0766               530.7006               855.3653
 Red. masses --      3.8923                 3.2419                 2.5001
 Frc consts  --      0.5307                 0.5380                 1.0777
 IR Inten    --      8.6393                 7.2135                 7.2624

                     10                     11                     12
                      A                      A                      A
 Frequencies --    940.4836               955.1875              1075.3334
 Red. masses --      2.3277                11.4168                 1.5754
 Frc consts  --      1.2130                 6.1372                 1.0733
 IR Inten    --     32.0782                 3.1113                53.6652

                     13                     14                     15
                      A                      A                      A
 Frequencies --   1107.6249              1168.1593              1333.3614
 Red. masses --      2.2941                 2.6483                 1.6228
 Frc consts  --      1.6582                 2.1292                 1.6999
 IR Inten    --     76.7453               111.5985                 2.9480

                     16                     17                     18
                      A                      A                      A
 Frequencies --   1358.9965              1392.3180              1398.0170
 Red. masses --      1.1468                 1.1608                 1.2448
 Frc consts  --      1.2478                 1.3258                 1.4334
 IR Inten    --      4.9368                47.9694                36.8158

                     19                     20                     21
                      A                      A                      A
 Frequencies --   1429.4299              1479.4505              1498.5320
 Red. masses --      1.3284                 1.0575                 1.0535
 Frc consts  --      1.5993                 1.3638                 1.3939
 IR Inten    --     81.7858                 0.6789                 9.1557

                     22                     23                     24
                      A                      A                      A
 Frequencies --   3031.1820              3039.6794              3115.2337
 Red. masses --      1.0825                 1.0418                 1.0989
 Frc consts  --      5.8598                 5.6713                 6.2833
 IR Inten    --     28.4975                22.6034                25.4176

                     25                     26                     27
                      A                      A                      A
 Frequencies --   3144.5583              3751.6586              3793.1456
 Red. masses --      1.1006                 1.0687                 1.0654
 Frc consts  --      6.4123                 8.8625                 9.0316
 IR Inten    --      9.0334                30.8796                24.7306

 - Thermochemistry -
 -------------------
 Temperature   298.150 Kelvin.  Pressure   1.00000 Atm.
 Atom     1 has atomic number  6 and mass  12.00000

 Molecular mass:    78.03169 amu.
 Principal axes and moments of inertia in atomic units:
                           1         2         3
     Eigenvalues --   216.94947 453.17872 611.34099
           X            0.99830   0.05206  -0.02609
           Y           -0.05239   0.99855  -0.01219
           Z            0.02541   0.01354   0.99959
 This molecule is an asymmetric top.
 Rotational symmetry number  1.
 Rotational temperatures (Kelvin)      0.39923     0.19113     0.14168
 Rotational constants (GHZ):           8.31872     3.98241     2.95210
 Zero-point vibrational energy     230560.5 (Joules/Mol)
                                   55.10527 (Kcal/Mol)
 Warning -- explicit consideration of   8 degrees of freedom as
           vibrations may cause significant error
 Vibrational temperatures:    171.87   342.80   369.40   405.85   490.70
          (Kelvin)            618.11   692.16   763.56  1230.68  1353.14
                             1374.30  1547.16  1593.62  1680.72  1918.41
                             1955.29  2003.23  2011.43  2056.63  2128.60
                             2156.05  4361.19  4373.42  4482.12  4524.31
                             5397.79  5457.48

 Zero-point correction=                           0.087816 (Hartree/Particle)
 Thermal correction to Energy=                    0.094139
 Thermal correction to Enthalpy=                  0.095083
 Thermal correction to Gibbs Free Energy=         0.058610
 Sum of electronic and zero-point Energies=           -305.329671
 Sum of electronic and thermal Energies=              -305.323348
 Sum of electronic and thermal Enthalpies=            -305.322404
 Sum of electronic and thermal Free Energies=         -305.358877

                     E (Thermal)             CV                S
                      KCal/Mol        Cal/Mol-Kelvin    Cal/Mol-Kelvin
 Total                   59.073             21.571             76.765
 Electronic               0.000              0.000              0.000
 Translational            0.889              2.981             38.979
 Rotational               0.889              2.981             25.600
 Vibrational             57.296             15.610             12.186
 Vibration     1          0.609              1.933              3.109
 Vibration     2          0.656              1.782              1.816
 Vibration     3          0.666              1.751              1.684
 Vibration     4          0.681              1.707              1.521
 Vibration     5          0.721              1.593              1.207
 Vibration     6          0.791              1.406              0.860
 Vibration     7          0.837              1.292              0.707
 Vibration     8          0.886              1.182              0.586

 Normal termination of Gaussian 09 at Tue Aug 23 16:53:46 2022.

 -----------------------------------------------------------------
 #P Geom=AllCheck Guess=TCheck SCRF=Check CCSD(T,E4T,FrzG4)/GTBas1
 -----------------------------------------------------------------

 Structure from the checkpoint file:  "G4.Frag_1014.chk"
 ---------
 Frag_1014
 ---------
 Charge =  0 Multiplicity = 1

 SCF Done:  E(RHF) =  -303.692741605     A.U. after   13 cycles
 E2 =    -0.8051781149D+00 EUMP2 =    -0.30449791972040D+03
 CCSD(T)
 CCSD(T)= -0.30455646580D+03
 373\MP4SDQ=-304.5342667\CCSD=-304.534303\CCSD(T)=-304.5564658\RMSD=6.8
 Normal termination of Gaussian 09 at Tue Aug 23 16:55:46 2022.

 ---------------------------------------------------------
 #P Geom=AllCheck Guess=TCheck SCRF=Check MP4=FrzG4/GTBas2
 ---------------------------------------------------------

 Structure from the checkpoint file:  "G4.Frag_1014.chk"
 ---------
 Frag_1014
 ---------
 Charge =  0 Multiplicity = 1

 SCF Done:  E(RHF) =  -303.702605754     A.U. after   12 cycles
 E2 =    -0.8200813389D+00 EUMP2 =    -0.30452268709286D+03
 Normal termination of Gaussian 09 at Tue Aug 23 16:58:07 2022.

 ---------------------------------------------------------
 #P Geom=AllCheck Guess=TCheck SCRF=Check MP4=FrzG4/GTBas3
 ---------------------------------------------------------

 Structure from the checkpoint file:  "G4.Frag_1014.chk"
 ---------
 Frag_1014
 ---------
 Charge =  0 Multiplicity = 1

 SCF Done:  E(RHF) =  -303.732262120     A.U. after   13 cycles
 E2 =    -0.1000798907D+01 EUMP2 =    -0.30473306102657D+03
 Normal termination of Gaussian 09 at Tue Aug 23 17:38:37 2022.

 -----------------------------------------------------------
 #P Geom=AllCheck Guess=TCheck SCRF=Check MP2=Full/GTLargeXP
 -----------------------------------------------------------

 Structure from the checkpoint file:  "G4.Frag_1014.chk"
 ---------
 Frag_1014
 ---------
 Charge =  0 Multiplicity = 1

 SCF Done:  E(RHF) =  -303.819444820     A.U. after   13 cycles
 E2 =    -0.1300442142D+01 EUMP2 =    -0.30511988696268D+03
 Normal termination of Gaussian 09 at Tue Aug 23 17:41:04 2022.
 SCF Done:  E(RHF) =  -303.846060018     A.U. after    9 cycles
 Normal termination of Gaussian 09 at Tue Aug 23 17:44:03 2022.

                         Standard orientation:
 ---------------------------------------------------------------------
 Center     Atomic      Atomic             Coordinates (Angstroms)
 Number     Number       Type             X           Y           Z
 ---------------------------------------------------------------------
      1          6           0        0.664163    1.377806   -0.090179
      2          6           0        0.430503   -0.061022    0.341523
      3          8           0        1.499738   -0.905821    0.068773
      4          8           0       -0.685750   -0.643210   -0.355581
      5          8           0       -1.867490    0.094554    0.028689
      6          1           0        0.861805    1.414652   -1.167774
      7          1           0       -0.218513    1.985466    0.116719
      8          1           0        1.521779    1.793884    0.445448
      9          1           0        0.243071   -0.130340    1.420923
     10          1           0        1.757833   -0.769742   -0.850767
     11          1           0       -2.305952   -0.558810    0.592329
 ---------------------------------------------------------------------

 SCF Done:  E(RHF) =  -303.851697837     A.U. after    8 cycles

 The electronic state is 1-A.
 Alpha  occ. eigenvalues --  -20.62658 -20.62231 -20.57554 -11.34517 -11.22549
 Alpha  occ. eigenvalues --   -1.48453  -1.39125  -1.21549  -1.00889  -0.85794
 Alpha  occ. eigenvalues --   -0.72176  -0.71198  -0.68391  -0.64984  -0.58644
 Alpha  occ. eigenvalues --   -0.56713  -0.54278  -0.53690  -0.51115  -0.47408
 Alpha  occ. eigenvalues --   -0.45449
 Alpha virt. eigenvalues --    0.04023   0.04479   0.05311   0.05819   0.07473
 Alpha virt. eigenvalues --    0.07833   0.08284   0.10461   0.11566   0.14081
 Alpha virt. eigenvalues --    0.14926   0.15673   0.16047   0.16355   0.17157

 Mulliken charges:
               1
     1  C   -0.515288
     2  C    0.258457
     3  O   -0.559700
     4  O   -0.229996
     5  O   -0.422008
     6  H    0.162549
     7  H    0.205224
     8  H    0.183552
     9  H    0.155748
    10  H    0.366520
    11  H    0.394942
 Sum of Mulliken charges =  -0.00000

 Dipole moment (field-independent basis, Debye):
    X=              0.0344    Y=              0.9188    Z=              0.6304  Tot=              1.1148
 Quadrupole moment (field-independent basis, Debye-Ang):
   XX=            -28.7409   YY=            -31.8088   ZZ=            -27.9406
   XY=              3.6997   XZ=             -5.8269   YZ=             -0.0632

 Normal termination of Gaussian 09 at Tue Aug 23 19:02:45 2022.
