 Gaussian 09, Revision E.01,
 Gaussian 09:  ES64L-G09RevE.01 30-Nov-2015

 -----
 #P G4
 -----

 --------
 Frag_624
 --------
 Symbolic Z-matrix:
 Charge =  0 Multiplicity = 1

 SCF Done:  E(RB3LYP) =  -339.777495432     A.U. after   14 cycles
 SCF Done:  E(RB3LYP) =  -339.799014160     A.U. after   12 cycles
 SCF Done:  E(RB3LYP) =  -339.800690320     A.U. after   12 cycles
 SCF Done:  E(RB3LYP) =  -339.800719482     A.U. after   11 cycles
 SCF Done:  E(RB3LYP) =  -339.800802690     A.U. after   11 cycles
 SCF Done:  E(RB3LYP) =  -339.800938128     A.U. after   11 cycles
 SCF Done:  E(RB3LYP) =  -339.800963741     A.U. after   10 cycles
 SCF Done:  E(RB3LYP) =  -339.801027397     A.U. after   11 cycles
 SCF Done:  E(RB3LYP) =  -339.801073392     A.U. after   11 cycles
 SCF Done:  E(RB3LYP) =  -339.801053748     A.U. after    8 cycles
 SCF Done:  E(RB3LYP) =  -339.803131235     A.U. after   10 cycles
 SCF Done:  E(RB3LYP) =  -339.803140641     A.U. after   10 cycles
 SCF Done:  E(RB3LYP) =  -339.803141179     A.U. after    7 cycles
 Optimization completed.
    -- Stationary point found.
 Normal termination of Gaussian 09 at Fri Aug 26 12:10:47 2022.

 ----------------------------------------------------------
 #P Geom=AllCheck Guess=TCheck SCRF=Check B3LYP/GTBas3 Freq
 ----------------------------------------------------------

 Structure from the checkpoint file:  "G4.Frag_624.chk"
 --------
 Frag_624
 --------
 Charge =  0 Multiplicity = 1

 SCF Done:  E(RB3LYP) =  -339.803141179     A.U. after    1 cycles

  Exact polarizability:  49.320   1.023  45.573   0.956  -2.191  33.174
 Approx polarizability:  63.620   0.767  70.160   1.890  -6.983  50.925

                      1                      2                      3
                      A                      A                      A
 Frequencies --     67.4222               204.4185               241.9836
 Red. masses --      6.1606                 1.2979                 1.1294
 Frc consts  --      0.0165                 0.0320                 0.0390
 IR Inten    --      0.1285                26.6324                47.8981

                      4                      5                      6
                      A                      A                      A
 Frequencies --    260.2640               329.4923               403.7347
 Red. masses --      2.9132                 2.9486                 3.6969
 Frc consts  --      0.1163                 0.1886                 0.3550
 IR Inten    --      8.6005                 3.8142                18.2292

                      7                      8                      9
                      A                      A                      A
 Frequencies --    519.4752               600.8506               637.9912
 Red. masses --      3.2155                 1.8054                 1.9454
 Frc consts  --      0.5112                 0.3840                 0.4665
 IR Inten    --     50.8230                31.8050                31.0638

                     10                     11                     12
                      A                      A                      A
 Frequencies --    760.7261               812.1978               849.7064
 Red. masses --      3.9990                 2.3880                 1.6491
 Frc consts  --      1.3635                 0.9281                 0.7015
 IR Inten    --     91.7962                57.4659               114.4858

                     13                     14                     15
                      A                      A                      A
 Frequencies --    930.6153              1010.7222              1103.1530
 Red. masses --      1.6067                 2.8354                 1.8053
 Frc consts  --      0.8198                 1.7066                 1.2944
 IR Inten    --     99.4114                43.8214                15.9741

                     16                     17                     18
                      A                      A                      A
 Frequencies --   1141.6376              1198.0299              1281.8496
 Red. masses --      2.1247                 1.3252                 1.8085
 Frc consts  --      1.6316                 1.1207                 1.7508
 IR Inten    --    224.6181                51.2252                 2.3096

                     19                     20                     21
                      A                      A                      A
 Frequencies --   1328.3409              1365.3055              1473.4939
 Red. masses --      1.5251                 1.3527                 1.8815
 Frc consts  --      1.5855                 1.4857                 2.4068
 IR Inten    --     16.0563                24.6015                 3.9810

                     22                     23                     24
                      A                      A                      A
 Frequencies --   1643.7905              1645.7173              1864.2045
 Red. masses --      1.0969                 1.1040                 9.6830
 Frc consts  --      1.7462                 1.7617                19.8265
 IR Inten    --     31.6666                45.3659               239.7961

                     25                     26                     27
                      A                      A                      A
 Frequencies --   2974.7519              3473.4297              3500.7878
 Red. masses --      1.0822                 1.0491                 1.0482
 Frc consts  --      5.6422                 7.4571                 7.5684
 IR Inten    --     51.9260                 0.3449                 2.7764

                     28                     29                     30
                      A                      A                      A
 Frequencies --   3555.6362              3586.8173              3748.4798
 Red. masses --      1.0921                 1.0932                 1.0640
 Frc consts  --      8.1351                 8.2868                 8.8087
 IR Inten    --      0.3407                 3.4255                53.4735

 - Thermochemistry -
 -------------------
 Temperature   298.150 Kelvin.  Pressure   1.00000 Atm.
 Atom     1 has atomic number  7 and mass  14.00307

 Molecular mass:    90.04293 amu.
 Principal axes and moments of inertia in atomic units:
                           1         2         3
     Eigenvalues --   346.76424 558.24550 785.77752
           X            0.99992   0.01292   0.00102
           Y           -0.01292   0.99991   0.00284
           Z           -0.00099  -0.00285   1.00000
 This molecule is an asymmetric top.
 Rotational symmetry number  1.
 Rotational temperatures (Kelvin)      0.24978     0.15515     0.11023
 Rotational constants (GHZ):           5.20452     3.23288     2.29676
 Zero-point vibrational energy     254296.3 (Joules/Mol)
                                   60.77828 (Kcal/Mol)
 Warning -- explicit consideration of   8 degrees of freedom as
           vibrations may cause significant error
 Vibrational temperatures:     97.01   294.11   348.16   374.46   474.07
          (Kelvin)            580.88   747.41   864.49   917.93  1094.51
                             1168.57  1222.54  1338.95  1454.20  1587.19
                             1642.56  1723.70  1844.29  1911.18  1964.37
                             2120.03  2365.04  2367.82  2682.17  4280.00
                             4997.48  5036.85  5115.76  5160.62  5393.22

 Zero-point correction=                           0.096856 (Hartree/Particle)
 Thermal correction to Energy=                    0.103631
 Thermal correction to Enthalpy=                  0.104575
 Thermal correction to Gibbs Free Energy=         0.066357
 Sum of electronic and zero-point Energies=           -339.706285
 Sum of electronic and thermal Energies=              -339.699510
 Sum of electronic and thermal Enthalpies=            -339.698566
 Sum of electronic and thermal Free Energies=         -339.736784

                     E (Thermal)             CV                S
                      KCal/Mol        Cal/Mol-Kelvin    Cal/Mol-Kelvin
 Total                   65.029             23.633             80.438
 Electronic               0.000              0.000              0.000
 Translational            0.889              2.981             39.405
 Rotational               0.889              2.981             26.523
 Vibrational             63.252             17.671             14.510
 Vibration     1          0.598              1.970              4.227
 Vibration     2          0.640              1.834              2.093
 Vibration     3          0.658              1.776              1.788
 Vibration     4          0.668              1.745              1.660
 Vibration     5          0.712              1.617              1.263
 Vibration     6          0.769              1.462              0.949
 Vibration     7          0.874              1.207              0.611
 Vibration     8          0.959              1.030              0.448

 Optimization completed.
    -- Stationary point found.
 Normal termination of Gaussian 09 at Fri Aug 26 12:11:14 2022.

 -----------------------------------------------------------------
 #P Geom=AllCheck Guess=TCheck SCRF=Check CCSD(T,E4T,FrzG4)/GTBas1
 -----------------------------------------------------------------

 Structure from the checkpoint file:  "G4.Frag_624.chk"
 --------
 Frag_624
 --------
 Charge =  0 Multiplicity = 1

 SCF Done:  E(RHF) =  -337.848609909     A.U. after   13 cycles
 E2 =    -0.9360148323D+00 EUMP2 =    -0.33878462474119D+03
 CCSD(T)
 CCSD(T)= -0.33884750054D+03
 D=-338.8195697\CCSD(T)=-338.8475005\RMSD=7.302e-09\PG=C01 [X(C2H6N2O2)
 Normal termination of Gaussian 09 at Fri Aug 26 12:12:56 2022.

 ---------------------------------------------------------
 #P Geom=AllCheck Guess=TCheck SCRF=Check MP4=FrzG4/GTBas2
 ---------------------------------------------------------

 Structure from the checkpoint file:  "G4.Frag_624.chk"
 --------
 Frag_624
 --------
 Charge =  0 Multiplicity = 1

 SCF Done:  E(RHF) =  -337.861715815     A.U. after   13 cycles
 E2 =    -0.9529105644D+00 EUMP2 =    -0.33881462637908D+03
 Normal termination of Gaussian 09 at Fri Aug 26 12:13:30 2022.

 ---------------------------------------------------------
 #P Geom=AllCheck Guess=TCheck SCRF=Check MP4=FrzG4/GTBas3
 ---------------------------------------------------------

 Structure from the checkpoint file:  "G4.Frag_624.chk"
 --------
 Frag_624
 --------
 Charge =  0 Multiplicity = 1

 SCF Done:  E(RHF) =  -337.895408933     A.U. after   12 cycles
 E2 =    -0.1145883691D+01 EUMP2 =    -0.33904129262358D+03
 Normal termination of Gaussian 09 at Fri Aug 26 12:16:22 2022.

 -----------------------------------------------------------
 #P Geom=AllCheck Guess=TCheck SCRF=Check MP2=Full/GTLargeXP
 -----------------------------------------------------------

 Structure from the checkpoint file:  "G4.Frag_624.chk"
 --------
 Frag_624
 --------
 Charge =  0 Multiplicity = 1

 SCF Done:  E(RHF) =  -337.990919348     A.U. after   13 cycles
 E2 =    -0.1494060836D+01 EUMP2 =    -0.33948498018342D+03
 Normal termination of Gaussian 09 at Fri Aug 26 12:18:10 2022.
 SCF Done:  E(RHF) =  -338.017596862     A.U. after    9 cycles
 Normal termination of Gaussian 09 at Fri Aug 26 12:19:42 2022.

                         Standard orientation:
 ---------------------------------------------------------------------
 Center     Atomic      Atomic             Coordinates (Angstroms)
 Number     Number       Type             X           Y           Z
 ---------------------------------------------------------------------
      1          7           0       -1.497727   -1.016612   -0.304603
      2          6           0       -0.678242    0.166642   -0.378392
      3          7           0       -1.052884    1.222040    0.588715
      4          6           0        0.762061   -0.214418   -0.036326
      5          8           0        1.119679   -1.235234    0.483666
      6          8           0        1.608142    0.791402   -0.362355
      7          1           0       -1.393254   -1.439367    0.613219
      8          1           0       -2.475553   -0.775403   -0.428406
      9          1           0       -0.692086    0.523147   -1.420755
     10          1           0       -0.420902    2.013258    0.488299
     11          1           0       -1.979901    1.565854    0.351637
     12          1           0        2.490496    0.511829   -0.074958
 ---------------------------------------------------------------------

 SCF Done:  E(RHF) =  -338.023406423     A.U. after    8 cycles

 The electronic state is 1-A.
 Alpha  occ. eigenvalues --  -20.61788 -20.55371 -15.56162 -15.55053 -11.38790
 Alpha  occ. eigenvalues --  -11.31251  -1.47252  -1.37042  -1.24009  -1.14206
 Alpha  occ. eigenvalues --   -0.95165  -0.80772  -0.73008  -0.71473  -0.67060
 Alpha  occ. eigenvalues --   -0.66070  -0.63277  -0.61126  -0.58248  -0.56868
 Alpha  occ. eigenvalues --   -0.49210  -0.46315  -0.42294  -0.41739
 Alpha virt. eigenvalues --    0.03349   0.04045   0.05230   0.05362   0.07394
 Alpha virt. eigenvalues --    0.07444   0.07819   0.09850   0.10118   0.12327
 Alpha virt. eigenvalues --    0.12702   0.13121   0.13618   0.14361   0.15190

 Mulliken charges:
               1
     1  N   -0.690740
     2  C    0.127027
     3  N   -0.692276
     4  C    0.628825
     5  O   -0.591144
     6  O   -0.557046
     7  H    0.320411
     8  H    0.274745
     9  H    0.174707
    10  H    0.307734
    11  H    0.289171
    12  H    0.408587
 Sum of Mulliken charges =  -0.00000

 Dipole moment (field-independent basis, Debye):
    X=             -1.0009    Y=              2.9243    Z=             -0.9330  Tot=              3.2286
 Quadrupole moment (field-independent basis, Debye-Ang):
   XX=            -26.5292   YY=            -38.8700   ZZ=            -38.7247
   XY=              0.9184   XZ=              0.3014   YZ=             -1.0834

 Normal termination of Gaussian 09 at Fri Aug 26 12:25:42 2022.
