 Gaussian 09, Revision E.01,
 Gaussian 09:  ES64L-G09RevE.01 30-Nov-2015

 -----
 #P G4
 -----

 --------
 Frag_479
 --------
 Symbolic Z-matrix:
 Charge =  0 Multiplicity = 1

 SCF Done:  E(RB3LYP) =  -188.078586900     A.U. after   13 cycles
 SCF Done:  E(RB3LYP) =  -188.088087105     A.U. after   11 cycles
 SCF Done:  E(RB3LYP) =  -188.088389391     A.U. after   10 cycles
 SCF Done:  E(RB3LYP) =  -188.088396573     A.U. after    8 cycles
 SCF Done:  E(RB3LYP) =  -188.088397328     A.U. after    8 cycles
 Optimization completed.
    -- Stationary point found.
 Normal termination of Gaussian 09 at Fri Aug 26 13:52:42 2022.

 ----------------------------------------------------------
 #P Geom=AllCheck Guess=TCheck SCRF=Check B3LYP/GTBas3 Freq
 ----------------------------------------------------------

 Structure from the checkpoint file:  "G4.Frag_479.chk"
 --------
 Frag_479
 --------
 Charge =  0 Multiplicity = 1

 SCF Done:  E(RB3LYP) =  -188.088397328     A.U. after    1 cycles

  Exact polarizability:  58.592  -4.759  33.322  -0.000  -0.000  18.080
 Approx polarizability:  96.370 -12.197  49.164  -0.001  -0.000  27.561

                      1                      2                      3
                      A                      A                      A
 Frequencies --    124.0399               360.6547               608.3662
 Red. masses --      3.1513                 2.6953                 3.4434
 Frc consts  --      0.0286                 0.2066                 0.7509
 IR Inten    --      1.9098                 2.4034                11.4238

                      4                      5                      6
                      A                      A                      A
 Frequencies --    635.8040               943.4926               984.8803
 Red. masses --      1.0892                 1.9708                 2.9853
 Frc consts  --      0.2594                 1.0337                 1.7061
 IR Inten    --      5.4371                27.6390                24.1851

                      7                      8                      9
                      A                      A                      A
 Frequencies --   1081.0186              1117.8122              1210.5697
 Red. masses --      1.3609                 1.0917                 1.3114
 Frc consts  --      0.9370                 0.8037                 1.1323
 IR Inten    --     11.1693                50.5500                44.6391

                     10                     11                     12
                      A                      A                      A
 Frequencies --   1275.3249              1409.9939              1492.1444
 Red. masses --      1.6614                 1.1833                 1.1916
 Frc consts  --      1.5921                 1.3861                 1.5631
 IR Inten    --     75.9991                28.5109                23.9707

                     13                     14                     15
                      A                      A                      A
 Frequencies --   1698.1708              1728.1138              3015.1598
 Red. masses --      6.3838                 6.9594                 1.0654
 Frc consts  --     10.8466                12.2453                 5.7066
 IR Inten    --     99.7362                19.3302                29.4927

                     16                     17                     18
                      A                      A                      A
 Frequencies --   3040.9537              3158.7699              3428.3717
 Red. masses --      1.0878                 1.1055                 1.0725
 Frc consts  --      5.9270                 6.4992                 7.4274
 IR Inten    --     50.0553                16.3155                 0.5883

 - Thermochemistry -
 -------------------
 Temperature   298.150 Kelvin.  Pressure   1.00000 Atm.
 Atom     1 has atomic number  6 and mass  12.00000

 Molecular mass:    56.03745 amu.
 Principal axes and moments of inertia in atomic units:
                           1         2         3
     Eigenvalues --    35.41271 356.74713 392.15984
           X            0.99974  -0.02294  -0.00000
           Y            0.02294   0.99974  -0.00001
           Z            0.00000   0.00001   1.00000
 This molecule is an asymmetric top.
 Rotational symmetry number  1.
 Rotational temperatures (Kelvin)      2.44584     0.24279     0.22086
 Rotational constants (GHZ):          50.96309     5.05888     4.60206
 Zero-point vibrational energy     163371.9 (Joules/Mol)
                                   39.04681 (Kcal/Mol)
 Warning -- explicit consideration of   3 degrees of freedom as
           vibrations may cause significant error
 Vibrational temperatures:    178.47   518.90   875.30   914.78  1357.47
          (Kelvin)           1417.02  1555.34  1608.28  1741.74  1834.91
                             2028.66  2146.86  2443.29  2486.37  4338.14
                             4375.25  4544.76  4932.66

 Zero-point correction=                           0.062225 (Hartree/Particle)
 Thermal correction to Energy=                    0.066573
 Thermal correction to Enthalpy=                  0.067517
 Thermal correction to Gibbs Free Energy=         0.035899
 Sum of electronic and zero-point Energies=           -188.026172
 Sum of electronic and thermal Energies=              -188.021824
 Sum of electronic and thermal Enthalpies=            -188.020880
 Sum of electronic and thermal Free Energies=         -188.052498

                     E (Thermal)             CV                S
                      KCal/Mol        Cal/Mol-Kelvin    Cal/Mol-Kelvin
 Total                   41.775             13.422             66.546
 Electronic               0.000              0.000              0.000
 Translational            0.889              2.981             37.992
 Rotational               0.889              2.981             23.120
 Vibrational             39.998              7.461              5.434
 Vibration     1          0.610              1.929              3.036
 Vibration     2          0.735              1.553              1.119
 Vibration     3          0.967              1.014              0.435

 Optimization completed.
    -- Stationary point found.
 Normal termination of Gaussian 09 at Fri Aug 26 13:52:53 2022.

 -----------------------------------------------------------------
 #P Geom=AllCheck Guess=TCheck SCRF=Check CCSD(T,E4T,FrzG4)/GTBas1
 -----------------------------------------------------------------

 Structure from the checkpoint file:  "G4.Frag_479.chk"
 --------
 Frag_479
 --------
 Charge =  0 Multiplicity = 1

 SCF Done:  E(RHF) =  -186.914570073     A.U. after   12 cycles
 E2 =    -0.5696026683D+00 EUMP2 =    -0.18748417274098D+03
 CCSD(T)
 CCSD(T)= -0.18753736970D+03
 5369863\MP4SDQ=-187.5140817\CCSD=-187.5146614\CCSD(T)=-187.5373697\RMS
 Normal termination of Gaussian 09 at Fri Aug 26 13:53:12 2022.

 ---------------------------------------------------------
 #P Geom=AllCheck Guess=TCheck SCRF=Check MP4=FrzG4/GTBas2
 ---------------------------------------------------------

 Structure from the checkpoint file:  "G4.Frag_479.chk"
 --------
 Frag_479
 --------
 Charge =  0 Multiplicity = 1

 SCF Done:  E(RHF) =  -186.921145529     A.U. after   12 cycles
 E2 =    -0.5768963218D+00 EUMP2 =    -0.18749804185082D+03
 Normal termination of Gaussian 09 at Fri Aug 26 13:53:18 2022.

 ---------------------------------------------------------
 #P Geom=AllCheck Guess=TCheck SCRF=Check MP4=FrzG4/GTBas3
 ---------------------------------------------------------

 Structure from the checkpoint file:  "G4.Frag_479.chk"
 --------
 Frag_479
 --------
 Charge =  0 Multiplicity = 1

 SCF Done:  E(RHF) =  -186.937101225     A.U. after   12 cycles
 E2 =    -0.6803204984D+00 EUMP2 =    -0.18761742172338D+03
 Normal termination of Gaussian 09 at Fri Aug 26 13:53:41 2022.

 -----------------------------------------------------------
 #P Geom=AllCheck Guess=TCheck SCRF=Check MP2=Full/GTLargeXP
 -----------------------------------------------------------

 Structure from the checkpoint file:  "G4.Frag_479.chk"
 --------
 Frag_479
 --------
 Charge =  0 Multiplicity = 1

 SCF Done:  E(RHF) =  -186.984875482     A.U. after   12 cycles
 E2 =    -0.8964315265D+00 EUMP2 =    -0.18788130700821D+03
 Normal termination of Gaussian 09 at Fri Aug 26 13:53:57 2022.
 SCF Done:  E(RHF) =  -186.998964216     A.U. after    9 cycles
 Normal termination of Gaussian 09 at Fri Aug 26 13:54:18 2022.

                         Standard orientation:
 ---------------------------------------------------------------------
 Center     Atomic      Atomic             Coordinates (Angstroms)
 Number     Number       Type             X           Y           Z
 ---------------------------------------------------------------------
      1          6           0       -1.676411    0.069788   -0.000033
      2          7           0       -0.535219   -0.489788    0.000015
      3          6           0        0.586364    0.370698    0.000065
      4          7           0        1.786307   -0.031765   -0.000032
      5          1           0       -1.816802    1.159633   -0.000005
      6          1           0       -2.575649   -0.545014    0.000017
      7          1           0        0.383773    1.450430   -0.000065
      8          1           0        1.791345   -1.057091   -0.000021
 ---------------------------------------------------------------------

 SCF Done:  E(RHF) =  -187.001778996     A.U. after    7 cycles

 The electronic state is 1-A.
 Alpha  occ. eigenvalues --  -15.59040 -15.55365 -11.31225 -11.31137  -1.28391
 Alpha  occ. eigenvalues --   -1.18648  -0.90371  -0.80733  -0.70759  -0.66987
 Alpha  occ. eigenvalues --   -0.59577  -0.53614  -0.46406  -0.43412  -0.40659
 Alpha virt. eigenvalues --    0.03271   0.04560   0.04601   0.05608   0.06662
 Alpha virt. eigenvalues --    0.07582   0.08069   0.09470   0.11721   0.12359
 Alpha virt. eigenvalues --    0.13131   0.14101   0.15280   0.15613   0.17204

 Mulliken charges:
               1
     1  C   -0.166970
     2  N   -0.312278
     3  C    0.182613
     4  N   -0.598465
     5  H    0.181181
     6  H    0.229573
     7  H    0.186953
     8  H    0.297393
 Sum of Mulliken charges =  -0.00000

 Dipole moment (field-independent basis, Debye):
    X=             -3.5375    Y=              0.8617    Z=              0.0000  Tot=              3.6410
 Quadrupole moment (field-independent basis, Debye-Ang):
   XX=            -24.9019   YY=            -23.0873   ZZ=            -25.5203
   XY=             -3.5302   XZ=              0.0001   YZ=             -0.0000

 Normal termination of Gaussian 09 at Fri Aug 26 13:56:10 2022.
