 Gaussian 09, Revision E.01,
 Gaussian 09:  ES64L-G09RevE.01 30-Nov-2015

 -----
 #P G4
 -----

 ---------
 Frag_1124
 ---------
 Symbolic Z-matrix:
 Charge =  0 Multiplicity = 1

 SCF Done:  E(RB3LYP) =  -284.385834394     A.U. after   14 cycles
 SCF Done:  E(RB3LYP) =  -284.392677083     A.U. after   12 cycles
 SCF Done:  E(RB3LYP) =  -284.393179977     A.U. after   12 cycles
 SCF Done:  E(RB3LYP) =  -284.393660890     A.U. after   13 cycles
 SCF Done:  E(RB3LYP) =  -284.395542971     A.U. after   14 cycles
 SCF Done:  E(RB3LYP) =  -284.358897814     A.U. after   13 cycles
 SCF Done:  E(RB3LYP) =  -284.396535672     A.U. after    9 cycles
 SCF Done:  E(RB3LYP) =  -284.400160896     A.U. after   14 cycles
 SCF Done:  E(RB3LYP) =  -284.402141438     A.U. after   14 cycles
 SCF Done:  E(RB3LYP) =  -284.403275008     A.U. after   13 cycles
 SCF Done:  E(RB3LYP) =  -284.410864539     A.U. after   10 cycles
 SCF Done:  E(RB3LYP) =  -284.410868129     A.U. after    9 cycles
 SCF Done:  E(RB3LYP) =  -284.410868594     A.U. after    8 cycles
 Optimization completed.
    -- Stationary point found.
 Normal termination of Gaussian 09 at Thu Aug 25 05:58:06 2022.

 ----------------------------------------------------------
 #P Geom=AllCheck Guess=TCheck SCRF=Check B3LYP/GTBas3 Freq
 ----------------------------------------------------------

 Structure from the checkpoint file:  "G4.Frag_1124.chk"
 ---------
 Frag_1124
 ---------
 Charge =  0 Multiplicity = 1

 SCF Done:  E(RB3LYP) =  -284.410868594     A.U. after    1 cycles

  Exact polarizability:  45.680   1.175  35.179  -3.689  -2.936  27.682
 Approx polarizability:  62.594   5.660  52.864  -7.262  -5.259  41.312

                      1                      2                      3
                      A                      A                      A
 Frequencies --    134.2500               239.1862               301.4249
 Red. masses --      3.7561                 1.1257                 2.8245
 Frc consts  --      0.0399                 0.0379                 0.1512
 IR Inten    --      2.6665                96.4443                49.2822

                      4                      5                      6
                      A                      A                      A
 Frequencies --    375.7174               454.2252               544.5001
 Red. masses --      2.2746                 1.3201                 4.8079
 Frc consts  --      0.1892                 0.1605                 0.8398
 IR Inten    --      8.4195                91.0691                 7.9467

                      7                      8                      9
                      A                      A                      A
 Frequencies --    687.0681               801.0301               907.6034
 Red. masses --      2.7098                 2.5138                 2.2321
 Frc consts  --      0.7537                 0.9503                 1.0833
 IR Inten    --     12.1490                25.9045                21.1426

                     10                     11                     12
                      A                      A                      A
 Frequencies --   1066.8541              1105.4861              1113.3563
 Red. masses --      5.8268                 2.1922                 1.2455
 Frc consts  --      3.9074                 1.5785                 0.9096
 IR Inten    --    164.5800               126.2407                17.9488

                     13                     14                     15
                      A                      A                      A
 Frequencies --   1188.4001              1225.1674              1346.4100
 Red. masses --      1.3065                 1.0801                 1.3688
 Frc consts  --      1.0872                 0.9552                 1.4620
 IR Inten    --     43.4625                65.3485                26.2963

                     16                     17                     18
                      A                      A                      A
 Frequencies --   1385.6816              1408.8611              1500.1701
 Red. masses --      1.2601                 1.2917                 1.5397
 Frc consts  --      1.4255                 1.5105                 2.0416
 IR Inten    --     10.3275                56.5844                94.2209

                     19                     20                     21
                      A                      A                      A
 Frequencies --   1743.6334              2958.9738              3072.9179
 Red. masses --      7.3061                 1.0812                 1.0906
 Frc consts  --     13.0872                 5.5774                 6.0674
 IR Inten    --     32.0779                62.7128                35.1201

                     22                     23                     24
                      A                      A                      A
 Frequencies --   3478.7956              3669.8554              3815.4486
 Red. masses --      1.0768                 1.0647                 1.0658
 Frc consts  --      7.6776                 8.4485                 9.1413
 IR Inten    --      0.3948                86.7721                34.3499

 - Thermochemistry -
 -------------------
 Temperature   298.150 Kelvin.  Pressure   1.00000 Atm.
 Atom     1 has atomic number  7 and mass  14.00307

 Molecular mass:    75.03203 amu.
 Principal axes and moments of inertia in atomic units:
                           1         2         3
     Eigenvalues --   205.84246 407.36253 552.97430
           X            0.99966  -0.02427  -0.00950
           Y            0.02394   0.99915  -0.03362
           Z            0.01030   0.03338   0.99939
 This molecule is an asymmetric top.
 Rotational symmetry number  1.
 Rotational temperatures (Kelvin)      0.42078     0.21262     0.15663
 Rotational constants (GHZ):           8.76758     4.43031     3.26370
 Zero-point vibrational energy     206505.5 (Joules/Mol)
                                   49.35599 (Kcal/Mol)
 Warning -- explicit consideration of   6 degrees of freedom as
           vibrations may cause significant error
 Vibrational temperatures:    193.16   344.14   433.68   540.57   653.53
          (Kelvin)            783.41   988.54  1152.50  1305.84  1534.96
                             1590.55  1601.87  1709.84  1762.74  1937.18
                             1993.68  2027.03  2158.41  2508.70  4257.30
                             4421.24  5005.20  5280.10  5489.57

 Zero-point correction=                           0.078654 (Hartree/Particle)
 Thermal correction to Energy=                    0.084254
 Thermal correction to Enthalpy=                  0.085198
 Thermal correction to Gibbs Free Energy=         0.050175
 Sum of electronic and zero-point Energies=           -284.332215
 Sum of electronic and thermal Energies=              -284.326615
 Sum of electronic and thermal Enthalpies=            -284.325671
 Sum of electronic and thermal Free Energies=         -284.360694

                     E (Thermal)             CV                S
                      KCal/Mol        Cal/Mol-Kelvin    Cal/Mol-Kelvin
 Total                   52.870             19.053             73.712
 Electronic               0.000              0.000              0.000
 Translational            0.889              2.981             38.862
 Rotational               0.889              2.981             25.342
 Vibrational             51.092             13.091              9.508
 Vibration     1          0.613              1.919              2.884
 Vibration     2          0.657              1.781              1.809
 Vibration     3          0.693              1.671              1.409
 Vibration     4          0.747              1.522              1.056
 Vibration     5          0.813              1.352              0.783
 Vibration     6          0.900              1.152              0.556

 Optimization completed.
    -- Stationary point found.
 Normal termination of Gaussian 09 at Thu Aug 25 05:59:10 2022.

 -----------------------------------------------------------------
 #P Geom=AllCheck Guess=TCheck SCRF=Check CCSD(T,E4T,FrzG4)/GTBas1
 -----------------------------------------------------------------

 Structure from the checkpoint file:  "G4.Frag_1124.chk"
 ---------
 Frag_1124
 ---------
 Charge =  0 Multiplicity = 1

 SCF Done:  E(RHF) =  -282.783566920     A.U. after   13 cycles
 E2 =    -0.7725712353D+00 EUMP2 =    -0.28355613815532D+03
 CCSD(T)
 CCSD(T)= -0.28361156263D+03
 Normal termination of Gaussian 09 at Thu Aug 25 06:00:43 2022.

 ---------------------------------------------------------
 #P Geom=AllCheck Guess=TCheck SCRF=Check MP4=FrzG4/GTBas2
 ---------------------------------------------------------

 Structure from the checkpoint file:  "G4.Frag_1124.chk"
 ---------
 Frag_1124
 ---------
 Charge =  0 Multiplicity = 1

 SCF Done:  E(RHF) =  -282.795578187     A.U. after   13 cycles
 E2 =    -0.7865577922D+00 EUMP2 =    -0.28358213597895D+03
 Normal termination of Gaussian 09 at Thu Aug 25 06:02:11 2022.

 ---------------------------------------------------------
 #P Geom=AllCheck Guess=TCheck SCRF=Check MP4=FrzG4/GTBas3
 ---------------------------------------------------------

 Structure from the checkpoint file:  "G4.Frag_1124.chk"
 ---------
 Frag_1124
 ---------
 Charge =  0 Multiplicity = 1

 SCF Done:  E(RHF) =  -282.822463283     A.U. after   12 cycles
 E2 =    -0.9473298637D+00 EUMP2 =    -0.28376979314676D+03
 Normal termination of Gaussian 09 at Thu Aug 25 06:33:27 2022.

 -----------------------------------------------------------
 #P Geom=AllCheck Guess=TCheck SCRF=Check MP2=Full/GTLargeXP
 -----------------------------------------------------------

 Structure from the checkpoint file:  "G4.Frag_1124.chk"
 ---------
 Frag_1124
 ---------
 Charge =  0 Multiplicity = 1

 SCF Done:  E(RHF) =  -282.904601306     A.U. after   12 cycles
 E2 =    -0.1238100763D+01 EUMP2 =    -0.28414270206860D+03
 Normal termination of Gaussian 09 at Thu Aug 25 06:35:27 2022.
 SCF Done:  E(RHF) =  -282.927775237     A.U. after    8 cycles
 Normal termination of Gaussian 09 at Thu Aug 25 06:37:49 2022.

                         Standard orientation:
 ---------------------------------------------------------------------
 Center     Atomic      Atomic             Coordinates (Angstroms)
 Number     Number       Type             X           Y           Z
 ---------------------------------------------------------------------
      1          7           0        1.787179    0.094898   -0.240856
      2          6           0        0.856265   -0.615080    0.238209
      3          6           0       -0.520944    0.004137    0.400592
      4          8           0       -1.376412   -0.823362   -0.366062
      5          8           0       -0.539016    1.331621    0.000327
      6          1           0        2.660836   -0.421985   -0.342086
      7          1           0        0.939443   -1.669663    0.521631
      8          1           0       -0.822961   -0.028749    1.461601
      9          1           0       -2.248108   -0.413519   -0.345064
     10          1           0        0.272036    1.469213   -0.517020
 ---------------------------------------------------------------------

 SCF Done:  E(RHF) =  -282.932759098     A.U. after    8 cycles

 The electronic state is 1-A.
 Alpha  occ. eigenvalues --  -20.57119 -20.56070 -15.57542 -11.34750 -11.30118
 Alpha  occ. eigenvalues --   -1.41886  -1.34188  -1.22942  -0.96011  -0.81035
 Alpha  occ. eigenvalues --   -0.73233  -0.72431  -0.68021  -0.62928  -0.60291
 Alpha  occ. eigenvalues --   -0.52675  -0.48980  -0.47773  -0.46257  -0.44840
 Alpha virt. eigenvalues --    0.03502   0.04273   0.05423   0.05697   0.07453
 Alpha virt. eigenvalues --    0.07688   0.08384   0.10259   0.11105   0.12423
 Alpha virt. eigenvalues --    0.13362   0.14597   0.15134   0.15733   0.16176

 Mulliken charges:
               1
     1  N   -0.621922
     2  C    0.050031
     3  C    0.314063
     4  O   -0.577216
     5  O   -0.606054
     6  H    0.307692
     7  H    0.199015
     8  H    0.147667
     9  H    0.381551
    10  H    0.405173
 Sum of Mulliken charges =  -0.00000

 Dipole moment (field-independent basis, Debye):
    X=              0.6077    Y=             -1.7194    Z=              1.0546  Tot=              2.1067
 Quadrupole moment (field-independent basis, Debye-Ang):
   XX=            -24.0307   YY=            -32.6952   ZZ=            -29.9575
   XY=             -2.7955   XZ=             -0.9502   YZ=             -2.1486

 Normal termination of Gaussian 09 at Thu Aug 25 07:51:36 2022.
