 Gaussian 09, Revision E.01,
 Gaussian 09:  ES64L-G09RevE.01 30-Nov-2015

 -----
 #P G4
 -----

 --------
 Frag_550
 --------
 Symbolic Z-matrix:
 Charge =  0 Multiplicity = 1

 SCF Done:  E(RB3LYP) =  -267.929079793     A.U. after   13 cycles
 SCF Done:  E(RB3LYP) =  -267.936413107     A.U. after   11 cycles
 SCF Done:  E(RB3LYP) =  -267.937983513     A.U. after   12 cycles
 SCF Done:  E(RB3LYP) =  -267.939571043     A.U. after   12 cycles
 SCF Done:  E(RB3LYP) =  -267.940360593     A.U. after   11 cycles
 SCF Done:  E(RB3LYP) =  -267.940694974     A.U. after   11 cycles
 SCF Done:  E(RB3LYP) =  -267.941013341     A.U. after   11 cycles
 SCF Done:  E(RB3LYP) =  -267.941315950     A.U. after   11 cycles
 SCF Done:  E(RB3LYP) =  -267.941753092     A.U. after   10 cycles
 SCF Done:  E(RB3LYP) =  -267.943083495     A.U. after   11 cycles
 SCF Done:  E(RB3LYP) =  -267.943352411     A.U. after    7 cycles
 SCF Done:  E(RB3LYP) =  -267.943352866     A.U. after    7 cycles
 SCF Done:  E(RB3LYP) =  -267.943353021     A.U. after    7 cycles
 Optimization completed.
    -- Stationary point found.
 Normal termination of Gaussian 09 at Sat Aug 20 06:32:51 2022.

 ----------------------------------------------------------
 #P Geom=AllCheck Guess=TCheck SCRF=Check B3LYP/GTBas3 Freq
 ----------------------------------------------------------

 Structure from the checkpoint file:  "G4.Frag_550.chk"
 --------
 Frag_550
 --------
 Charge =  0 Multiplicity = 1

 SCF Done:  E(RB3LYP) =  -267.943353021     A.U. after    1 cycles

  Exact polarizability:  62.377  -1.231  66.881  -1.179   5.329  47.602
 Approx polarizability:  80.935  -4.472 101.579  -1.403  11.198  71.914

                      1                      2                      3
                      A                      A                      A
 Frequencies --     75.9229               181.9943               242.5136
 Red. masses --      2.7589                 1.0557                 1.7745
 Frc consts  --      0.0094                 0.0206                 0.0615
 IR Inten    --      0.1164                 0.4377                16.5388

                      4                      5                      6
                      A                      A                      A
 Frequencies --    264.8477               308.6989               323.6726
 Red. masses --      1.5067                 1.9944                 1.4129
 Frc consts  --      0.0623                 0.1120                 0.0872
 IR Inten    --     22.4888                 8.1515                21.0015

                      7                      8                      9
                      A                      A                      A
 Frequencies --    390.2366               476.5657               526.2735
 Red. masses --      2.2044                 2.3638                 2.9156
 Frc consts  --      0.1978                 0.3163                 0.4758
 IR Inten    --      4.9433                 2.8336                17.1232

                     10                     11                     12
                      A                      A                      A
 Frequencies --    590.0246               744.6739               798.7393
 Red. masses --      2.4256                 1.3734                 1.5630
 Frc consts  --      0.4975                 0.4487                 0.5875
 IR Inten    --      5.3068                 1.4709                43.7555

                     13                     14                     15
                      A                      A                      A
 Frequencies --    896.5541               905.6495               943.8924
 Red. masses --      1.5824                 1.5351                 2.1137
 Frc consts  --      0.7494                 0.7418                 1.1095
 IR Inten    --     98.8159               185.6758                13.3457

                     16                     17                     18
                      A                      A                      A
 Frequencies --    956.5326               984.9959              1022.2937
 Red. masses --      1.3674                 1.9024                 1.4178
 Frc consts  --      0.7371                 1.0875                 0.8730
 IR Inten    --     27.7210                 0.9192                 0.1507

                     19                     20                     21
                      A                      A                      A
 Frequencies --   1067.9282              1140.4028              1185.9526
 Red. masses --      1.4572                 2.1792                 1.3084
 Frc consts  --      0.9792                 1.6698                 1.0843
 IR Inten    --      0.2232                38.8144                 2.5421

                     22                     23                     24
                      A                      A                      A
 Frequencies --   1260.1249              1294.1513              1401.2084
 Red. masses --      2.2289                 1.4129                 1.5908
 Frc consts  --      2.0853                 1.3943                 1.8403
 IR Inten    --      3.4942                 5.7957                21.1644

                     25                     26                     27
                      A                      A                      A
 Frequencies --   1401.8672              1419.7390              1437.4438
 Red. masses --      1.2448                 1.2943                 1.1913
 Frc consts  --      1.4413                 1.5371                 1.4503
 IR Inten    --      7.0521                 6.3768                 6.7880

                     28                     29                     30
                      A                      A                      A
 Frequencies --   1481.1458              1491.4808              1630.5308
 Red. masses --      1.0478                 1.0555                 1.1074
 Frc consts  --      1.3544                 1.3834                 1.7347
 IR Inten    --      7.3204                11.2458                40.4099

                     31                     32                     33
                      A                      A                      A
 Frequencies --   1641.4668              1719.0448              2911.4734
 Red. masses --      1.1011                 5.4269                 1.0812
 Frc consts  --      1.7480                 9.4488                 5.3996
 IR Inten    --     24.2420                 7.9805                79.4900

                     34                     35                     36
                      A                      A                      A
 Frequencies --   3015.5784              3059.9752              3116.1945
 Red. masses --      1.0391                 1.0981                 1.0980
 Frc consts  --      5.5671                 6.0580                 6.2819
 IR Inten    --     29.6424                24.6122                18.9939

                     37                     38                     39
                      A                      A                      A
 Frequencies --   3147.3610              3238.4877              3482.8554
 Red. masses --      1.0616                 1.1128                 1.0496
 Frc consts  --      6.1959                 6.8761                 7.5013
 IR Inten    --     12.0467                 5.9498                 0.2544

                     40                     41                     42
                      A                      A                      A
 Frequencies --   3503.0634              3573.4807              3591.7780
 Red. masses --      1.0486                 1.0915                 1.0934
 Frc consts  --      7.5814                 8.2121                 8.3110
 IR Inten    --      0.5414                 0.6024                 1.3252

 - Thermochemistry -
 -------------------
 Temperature   298.150 Kelvin.  Pressure   1.00000 Atm.
 Atom     1 has atomic number  6 and mass  12.00000

 Molecular mass:    86.08440 amu.
 Principal axes and moments of inertia in atomic units:
                           1         2         3
     Eigenvalues --   378.11719 616.08616 833.59774
           X            0.99923   0.03883  -0.00511
           Y           -0.03877   0.99918   0.01168
           Z            0.00556  -0.01147   0.99992
 This molecule is an asymmetric top.
 Rotational symmetry number  1.
 Rotational temperatures (Kelvin)      0.22907     0.14059     0.10390
 Rotational constants (GHZ):           4.77297     2.92936     2.16500
 Zero-point vibrational energy     375907.4 (Joules/Mol)
                                   89.84403 (Kcal/Mol)
 Warning -- explicit consideration of  10 degrees of freedom as
           vibrations may cause significant error
 Vibrational temperatures:    109.24   261.85   348.92   381.06   444.15
          (Kelvin)            465.69   561.46   685.67   757.19   848.91
                             1071.42  1149.21  1289.94  1303.03  1358.05
                             1376.24  1417.19  1470.85  1536.51  1640.78
                             1706.32  1813.04  1861.99  2016.02  2016.97
                             2042.69  2068.16  2131.04  2145.91  2345.97
                             2361.70  2473.32  4188.96  4338.74  4402.62
                             4483.50  4528.34  4659.46  5011.05  5040.12
                             5141.44  5167.76

 Zero-point correction=                           0.143176 (Hartree/Particle)
 Thermal correction to Energy=                    0.150657
 Thermal correction to Enthalpy=                  0.151602
 Thermal correction to Gibbs Free Energy=         0.112313
 Sum of electronic and zero-point Energies=           -267.800177
 Sum of electronic and thermal Energies=              -267.792696
 Sum of electronic and thermal Enthalpies=            -267.791752
 Sum of electronic and thermal Free Energies=         -267.831040

                     E (Thermal)             CV                S
                      KCal/Mol        Cal/Mol-Kelvin    Cal/Mol-Kelvin
 Total                   94.539             27.417             82.690
 Electronic               0.000              0.000              0.000
 Translational            0.889              2.981             39.271
 Rotational               0.889              2.981             26.765
 Vibrational             92.761             21.456             16.653
 Vibration     1          0.599              1.965              3.994
 Vibration     2          0.630              1.864              2.308
 Vibration     3          0.659              1.775              1.784
 Vibration     4          0.671              1.737              1.630
 Vibration     5          0.698              1.657              1.369
 Vibration     6          0.708              1.628              1.291
 Vibration     7          0.758              1.491              0.999
 Vibration     8          0.833              1.302              0.719
 Vibration     9          0.881              1.192              0.596
 Vibration    10          0.947              1.053              0.467

 Optimization completed.
    -- Stationary point found.
 Normal termination of Gaussian 09 at Sat Aug 20 06:35:54 2022.

 -----------------------------------------------------------------
 #P Geom=AllCheck Guess=TCheck SCRF=Check CCSD(T,E4T,FrzG4)/GTBas1
 -----------------------------------------------------------------

 Structure from the checkpoint file:  "G4.Frag_550.chk"
 --------
 Frag_550
 --------
 Charge =  0 Multiplicity = 1

 SCF Done:  E(RHF) =  -266.152594361     A.U. after   12 cycles
 E2 =    -0.8459433934D+00 EUMP2 =    -0.26699853775395D+03
 CCSD(T)
 CCSD(T)= -0.26708727075D+03
 Q=-267.0852519\MP4SDQ=-267.0578033\CCSD=-267.0592186\CCSD(T)=-267.0872
 Normal termination of Gaussian 09 at Sat Aug 20 06:42:59 2022.

 ---------------------------------------------------------
 #P Geom=AllCheck Guess=TCheck SCRF=Check MP4=FrzG4/GTBas2
 ---------------------------------------------------------

 Structure from the checkpoint file:  "G4.Frag_550.chk"
 --------
 Frag_550
 --------
 Charge =  0 Multiplicity = 1

 SCF Done:  E(RHF) =  -266.162956999     A.U. after   12 cycles
 E2 =    -0.8586644348D+00 EUMP2 =    -0.26702162143338D+03
 Normal termination of Gaussian 09 at Sat Aug 20 06:52:34 2022.

 ---------------------------------------------------------
 #P Geom=AllCheck Guess=TCheck SCRF=Check MP4=FrzG4/GTBas3
 ---------------------------------------------------------

 Structure from the checkpoint file:  "G4.Frag_550.chk"
 --------
 Frag_550
 --------
 Charge =  0 Multiplicity = 1

 SCF Done:  E(RHF) =  -266.192417278     A.U. after   11 cycles
 E2 =    -0.1040381644D+01 EUMP2 =    -0.26723279892185D+03
 Normal termination of Gaussian 09 at Sat Aug 20 10:27:04 2022.

 -----------------------------------------------------------
 #P Geom=AllCheck Guess=TCheck SCRF=Check MP2=Full/GTLargeXP
 -----------------------------------------------------------

 Structure from the checkpoint file:  "G4.Frag_550.chk"
 --------
 Frag_550
 --------
 Charge =  0 Multiplicity = 1

 SCF Done:  E(RHF) =  -266.258072886     A.U. after   12 cycles
 E2 =    -0.1367041981D+01 EUMP2 =    -0.26762511486709D+03
 Normal termination of Gaussian 09 at Sat Aug 20 10:33:56 2022.
 SCF Done:  E(RHF) =  -266.278904484     A.U. after    8 cycles
 Normal termination of Gaussian 09 at Sat Aug 20 10:40:17 2022.

                         Standard orientation:
 ---------------------------------------------------------------------
 Center     Atomic      Atomic             Coordinates (Angstroms)
 Number     Number       Type             X           Y           Z
 ---------------------------------------------------------------------
      1          6           0       -1.000205    1.400634    0.531380
      2          6           0       -0.745599    0.217958   -0.026841
      3          6           0       -1.833810   -0.769820   -0.359270
      4          6           0        0.671582   -0.250108   -0.347968
      5          7           0        1.610944    0.863409   -0.345970
      6          7           0        1.204231   -1.232516    0.607620
      7          1           0       -2.013229    1.701929    0.780393
      8          1           0       -0.201284    2.093929    0.765809
      9          1           0       -1.857620   -0.986497   -1.435159
     10          1           0       -1.673843   -1.730775    0.146590
     11          1           0       -2.818192   -0.398115   -0.064926
     12          1           0        0.630032   -0.781841   -1.317222
     13          1           0        2.537929    0.498195   -0.538570
     14          1           0        1.374200    1.526781   -1.076361
     15          1           0        0.652584   -2.084347    0.579277
     16          1           0        1.111387   -0.847499    1.544810
 ---------------------------------------------------------------------

 SCF Done:  E(RHF) =  -266.283334792     A.U. after    8 cycles

 The electronic state is 1-A.
 Alpha  occ. eigenvalues --  -15.54077 -15.53656 -11.28739 -11.23406 -11.22483
 Alpha  occ. eigenvalues --  -11.21090  -1.22619  -1.12229  -1.06719  -0.93378
 Alpha  occ. eigenvalues --   -0.86978  -0.72538  -0.68834  -0.66870  -0.60938
 Alpha  occ. eigenvalues --   -0.59594  -0.57909  -0.55292  -0.54343  -0.52421
 Alpha  occ. eigenvalues --   -0.49835  -0.40938  -0.39385  -0.35105
 Alpha virt. eigenvalues --    0.03374   0.04452   0.04601   0.05082   0.06730
 Alpha virt. eigenvalues --    0.06896   0.07372   0.07679   0.08043   0.09628
 Alpha virt. eigenvalues --    0.10887   0.11117   0.11689   0.11875   0.12386

 Mulliken charges:
               1
     1  C   -0.494625
     2  C    0.132613
     3  C   -0.567057
     4  C    0.111521
     5  N   -0.747093
     6  N   -0.697708
     7  H    0.177588
     8  H    0.227096
     9  H    0.173995
    10  H    0.165332
    11  H    0.167867
    12  H    0.151860
    13  H    0.310806
    14  H    0.303191
    15  H    0.284022
    16  H    0.300591
 Sum of Mulliken charges =  -0.00000

 Dipole moment (field-independent basis, Debye):
    X=             -1.1429    Y=             -0.5622    Z=             -0.9371  Tot=              1.5813
 Quadrupole moment (field-independent basis, Debye-Ang):
   XX=            -40.3674   YY=            -38.2675   ZZ=            -37.4963
   XY=              2.0802   XZ=             -2.5422   YZ=             -1.2103

 Normal termination of Gaussian 09 at Sat Aug 20 13:49:06 2022.
