 Gaussian 09, Revision E.01,
 Gaussian 09:  ES64L-G09RevE.01 30-Nov-2015

 -----
 #P G4
 -----

 --------
 Frag_963
 --------
 Symbolic Z-matrix:
 Charge =  0 Multiplicity = 1

 SCF Done:  E(RB3LYP) =  -380.632146180     A.U. after   13 cycles
 SCF Done:  E(RB3LYP) =  -380.645215884     A.U. after   12 cycles
 SCF Done:  E(RB3LYP) =  -380.647509728     A.U. after   12 cycles
 SCF Done:  E(RB3LYP) =  -380.647907128     A.U. after   11 cycles
 SCF Done:  E(RB3LYP) =  -380.647988173     A.U. after   10 cycles
 SCF Done:  E(RB3LYP) =  -380.648055724     A.U. after   11 cycles
 SCF Done:  E(RB3LYP) =  -380.648100264     A.U. after   10 cycles
 SCF Done:  E(RB3LYP) =  -380.648114391     A.U. after    9 cycles
 SCF Done:  E(RB3LYP) =  -380.648118384     A.U. after    8 cycles
 SCF Done:  E(RB3LYP) =  -380.648120987     A.U. after    8 cycles
 SCF Done:  E(RB3LYP) =  -380.648133890     A.U. after    7 cycles
 SCF Done:  E(RB3LYP) =  -380.648134054     A.U. after    7 cycles
 SCF Done:  E(RB3LYP) =  -380.648134000     A.U. after    7 cycles
 Optimization completed.
    -- Stationary point found.
 Normal termination of Gaussian 09 at Fri Aug 19 20:01:17 2022.

 ----------------------------------------------------------
 #P Geom=AllCheck Guess=TCheck SCRF=Check B3LYP/GTBas3 Freq
 ----------------------------------------------------------

 Structure from the checkpoint file:  "G4.Frag_963.chk"
 --------
 Frag_963
 --------
 Charge =  0 Multiplicity = 1

 SCF Done:  E(RB3LYP) =  -380.648134000     A.U. after    1 cycles

  Exact polarizability:  46.379   1.437  35.588   0.017  -0.495  39.141
 Approx polarizability:  65.613   3.801  48.599   2.551   0.019  58.042

                      1                      2                      3
                      A                      A                      A
 Frequencies --    130.5318               130.7012               230.3953
 Red. masses --      4.0831                 1.0597                 1.1131
 Frc consts  --      0.0410                 0.0107                 0.0348
 IR Inten    --      5.6245                83.1712                40.5621

                      4                      5                      6
                      A                      A                      A
 Frequencies --    235.5171               275.0355               314.4724
 Red. masses --      1.2453                 1.6849                 1.5323
 Frc consts  --      0.0407                 0.0751                 0.0893
 IR Inten    --      1.2893                51.8989               149.6983

                      7                      8                      9
                      A                      A                      A
 Frequencies --    381.8071               408.5174               485.0970
 Red. masses --      3.2603                 4.6351                 4.3655
 Frc consts  --      0.2800                 0.4558                 0.6053
 IR Inten    --      3.2515                 1.5699                 5.7881

                     10                     11                     12
                      A                      A                      A
 Frequencies --    562.6023               593.6969               803.9520
 Red. masses --      4.8864                 4.9710                 6.4131
 Frc consts  --      0.9113                 1.0324                 2.4422
 IR Inten    --     10.5491                 8.8285                 1.6013

                     13                     14                     15
                      A                      A                      A
 Frequencies --    922.6482               959.0976               985.3287
 Red. masses --      2.5957                 7.5807                 1.9070
 Frc consts  --      1.3019                 4.1085                 1.0908
 IR Inten    --     52.2888                 7.9268                28.2793

                     16                     17                     18
                      A                      A                      A
 Frequencies --   1088.7247              1120.8084              1226.9924
 Red. masses --      1.6741                 1.8202                 4.6339
 Frc consts  --      1.1691                 1.3472                 4.1104
 IR Inten    --     89.7184               126.5029               193.7671

                     19                     20                     21
                      A                      A                      A
 Frequencies --   1338.1993              1378.2839              1398.7742
 Red. masses --      1.5833                 1.6235                 1.2560
 Frc consts  --      1.6706                 1.8171                 1.4478
 IR Inten    --    141.4110                64.1232                75.3426

                     22                     23                     24
                      A                      A                      A
 Frequencies --   1402.5012              1481.7562              1500.3083
 Red. masses --      1.3165                 1.0602                 1.0687
 Frc consts  --      1.5257                 1.3715                 1.4173
 IR Inten    --     47.4705                 2.4560                 4.7234

                     25                     26                     27
                      A                      A                      A
 Frequencies --   3045.1320              3112.8128              3157.6454
 Red. masses --      1.0383                 1.1009                 1.0996
 Frc consts  --      5.6727                 6.2848                 6.4599
 IR Inten    --     10.5621                21.5637                 6.9004

                     28                     29                     30
                      A                      A                      A
 Frequencies --   3758.2562              3811.4413              3824.6500
 Red. masses --      1.0686                 1.0654                 1.0653
 Frc consts  --      8.8929                 9.1187                 9.1815
 IR Inten    --     28.7569                26.2650                33.0248

 - Thermochemistry -
 -------------------
 Temperature   298.150 Kelvin.  Pressure   1.00000 Atm.
 Atom     1 has atomic number  6 and mass  12.00000

 Molecular mass:    94.02661 amu.
 Principal axes and moments of inertia in atomic units:
                           1         2         3
     Eigenvalues --   364.38692 607.93307 623.44625
           X            0.99974  -0.01403  -0.01819
           Y            0.01255   0.99675  -0.07952
           Z            0.01925   0.07927   0.99667
 This molecule is an asymmetric top.
 Rotational symmetry number  1.
 Rotational temperatures (Kelvin)      0.23770     0.14247     0.13893
 Rotational constants (GHZ):           4.95282     2.96865     2.89478
 Zero-point vibrational energy     239646.0 (Joules/Mol)
                                   57.27677 (Kcal/Mol)
 Warning -- explicit consideration of  11 degrees of freedom as
           vibrations may cause significant error
 Vibrational temperatures:    187.81   188.05   331.49   338.86   395.71
          (Kelvin)            452.46   549.33   587.76   697.95   809.46
                              854.20  1156.71  1327.48  1379.93  1417.67
                             1566.43  1612.59  1765.37  1925.37  1983.04
                             2012.52  2017.88  2131.91  2158.61  4381.26
                             4478.64  4543.14  5407.29  5483.81  5502.81

 Zero-point correction=                           0.091276 (Hartree/Particle)
 Thermal correction to Energy=                    0.098866
 Thermal correction to Enthalpy=                  0.099810
 Thermal correction to Gibbs Free Energy=         0.060424
 Sum of electronic and zero-point Energies=           -380.556858
 Sum of electronic and thermal Energies=              -380.549268
 Sum of electronic and thermal Enthalpies=            -380.548324
 Sum of electronic and thermal Free Energies=         -380.587710

                     E (Thermal)             CV                S
                      KCal/Mol        Cal/Mol-Kelvin    Cal/Mol-Kelvin
 Total                   62.039             26.438             82.894
 Electronic               0.000              0.000              0.000
 Translational            0.889              2.981             39.534
 Rotational               0.889              2.981             26.427
 Vibrational             60.262             20.476             16.933
 Vibration     1          0.612              1.923              2.938
 Vibration     2          0.612              1.923              2.936
 Vibration     3          0.652              1.795              1.876
 Vibration     4          0.655              1.786              1.836
 Vibration     5          0.677              1.719              1.564
 Vibration     6          0.702              1.646              1.339
 Vibration     7          0.751              1.509              1.032
 Vibration     8          0.773              1.452              0.932
 Vibration     9          0.841              1.283              0.696
 Vibration    10          0.918              1.112              0.519
 Vibration    11          0.951              1.045              0.461

 Optimization completed.
    -- Stationary point found.
 Normal termination of Gaussian 09 at Fri Aug 19 20:03:10 2022.

 -----------------------------------------------------------------
 #P Geom=AllCheck Guess=TCheck SCRF=Check CCSD(T,E4T,FrzG4)/GTBas1
 -----------------------------------------------------------------

 Structure from the checkpoint file:  "G4.Frag_963.chk"
 --------
 Frag_963
 --------
 Charge =  0 Multiplicity = 1

 SCF Done:  E(RHF) =  -378.554453665     A.U. after   13 cycles
 E2 =    -0.9841145665D+00 EUMP2 =    -0.37953856823180D+03
 CCSD(T)
 CCSD(T)= -0.37960145145D+03
 D=-379.5745492\CCSD(T)=-379.6014515\RMSD=9.159e-09\PG=C01 [X(C2H6O4)]\
 Normal termination of Gaussian 09 at Fri Aug 19 20:08:41 2022.

 ---------------------------------------------------------
 #P Geom=AllCheck Guess=TCheck SCRF=Check MP4=FrzG4/GTBas2
 ---------------------------------------------------------

 Structure from the checkpoint file:  "G4.Frag_963.chk"
 --------
 Frag_963
 --------
 Charge =  0 Multiplicity = 1

 SCF Done:  E(RHF) =  -378.566839069     A.U. after   13 cycles
 E2 =    -0.1002708126D+01 EUMP2 =    -0.37956954719567D+03
 Normal termination of Gaussian 09 at Fri Aug 19 20:15:08 2022.

 ---------------------------------------------------------
 #P Geom=AllCheck Guess=TCheck SCRF=Check MP4=FrzG4/GTBas3
 ---------------------------------------------------------

 Structure from the checkpoint file:  "G4.Frag_963.chk"
 --------
 Frag_963
 --------
 Charge =  0 Multiplicity = 1

 SCF Done:  E(RHF) =  -378.606216387     A.U. after   12 cycles
 E2 =    -0.1220861893D+01 EUMP2 =    -0.37982707827991D+03
 Normal termination of Gaussian 09 at Fri Aug 19 21:38:00 2022.

 -----------------------------------------------------------
 #P Geom=AllCheck Guess=TCheck SCRF=Check MP2=Full/GTLargeXP
 -----------------------------------------------------------

 Structure from the checkpoint file:  "G4.Frag_963.chk"
 --------
 Frag_963
 --------
 Charge =  0 Multiplicity = 1

 SCF Done:  E(RHF) =  -378.716293777     A.U. after   13 cycles
 E2 =    -0.1583952312D+01 EUMP2 =    -0.38030024608912D+03
 Normal termination of Gaussian 09 at Fri Aug 19 21:43:01 2022.
 SCF Done:  E(RHF) =  -378.748815207     A.U. after    9 cycles
 Normal termination of Gaussian 09 at Fri Aug 19 21:47:55 2022.

                         Standard orientation:
 ---------------------------------------------------------------------
 Center     Atomic      Atomic             Coordinates (Angstroms)
 Number     Number       Type             X           Y           Z
 ---------------------------------------------------------------------
      1          6           0       -0.389405    1.492877   -0.014770
      2          6           0       -0.397143   -0.037365    0.014894
      3          8           0       -0.492532   -0.547152    1.299276
      4          8           0       -1.436986   -0.582154   -0.743626
      5          8           0        0.768626   -0.596281   -0.573764
      6          8           0        1.936444   -0.065301    0.097647
      7          1           0       -1.336695    1.872314    0.378911
      8          1           0        0.432424    1.873848    0.591350
      9          1           0       -0.274340    1.857963   -1.040618
     10          1           0       -1.283461   -0.180942    1.709376
     11          1           0       -1.391285   -0.211228   -1.632273
     12          1           0        2.368226    0.382078   -0.643749
 ---------------------------------------------------------------------

 SCF Done:  E(RHF) =  -378.755844148     A.U. after    8 cycles

 The electronic state is 1-A.
 Alpha  occ. eigenvalues --  -20.62898 -20.62814 -20.57934 -20.57161 -11.40686
 Alpha  occ. eigenvalues --  -11.23840  -1.50244  -1.42130  -1.35534  -1.22252
 Alpha  occ. eigenvalues --   -1.01295  -0.85379  -0.75396  -0.73516  -0.69567
 Alpha  occ. eigenvalues --   -0.67693  -0.63395  -0.60728  -0.56429  -0.55321
 Alpha  occ. eigenvalues --   -0.54200  -0.51695  -0.51243  -0.49272  -0.45600
 Alpha virt. eigenvalues --    0.02998   0.04580   0.04871   0.05972   0.07195
 Alpha virt. eigenvalues --    0.07427   0.07673   0.09447   0.10873   0.13072
 Alpha virt. eigenvalues --    0.14596   0.14949   0.15954   0.16171   0.16860

 Mulliken charges:
               1
     1  C   -0.582109
     2  C    0.680779
     3  O   -0.564507
     4  O   -0.572950
     5  O   -0.258174
     6  O   -0.402108
     7  H    0.179109
     8  H    0.214811
     9  H    0.171750
    10  H    0.371713
    11  H    0.369457
    12  H    0.392230
 Sum of Mulliken charges =  -0.00000

 Dipole moment (field-independent basis, Debye):
    X=             -0.6445    Y=              3.9416    Z=             -1.6494  Tot=              4.3211
 Quadrupole moment (field-independent basis, Debye-Ang):
   XX=            -32.6403   YY=            -37.4619   ZZ=            -31.3603
   XY=              0.4552   XZ=             -4.0757   YZ=             -0.3410

 Normal termination of Gaussian 09 at Sat Aug 20 00:01:15 2022.
