 Gaussian 09, Revision E.01,
 Gaussian 09:  ES64L-G09RevE.01 30-Nov-2015

 -----
 #P G4
 -----

 --------
 Frag_887
 --------
 Symbolic Z-matrix:
 Charge =  0 Multiplicity = 1

 SCF Done:  E(RB3LYP) =  -206.455744090     A.U. after   14 cycles
 SCF Done:  E(RB3LYP) =  -206.464618712     A.U. after   12 cycles
 SCF Done:  E(RB3LYP) =  -206.465741727     A.U. after   12 cycles
 SCF Done:  E(RB3LYP) =  -206.465994884     A.U. after   11 cycles
 SCF Done:  E(RB3LYP) =  -206.466066776     A.U. after   11 cycles
 SCF Done:  E(RB3LYP) =  -206.466077600     A.U. after   10 cycles
 SCF Done:  E(RB3LYP) =  -206.466084398     A.U. after    9 cycles
 SCF Done:  E(RB3LYP) =  -206.466090069     A.U. after    9 cycles
 SCF Done:  E(RB3LYP) =  -206.466092246     A.U. after    9 cycles
 SCF Done:  E(RB3LYP) =  -206.466092568     A.U. after    8 cycles
 Optimization completed.
    -- Stationary point found.
 Normal termination of Gaussian 09 at Wed Aug 24 08:47:24 2022.

 ----------------------------------------------------------
 #P Geom=AllCheck Guess=TCheck SCRF=Check B3LYP/GTBas3 Freq
 ----------------------------------------------------------

 Structure from the checkpoint file:  "G4.Frag_887.chk"
 --------
 Frag_887
 --------
 Charge =  0 Multiplicity = 1

 SCF Done:  E(RB3LYP) =  -206.466092568     A.U. after    1 cycles

  Exact polarizability:  51.404  -2.598  36.583  -0.519  -0.401  33.286
 Approx polarizability:  65.102  -5.714  56.853  -2.043   0.920  47.941

                      1                      2                      3
                      A                      A                      A
 Frequencies --    127.9763               222.0625               324.2983
 Red. masses --      2.8019                 1.1372                 1.1262
 Frc consts  --      0.0270                 0.0330                 0.0698
 IR Inten    --     16.4578                51.1234                 2.6502

                      4                      5                      6
                      A                      A                      A
 Frequencies --    326.0761               509.7817               827.6512
 Red. masses --      2.3475                 3.7119                 3.5697
 Frc consts  --      0.1471                 0.5683                 1.4407
 IR Inten    --      9.8217                18.8641                16.6559

                      7                      8                      9
                      A                      A                      A
 Frequencies --    868.1977              1004.0830              1078.2865
 Red. masses --      1.3818                 2.3191                 1.4826
 Frc consts  --      0.6137                 1.3776                 1.0156
 IR Inten    --    186.8342                27.1354                49.7454

                     10                     11                     12
                      A                      A                      A
 Frequencies --   1117.1873              1134.2418              1170.1952
 Red. masses --      1.3215                 1.7243                 1.6271
 Frc consts  --      0.9718                 1.3070                 1.3127
 IR Inten    --     23.9997                13.3438                26.8481

                     13                     14                     15
                      A                      A                      A
 Frequencies --   1226.3034              1308.6851              1438.7180
 Red. masses --      1.4312                 1.5788                 1.3205
 Frc consts  --      1.2681                 1.5931                 1.6104
 IR Inten    --     10.9855                 7.7975                80.0555

                     16                     17                     18
                      A                      A                      A
 Frequencies --   1489.0656              1544.2301              1591.1562
 Red. masses --      1.1570                 1.1134                 1.0615
 Frc consts  --      1.5115                 1.5644                 1.5834
 IR Inten    --     35.6782                24.6669                18.7751

                     19                     20                     21
                      A                      A                      A
 Frequencies --   1633.6475              1670.5324              2552.3280
 Red. masses --      1.0982                 1.0505                 1.0771
 Frc consts  --      1.7268                 1.7273                 4.1342
 IR Inten    --     37.9033                30.7508               337.6219

                     22                     23                     24
                      A                      A                      A
 Frequencies --   2745.6770              2917.9204              3032.8113
 Red. masses --      1.0663                 1.0896                 1.0394
 Frc consts  --      4.7362                 5.4661                 5.6330
 IR Inten    --    213.1090                89.5635               233.2487

                     25                     26                     27
                      A                      A                      A
 Frequencies --   3487.0691              3501.3474              3574.0169
 Red. masses --      1.0490                 1.0761                 1.0918
 Frc consts  --      7.5150                 7.7730                 8.2166
 IR Inten    --      1.8655                33.0132                 0.0203

 - Thermochemistry -
 -------------------
 Temperature   298.150 Kelvin.  Pressure   1.00000 Atm.
 Atom     1 has atomic number  7 and mass  14.00307

 Molecular mass:    61.06400 amu.
 Principal axes and moments of inertia in atomic units:
                           1         2         3
     Eigenvalues --    59.02960 431.82814 464.33729
           X            0.99995  -0.00305   0.00946
           Y            0.00359   0.99837  -0.05697
           Z           -0.00927   0.05700   0.99833
 This molecule is an asymmetric top.
 Rotational symmetry number  1.
 Rotational temperatures (Kelvin)      1.46729     0.20057     0.18653
 Rotational constants (GHZ):          30.57349     4.17930     3.88670
 Zero-point vibrational energy     253749.2 (Joules/Mol)
                                   60.64750 (Kcal/Mol)
 Warning -- explicit consideration of   5 degrees of freedom as
           vibrations may cause significant error
 Vibrational temperatures:    184.13   319.50   466.59   469.15   733.46
          (Kelvin)           1190.80  1249.14  1444.65  1551.41  1607.38
                             1631.92  1683.65  1764.37  1882.90  2069.99
                             2142.43  2221.80  2289.32  2350.45  2403.52
                             3672.23  3950.41  4198.23  4363.53  5017.11
                             5037.65  5142.21

 Zero-point correction=                           0.096648 (Hartree/Particle)
 Thermal correction to Energy=                    0.101995
 Thermal correction to Enthalpy=                  0.102939
 Thermal correction to Gibbs Free Energy=         0.069139
 Sum of electronic and zero-point Energies=           -206.369445
 Sum of electronic and thermal Energies=              -206.364097
 Sum of electronic and thermal Enthalpies=            -206.363153
 Sum of electronic and thermal Free Energies=         -206.396953

                     E (Thermal)             CV                S
                      KCal/Mol        Cal/Mol-Kelvin    Cal/Mol-Kelvin
 Total                   64.003             17.449             71.138
 Electronic               0.000              0.000              0.000
 Translational            0.889              2.981             38.248
 Rotational               0.889              2.981             23.985
 Vibrational             62.226             11.488              8.905
 Vibration     1          0.611              1.925              2.976
 Vibration     2          0.648              1.807              1.942
 Vibration     3          0.709              1.627              1.288
 Vibration     4          0.710              1.623              1.279
 Vibration     5          0.865              1.228              0.634

 Optimization completed.
    -- Stationary point found.
 Normal termination of Gaussian 09 at Wed Aug 24 08:48:10 2022.

 -----------------------------------------------------------------
 #P Geom=AllCheck Guess=TCheck SCRF=Check CCSD(T,E4T,FrzG4)/GTBas1
 -----------------------------------------------------------------

 Structure from the checkpoint file:  "G4.Frag_887.chk"
 --------
 Frag_887
 --------
 Charge =  0 Multiplicity = 1

 SCF Done:  E(RHF) =  -205.140965784     A.U. after   13 cycles
 E2 =    -0.6279226956D+00 EUMP2 =    -0.20576888847973D+03
 CCSD(T)
 CCSD(T)= -0.20582742949D+03
 64\MP4SDQ=-205.8082812\CCSD=-205.8094735\CCSD(T)=-205.8274295\RMSD=4.9
 Normal termination of Gaussian 09 at Wed Aug 24 08:48:53 2022.

 ---------------------------------------------------------
 #P Geom=AllCheck Guess=TCheck SCRF=Check MP4=FrzG4/GTBas2
 ---------------------------------------------------------

 Structure from the checkpoint file:  "G4.Frag_887.chk"
 --------
 Frag_887
 --------
 Charge =  0 Multiplicity = 1

 SCF Done:  E(RHF) =  -205.154026087     A.U. after   12 cycles
 E2 =    -0.6405434997D+00 EUMP2 =    -0.20579456958698D+03
 Normal termination of Gaussian 09 at Wed Aug 24 08:49:13 2022.

 ---------------------------------------------------------
 #P Geom=AllCheck Guess=TCheck SCRF=Check MP4=FrzG4/GTBas3
 ---------------------------------------------------------

 Structure from the checkpoint file:  "G4.Frag_887.chk"
 --------
 Frag_887
 --------
 Charge =  0 Multiplicity = 1

 SCF Done:  E(RHF) =  -205.175172531     A.U. after   12 cycles
 E2 =    -0.7717616324D+00 EUMP2 =    -0.20594693416353D+03
 Normal termination of Gaussian 09 at Wed Aug 24 08:58:49 2022.

 -----------------------------------------------------------
 #P Geom=AllCheck Guess=TCheck SCRF=Check MP2=Full/GTLargeXP
 -----------------------------------------------------------

 Structure from the checkpoint file:  "G4.Frag_887.chk"
 --------
 Frag_887
 --------
 Charge =  0 Multiplicity = 1

 SCF Done:  E(RHF) =  -205.236520943     A.U. after   12 cycles
 E2 =    -0.1003448856D+01 EUMP2 =    -0.20623996979942D+03
 Normal termination of Gaussian 09 at Wed Aug 24 09:00:02 2022.
 SCF Done:  E(RHF) =  -205.252430663     A.U. after    9 cycles
 Normal termination of Gaussian 09 at Wed Aug 24 09:01:54 2022.

                         Standard orientation:
 ---------------------------------------------------------------------
 Center     Atomic      Atomic             Coordinates (Angstroms)
 Number     Number       Type             X           Y           Z
 ---------------------------------------------------------------------
      1          7           0        1.839325   -0.180121   -0.061046
      2          6           0        0.518454    0.433310   -0.032532
      3          7           0       -0.455056   -0.609378   -0.130288
      4          7           0       -1.696752    0.052643    0.051152
      5          1           0        1.867785   -0.884282    0.671340
      6          1           0        2.547287    0.512399    0.161612
      7          1           0        0.339155    1.061020    0.898873
      8          1           0        0.485908    1.179768   -0.868621
      9          1           0       -1.770078    0.618337    0.934346
     10          1           0       -2.426516   -0.658340    0.079225
     11          1           0       -1.966883    0.729233   -0.700315
 ---------------------------------------------------------------------

 SCF Done:  E(RHF) =  -205.256145489     A.U. after    9 cycles

 The electronic state is 1-A.
 Alpha  occ. eigenvalues --  -15.69483 -15.51431 -15.48611 -11.25210  -1.32125
 Alpha  occ. eigenvalues --   -1.16128  -1.02064  -0.82128  -0.73931  -0.73615
 Alpha  occ. eigenvalues --   -0.66047  -0.59369  -0.54151  -0.52805  -0.40304
 Alpha  occ. eigenvalues --   -0.37092  -0.29454
 Alpha virt. eigenvalues --    0.02338   0.05068   0.05291   0.06373   0.08069
 Alpha virt. eigenvalues --    0.08615   0.08967   0.12156   0.12435   0.12983
 Alpha virt. eigenvalues --    0.13792   0.14701   0.15554   0.18477   0.18769

 Mulliken charges:
               1
     1  N   -0.661875
     2  C    0.012879
     3  N   -0.589773
     4  N   -0.432148
     5  H    0.293158
     6  H    0.275360
     7  H    0.022638
     8  H    0.079367
     9  H    0.313066
    10  H    0.364989
    11  H    0.322339
 Sum of Mulliken charges =  -0.00000

 Dipole moment (field-independent basis, Debye):
    X=             -4.4870    Y=              3.0997    Z=              1.8983  Tot=              5.7745
 Quadrupole moment (field-independent basis, Debye-Ang):
   XX=            -14.7169   YY=            -28.3110   ZZ=            -27.3881
   XY=             -0.0037   XZ=              2.4255   YZ=             -1.8615

 Normal termination of Gaussian 09 at Wed Aug 24 09:55:57 2022.
