 Gaussian 09, Revision E.01,
 Gaussian 09:  ES64L-G09RevE.01 30-Nov-2015

 -----
 #P G4
 -----

 --------
 Frag_510
 --------
 Symbolic Z-matrix:
 Charge =  0 Multiplicity = 1

 SCF Done:  E(RB3LYP) =  -248.505769525     A.U. after   13 cycles
 SCF Done:  E(RB3LYP) =  -248.516688380     A.U. after   12 cycles
 SCF Done:  E(RB3LYP) =  -248.517265181     A.U. after   10 cycles
 SCF Done:  E(RB3LYP) =  -248.517494099     A.U. after    9 cycles
 SCF Done:  E(RB3LYP) =  -248.517666183     A.U. after   10 cycles
 SCF Done:  E(RB3LYP) =  -248.517698924     A.U. after    9 cycles
 SCF Done:  E(RB3LYP) =  -248.517711466     A.U. after    8 cycles
 SCF Done:  E(RB3LYP) =  -248.517712056     A.U. after    7 cycles
 SCF Done:  E(RB3LYP) =  -248.517712106     A.U. after    7 cycles
 Optimization completed.
    -- Stationary point found.
 Normal termination of Gaussian 09 at Thu Aug 25 19:30:53 2022.

 ----------------------------------------------------------
 #P Geom=AllCheck Guess=TCheck SCRF=Check B3LYP/GTBas3 Freq
 ----------------------------------------------------------

 Structure from the checkpoint file:  "G4.Frag_510.chk"
 --------
 Frag_510
 --------
 Charge =  0 Multiplicity = 1

 SCF Done:  E(RB3LYP) =  -248.517712106     A.U. after    1 cycles

  Exact polarizability:  59.619  -3.659  42.155   0.005  -0.002  32.411
 Approx polarizability:  76.257 -10.755  64.754   0.010  -0.003  47.127

                      1                      2                      3
                      A                      A                      A
 Frequencies --     36.2520               171.6590               251.8929
 Red. masses --      1.0457                 1.1383                 2.2106
 Frc consts  --      0.0008                 0.0198                 0.0826
 IR Inten    --      0.6139                 1.0429                16.7788

                      4                      5                      6
                      A                      A                      A
 Frequencies --    263.7475               394.2849               407.5696
 Red. masses --      3.1209                 1.1865                 2.6303
 Frc consts  --      0.1279                 0.1087                 0.2574
 IR Inten    --      8.8592                86.0636                 2.2431

                      7                      8                      9
                      A                      A                      A
 Frequencies --    605.9955               619.8949               849.4971
 Red. masses --      3.6923                 2.9635                 5.0380
 Frc consts  --      0.7989                 0.6709                 2.1421
 IR Inten    --      0.5700                 0.0190                18.0681

                     10                     11                     12
                      A                      A                      A
 Frequencies --    974.6308              1056.9530              1061.8598
 Red. masses --      1.9169                 1.6017                 2.5989
 Frc consts  --      1.0728                 1.0543                 1.7265
 IR Inten    --     23.4387                 2.5941                15.7538

                     13                     14                     15
                      A                      A                      A
 Frequencies --   1114.9951              1155.9694              1230.3609
 Red. masses --      1.3545                 1.3280                 2.1723
 Frc consts  --      0.9921                 1.0455                 1.9374
 IR Inten    --      0.3304                26.2599                 9.3232

                     16                     17                     18
                      A                      A                      A
 Frequencies --   1312.9876              1402.1372              1438.6984
 Red. masses --      2.1100                 1.3637                 1.1650
 Frc consts  --      2.1432                 1.5796                 1.4208
 IR Inten    --    233.0537                18.9399                19.9959

                     19                     20                     21
                      A                      A                      A
 Frequencies --   1478.5498              1485.4524              1486.3010
 Red. masses --      1.0556                 1.0439                 1.0558
 Frc consts  --      1.3597                 1.3572                 1.3742
 IR Inten    --      1.3116                 6.1176                 6.5674

                     22                     23                     24
                      A                      A                      A
 Frequencies --   1500.5340              1799.7899              3007.1578
 Red. masses --      1.0447                 7.8693                 1.0364
 Frc consts  --      1.3859                15.0185                 5.5217
 IR Inten    --      4.6092               193.9006                46.6034

                     25                     26                     27
                      A                      A                      A
 Frequencies --   3026.2194              3058.9922              3078.6375
 Red. masses --      1.0405                 1.1009                 1.0994
 Frc consts  --      5.6143                 6.0694                 6.1394
 IR Inten    --     18.5555                33.1649                15.1843

                     28                     29                     30
                      A                      A                      A
 Frequencies --   3105.6703              3165.4446              3821.6037
 Red. masses --      1.0996                 1.0969                 1.0662
 Frc consts  --      6.2490                 6.4756                 9.1747
 IR Inten    --     36.1740                 4.1466                42.5562

 - Thermochemistry -
 -------------------
 Temperature   298.150 Kelvin.  Pressure   1.00000 Atm.
 Atom     1 has atomic number  6 and mass  12.00000

 Molecular mass:    73.05276 amu.
 Principal axes and moments of inertia in atomic units:
                           1         2         3
     Eigenvalues --   184.56650 454.20477 616.29928
           X            0.99974   0.02287   0.00001
           Y           -0.02287   0.99974  -0.00004
           Z           -0.00001   0.00004   1.00000
 This molecule is an asymmetric top.
 Rotational symmetry number  1.
 Rotational temperatures (Kelvin)      0.46928     0.19069     0.14054
 Rotational constants (GHZ):           9.77827     3.97341     2.92835
 Zero-point vibrational energy     265354.1 (Joules/Mol)
                                   63.42115 (Kcal/Mol)
 Warning -- explicit consideration of   8 degrees of freedom as
           vibrations may cause significant error
 Vibrational temperatures:     52.16   246.98   362.42   379.47   567.29
          (Kelvin)            586.40   871.89   891.89  1222.24  1402.27
                             1520.72  1527.78  1604.23  1663.18  1770.21
                             1889.09  2017.36  2069.96  2127.30  2137.23
                             2138.45  2158.93  2589.49  4326.62  4354.05
                             4401.20  4429.47  4468.36  4554.36  5498.43

 Zero-point correction=                           0.101068 (Hartree/Particle)
 Thermal correction to Energy=                    0.107515
 Thermal correction to Enthalpy=                  0.108459
 Thermal correction to Gibbs Free Energy=         0.070966
 Sum of electronic and zero-point Energies=           -248.416644
 Sum of electronic and thermal Energies=              -248.410198
 Sum of electronic and thermal Enthalpies=            -248.409253
 Sum of electronic and thermal Free Energies=         -248.446746

                     E (Thermal)             CV                S
                      KCal/Mol        Cal/Mol-Kelvin    Cal/Mol-Kelvin
 Total                   67.466             21.244             78.910
 Electronic               0.000              0.000              0.000
 Translational            0.889              2.981             38.782
 Rotational               0.889              2.981             25.450
 Vibrational             65.689             15.283             14.679
 Vibration     1          0.594              1.982              5.454
 Vibration     2          0.626              1.877              2.417
 Vibration     3          0.664              1.760              1.717
 Vibration     4          0.670              1.739              1.637
 Vibration     5          0.761              1.482              0.984
 Vibration     6          0.772              1.454              0.935
 Vibration     7          0.965              1.019              0.439
 Vibration     8          0.980              0.990              0.417

 Normal termination of Gaussian 09 at Thu Aug 25 19:32:19 2022.

 -----------------------------------------------------------------
 #P Geom=AllCheck Guess=TCheck SCRF=Check CCSD(T,E4T,FrzG4)/GTBas1
 -----------------------------------------------------------------

 Structure from the checkpoint file:  "G4.Frag_510.chk"
 --------
 Frag_510
 --------
 Charge =  0 Multiplicity = 1

 SCF Done:  E(RHF) =  -246.971928599     A.U. after   13 cycles
 E2 =    -0.7279103088D+00 EUMP2 =    -0.24769983890748D+03
 CCSD(T)
 CCSD(T)= -0.24776507492D+03
 SD=-247.7412494\CCSD(T)=-247.7650749\RMSD=3.410e-09\PG=C01 [X(C3H7N1O1
 Normal termination of Gaussian 09 at Thu Aug 25 19:34:14 2022.

 ---------------------------------------------------------
 #P Geom=AllCheck Guess=TCheck SCRF=Check MP4=FrzG4/GTBas2
 ---------------------------------------------------------

 Structure from the checkpoint file:  "G4.Frag_510.chk"
 --------
 Frag_510
 --------
 Charge =  0 Multiplicity = 1

 SCF Done:  E(RHF) =  -246.979535584     A.U. after   12 cycles
 E2 =    -0.7382697699D+00 EUMP2 =    -0.24771780535362D+03
 Normal termination of Gaussian 09 at Thu Aug 25 19:36:18 2022.

 ---------------------------------------------------------
 #P Geom=AllCheck Guess=TCheck SCRF=Check MP4=FrzG4/GTBas3
 ---------------------------------------------------------

 Structure from the checkpoint file:  "G4.Frag_510.chk"
 --------
 Frag_510
 --------
 Charge =  0 Multiplicity = 1

 SCF Done:  E(RHF) =  -247.005136261     A.U. after   11 cycles
 E2 =    -0.8948225360D+00 EUMP2 =    -0.24789995879706D+03
 Normal termination of Gaussian 09 at Thu Aug 25 20:15:50 2022.

 -----------------------------------------------------------
 #P Geom=AllCheck Guess=TCheck SCRF=Check MP2=Full/GTLargeXP
 -----------------------------------------------------------

 Structure from the checkpoint file:  "G4.Frag_510.chk"
 --------
 Frag_510
 --------
 Charge =  0 Multiplicity = 1

 SCF Done:  E(RHF) =  -247.068695812     A.U. after   12 cycles
 E2 =    -0.1173582194D+01 EUMP2 =    -0.24824227800625D+03
 Normal termination of Gaussian 09 at Thu Aug 25 20:18:23 2022.
 SCF Done:  E(RHF) =  -247.088441501     A.U. after    8 cycles
 Normal termination of Gaussian 09 at Thu Aug 25 20:21:19 2022.

                         Standard orientation:
 ---------------------------------------------------------------------
 Center     Atomic      Atomic             Coordinates (Angstroms)
 Number     Number       Type             X           Y           Z
 ---------------------------------------------------------------------
      1          6           0        1.942581   -0.143120   -0.000069
      2          7           0        0.633220   -0.782666   -0.000031
      3          6           0       -0.388334   -0.041849   -0.000019
      4          6           0       -1.784754   -0.599012    0.000028
      5          8           0       -0.293291    1.326082    0.000155
      6          1           0        2.716480   -0.914405   -0.004057
      7          1           0        2.089257    0.490669    0.884198
      8          1           0        2.086490    0.497465   -0.879868
      9          1           0       -2.339180   -0.263172    0.884926
     10          1           0       -2.339273   -0.263096   -0.884806
     11          1           0       -1.742273   -1.687089   -0.000083
     12          1           0       -1.174682    1.713517   -0.000976
 ---------------------------------------------------------------------

 SCF Done:  E(RHF) =  -247.092652257     A.U. after    8 cycles

 The electronic state is 1-A.
 Alpha  occ. eigenvalues --  -20.59841 -15.53137 -11.33237 -11.24091 -11.23229
 Alpha  occ. eigenvalues --   -1.42073  -1.20662  -1.01527  -0.91453  -0.79148
 Alpha  occ. eigenvalues --   -0.69518  -0.65399  -0.63331  -0.58507  -0.56712
 Alpha  occ. eigenvalues --   -0.54391  -0.54176  -0.52082  -0.40658  -0.38188
 Alpha virt. eigenvalues --    0.03156   0.04685   0.05098   0.05270   0.06707
 Alpha virt. eigenvalues --    0.07013   0.07490   0.09324   0.09793   0.10051
 Alpha virt. eigenvalues --    0.12700   0.13768   0.14261   0.15033   0.16007

 Mulliken charges:
               1
     1  C   -0.422305
     2  N   -0.405319
     3  C    0.416740
     4  C   -0.544615
     5  O   -0.558713
     6  H    0.180909
     7  H    0.169828
     8  H    0.169960
     9  H    0.192675
    10  H    0.192587
    11  H    0.222474
    12  H    0.385779
 Sum of Mulliken charges =  -0.00000

 Dipole moment (field-independent basis, Debye):
    X=             -2.5056    Y=              1.4799    Z=             -0.0016  Tot=              2.9100
 Quadrupole moment (field-independent basis, Debye-Ang):
   XX=            -25.6532   YY=            -33.1757   ZZ=            -31.6335
   XY=             -1.3899   XZ=              0.0028   YZ=             -0.0039

 Normal termination of Gaussian 09 at Thu Aug 25 21:49:42 2022.
