 Gaussian 09, Revision E.01,
 Gaussian 09:  ES64L-G09RevE.01 30-Nov-2015

 -----
 #P G4
 -----

 ---------
 Frag_1032
 ---------
 Symbolic Z-matrix:
 Charge =  0 Multiplicity = 1

 SCF Done:  E(RB3LYP) =  -276.609053171     A.U. after   14 cycles
 SCF Done:  E(RB3LYP) =  -276.643843170     A.U. after   13 cycles
 SCF Done:  E(RB3LYP) =  -276.650933972     A.U. after   13 cycles
 SCF Done:  E(RB3LYP) =  -276.653028047     A.U. after   13 cycles
 SCF Done:  E(RB3LYP) =  -276.652105591     A.U. after   15 cycles
 SCF Done:  E(RB3LYP) =  -276.653744939     A.U. after   11 cycles
 SCF Done:  E(RB3LYP) =  -276.653983199     A.U. after   12 cycles
 SCF Done:  E(RB3LYP) =  -276.654196123     A.U. after   11 cycles
 SCF Done:  E(RB3LYP) =  -276.654268754     A.U. after   11 cycles
 SCF Done:  E(RB3LYP) =  -276.654320433     A.U. after   11 cycles
 SCF Done:  E(RB3LYP) =  -276.654336035     A.U. after    9 cycles
 SCF Done:  E(RB3LYP) =  -276.654337312     A.U. after    8 cycles
 SCF Done:  E(RB3LYP) =  -276.654337680     A.U. after    8 cycles
 Optimization completed.
    -- Stationary point found.
 Normal termination of Gaussian 09 at Tue Aug 30 10:29:26 2022.

 ----------------------------------------------------------
 #P Geom=AllCheck Guess=TCheck SCRF=Check B3LYP/GTBas3 Freq
 ----------------------------------------------------------

 Structure from the checkpoint file:  "G4.Frag_1032.chk"
 ---------
 Frag_1032
 ---------
 Charge =  0 Multiplicity = 1

 SCF Done:  E(RB3LYP) =  -276.654337680     A.U. after    1 cycles

  Exact polarizability:  50.646  -1.764  39.955  -1.637  -0.298  26.772
 Approx polarizability:  81.902  -3.245  58.050  -5.582  -0.492  41.718

                      1                      2                      3
                      A                      A                      A
 Frequencies --    168.4911               224.5821               306.1119
 Red. masses --      1.4858                 2.0641                 1.1073
 Frc consts  --      0.0249                 0.0613                 0.0611
 IR Inten    --     21.9777                41.4964                16.3968

                      4                      5                      6
                      A                      A                      A
 Frequencies --    365.6657               407.7550               492.4797
 Red. masses --      4.0038                 3.3551                 2.9596
 Frc consts  --      0.3154                 0.3287                 0.4229
 IR Inten    --      5.1240                33.9725                25.7424

                      7                      8                      9
                      A                      A                      A
 Frequencies --    670.1212               762.9044               823.6797
 Red. masses --      4.6408                 4.6462                 3.0855
 Frc consts  --      1.2279                 1.5933                 1.2334
 IR Inten    --     68.2109                38.6603                88.7600

                     10                     11                     12
                      A                      A                      A
 Frequencies --    950.7220              1071.8812              1122.9177
 Red. masses --      1.7833                 1.3369                 2.1652
 Frc consts  --      0.9497                 0.9050                 1.6086
 IR Inten    --     57.5948                66.8453                21.7816

                     13                     14                     15
                      A                      A                      A
 Frequencies --   1250.0234              1298.1698              1330.3662
 Red. masses --      2.7447                 1.1855                 1.1977
 Frc consts  --      2.5269                 1.1771                 1.2489
 IR Inten    --     19.5418                 1.6197                14.6856

                     16                     17                     18
                      A                      A                      A
 Frequencies --   1460.5767              1648.8039              1674.5578
 Red. masses --      1.3334                 4.4636                 1.0976
 Frc consts  --      1.6759                 7.1495                 1.8134
 IR Inten    --    159.9071                36.8272                29.7454

                     19                     20                     21
                      A                      A                      A
 Frequencies --   1684.5676              3169.2015              3455.8115
 Red. masses --      1.1973                 1.0661                 1.0480
 Frc consts  --      2.0019                 6.3088                 7.3743
 IR Inten    --     11.4810                 6.9249                 2.2288

                     22                     23                     24
                      A                      A                      A
 Frequencies --   3463.4953              3538.9614              3569.0619
 Red. masses --      1.0501                 1.0949                 1.0918
 Frc consts  --      7.4218                 8.0790                 8.1943
 IR Inten    --      4.3625                 6.4711                 8.7824

 - Thermochemistry -
 -------------------
 Temperature   298.150 Kelvin.  Pressure   1.00000 Atm.
 Atom     1 has atomic number  7 and mass  14.00307

 Molecular mass:    75.05450 amu.
 Principal axes and moments of inertia in atomic units:
                           1         2         3
     Eigenvalues --   195.36644 381.63157 544.87315
           X            0.99867  -0.05150  -0.00106
           Y            0.05150   0.99867  -0.00315
           Z            0.00122   0.00309   0.99999
 This molecule is an asymmetric top.
 Rotational symmetry number  1.
 Rotational temperatures (Kelvin)      0.44334     0.22696     0.15896
 Rotational constants (GHZ):           9.23772     4.72901     3.31222
 Zero-point vibrational energy     208813.6 (Joules/Mol)
                                   49.90765 (Kcal/Mol)
 Warning -- explicit consideration of   6 degrees of freedom as
           vibrations may cause significant error
 Vibrational temperatures:    242.42   323.12   440.43   526.11   586.67
          (Kelvin)            708.57   964.15  1097.65  1185.09  1367.88
                             1542.20  1615.63  1798.50  1867.77  1914.10
                             2101.44  2372.26  2409.31  2423.71  4559.77
                             4972.14  4983.19  5091.77  5135.08

 Zero-point correction=                           0.079533 (Hartree/Particle)
 Thermal correction to Energy=                    0.085219
 Thermal correction to Enthalpy=                  0.086163
 Thermal correction to Gibbs Free Energy=         0.051160
 Sum of electronic and zero-point Energies=           -276.574805
 Sum of electronic and thermal Energies=              -276.569119
 Sum of electronic and thermal Enthalpies=            -276.568175
 Sum of electronic and thermal Free Energies=         -276.603177

                     E (Thermal)             CV                S
                      KCal/Mol        Cal/Mol-Kelvin    Cal/Mol-Kelvin
 Total                   53.476             19.452             73.670
 Electronic               0.000              0.000              0.000
 Translational            0.889              2.981             38.863
 Rotational               0.889              2.981             25.211
 Vibrational             51.698             13.490              9.596
 Vibration     1          0.625              1.881              2.452
 Vibration     2          0.649              1.804              1.922
 Vibration     3          0.696              1.662              1.383
 Vibration     4          0.739              1.543              1.098
 Vibration     5          0.772              1.453              0.935
 Vibration     6          0.848              1.267              0.677

 Optimization completed.
    -- Stationary point found.
 Normal termination of Gaussian 09 at Tue Aug 30 10:29:44 2022.

 -----------------------------------------------------------------
 #P Geom=AllCheck Guess=TCheck SCRF=Check CCSD(T,E4T,FrzG4)/GTBas1
 -----------------------------------------------------------------

 Structure from the checkpoint file:  "G4.Frag_1032.chk"
 ---------
 Frag_1032
 ---------
 Charge =  0 Multiplicity = 1

 SCF Done:  E(RHF) =  -274.995032033     A.U. after   15 cycles
 E2 =    -0.8220262864D+00 EUMP2 =    -0.27581705831905D+03
 CCSD(T)
 CCSD(T)= -0.27587875986D+03
 Normal termination of Gaussian 09 at Tue Aug 30 10:30:39 2022.

 ---------------------------------------------------------
 #P Geom=AllCheck Guess=TCheck SCRF=Check MP4=FrzG4/GTBas2
 ---------------------------------------------------------

 Structure from the checkpoint file:  "G4.Frag_1032.chk"
 ---------
 Frag_1032
 ---------
 Charge =  0 Multiplicity = 1

 SCF Done:  E(RHF) =  -275.005399113     A.U. after   13 cycles
 E2 =    -0.8348989153D+00 EUMP2 =    -0.27584029802788D+03
 Normal termination of Gaussian 09 at Tue Aug 30 10:30:54 2022.

 ---------------------------------------------------------
 #P Geom=AllCheck Guess=TCheck SCRF=Check MP4=FrzG4/GTBas3
 ---------------------------------------------------------

 Structure from the checkpoint file:  "G4.Frag_1032.chk"
 ---------
 Frag_1032
 ---------
 Charge =  0 Multiplicity = 1

 SCF Done:  E(RHF) =  -275.032373812     A.U. after   13 cycles
 E2 =    -0.9838724399D+00 EUMP2 =    -0.27601624625162D+03
 Normal termination of Gaussian 09 at Tue Aug 30 10:32:02 2022.

 -----------------------------------------------------------
 #P Geom=AllCheck Guess=TCheck SCRF=Check MP2=Full/GTLargeXP
 -----------------------------------------------------------

 Structure from the checkpoint file:  "G4.Frag_1032.chk"
 ---------
 Frag_1032
 ---------
 Charge =  0 Multiplicity = 1

 SCF Done:  E(RHF) =  -275.107175457     A.U. after   13 cycles
 E2 =    -0.1271134254D+01 EUMP2 =    -0.27637830971110D+03
 Normal termination of Gaussian 09 at Tue Aug 30 10:32:46 2022.
 SCF Done:  E(RHF) =  -275.129257567     A.U. after   10 cycles
 Normal termination of Gaussian 09 at Tue Aug 30 10:33:40 2022.

                         Standard orientation:
 ---------------------------------------------------------------------
 Center     Atomic      Atomic             Coordinates (Angstroms)
 Number     Number       Type             X           Y           Z
 ---------------------------------------------------------------------
      1          7           0       -1.850326   -0.222226    0.094664
      2          7           0       -0.763968   -0.782678   -0.069287
      3          7           0        0.377302    0.014286   -0.332021
      4          7           0        1.549629   -0.625483    0.160471
      5          7           0        0.258080    1.359907    0.069800
      6          1           0       -1.714502    0.811088    0.068003
      7          1           0        2.008098   -1.067579   -0.632067
      8          1           0        1.253310   -1.376990    0.781747
      9          1           0        0.703318    1.939220   -0.633192
     10          1           0        0.754752    1.487617    0.950125
 ---------------------------------------------------------------------

 SCF Done:  E(RHF) =  -275.133703535     A.U. after    8 cycles

 The electronic state is 1-A.
 Alpha  occ. eigenvalues --  -15.66394 -15.65702 -15.60254 -15.59930 -15.59648
 Alpha  occ. eigenvalues --   -1.42311  -1.29947  -1.17808  -1.02293  -0.84914
 Alpha  occ. eigenvalues --   -0.74977  -0.73110  -0.68956  -0.66247  -0.56114
 Alpha  occ. eigenvalues --   -0.54977  -0.48507  -0.45916  -0.41273  -0.38878
 Alpha virt. eigenvalues --    0.04712   0.05430   0.06558   0.07196   0.08705
 Alpha virt. eigenvalues --    0.09053   0.09209   0.09914   0.10929   0.12397
 Alpha virt. eigenvalues --    0.12801   0.13646   0.15246   0.15380   0.16668

 Mulliken charges:
               1
     1  N   -0.382780
     2  N   -0.047294
     3  N    0.084192
     4  N   -0.607265
     5  N   -0.632788
     6  H    0.315281
     7  H    0.316715
     8  H    0.318170
     9  H    0.322850
    10  H    0.312919
 Sum of Mulliken charges =  -0.00000

 Dipole moment (field-independent basis, Debye):
    X=              2.7630    Y=              1.5104    Z=              0.0073  Tot=              3.1489
 Quadrupole moment (field-independent basis, Debye-Ang):
   XX=            -34.4021   YY=            -26.9595   ZZ=            -28.9337
   XY=             -3.5417   XZ=             -0.7832   YZ=             -0.5634

 Normal termination of Gaussian 09 at Tue Aug 30 10:38:08 2022.
