 Gaussian 09, Revision E.01,
 Gaussian 09:  ES64L-G09RevE.01 30-Nov-2015

 -----
 #P G4
 -----

 --------
 Frag_582
 --------
 Symbolic Z-matrix:
 Charge =  0 Multiplicity = 1

 SCF Done:  E(RB3LYP) =  -267.937560379     A.U. after   13 cycles
 SCF Done:  E(RB3LYP) =  -267.945783320     A.U. after   12 cycles
 SCF Done:  E(RB3LYP) =  -267.946179340     A.U. after   11 cycles
 SCF Done:  E(RB3LYP) =  -267.946477042     A.U. after   11 cycles
 SCF Done:  E(RB3LYP) =  -267.934744016     A.U. after   14 cycles
 SCF Done:  E(RB3LYP) =  -267.948086922     A.U. after   12 cycles
 SCF Done:  E(RB3LYP) =  -267.949330153     A.U. after   11 cycles
 SCF Done:  E(RB3LYP) =  -267.948714165     A.U. after   12 cycles
 SCF Done:  E(RB3LYP) =  -267.950293856     A.U. after    8 cycles
 SCF Done:  E(RB3LYP) =  -267.951748266     A.U. after   12 cycles
 SCF Done:  E(RB3LYP) =  -267.957447869     A.U. after    9 cycles
 SCF Done:  E(RB3LYP) =  -267.957448228     A.U. after    7 cycles
 SCF Done:  E(RB3LYP) =  -267.957448323     A.U. after    7 cycles
 Optimization completed.
    -- Stationary point found.
 Normal termination of Gaussian 09 at Fri Aug 26 10:45:14 2022.

 ----------------------------------------------------------
 #P Geom=AllCheck Guess=TCheck SCRF=Check B3LYP/GTBas3 Freq
 ----------------------------------------------------------

 Structure from the checkpoint file:  "G4.Frag_582.chk"
 --------
 Frag_582
 --------
 Charge =  0 Multiplicity = 1

 SCF Done:  E(RB3LYP) =  -267.957448323     A.U. after    1 cycles

  Exact polarizability:  62.095   1.478  63.198  -0.755  -3.682  47.531
 Approx polarizability:  80.102   2.969  93.947  -2.104  -8.989  73.242

                      1                      2                      3
                      A                      A                      A
 Frequencies --     35.7892               121.4201               171.5487
 Red. masses --      2.2845                 1.0822                 1.1944
 Frc consts  --      0.0017                 0.0094                 0.0207
 IR Inten    --      8.3269                 1.8666                32.7119

                      4                      5                      6
                      A                      A                      A
 Frequencies --    214.1984               264.0815               313.6317
 Red. masses --      1.2464                 2.1208                 2.4939
 Frc consts  --      0.0337                 0.0871                 0.1445
 IR Inten    --      0.1579                 3.0516                 5.4267

                      7                      8                      9
                      A                      A                      A
 Frequencies --    377.7141               444.8956               555.1807
 Red. masses --      2.9112                 2.4955                 3.1040
 Frc consts  --      0.2447                 0.2910                 0.5637
 IR Inten    --      7.3918                 1.9124                10.4917

                     10                     11                     12
                      A                      A                      A
 Frequencies --    614.5217               749.4974               875.8862
 Red. masses --      2.5868                 2.6163                 1.1812
 Frc consts  --      0.5756                 0.8659                 0.5339
 IR Inten    --      3.5346                 9.0239                28.6235

                     13                     14                     15
                      A                      A                      A
 Frequencies --    920.1716               951.0816               971.0460
 Red. masses --      2.1305                 1.5237                 2.0731
 Frc consts  --      1.0628                 0.8121                 1.1517
 IR Inten    --     14.2472               108.4198                22.5072

                     16                     17                     18
                      A                      A                      A
 Frequencies --   1020.1476              1059.7954              1078.0135
 Red. masses --      1.3776                 1.3550                 1.5963
 Frc consts  --      0.8447                 0.8966                 1.0930
 IR Inten    --      9.2260                60.0198                33.1865

                     19                     20                     21
                      A                      A                      A
 Frequencies --   1121.1808              1171.9419              1269.4257
 Red. masses --      1.6001                 2.1277                 1.5317
 Frc consts  --      1.1851                 1.7217                 1.4542
 IR Inten    --     16.8659                10.6092                20.0027

                     22                     23                     24
                      A                      A                      A
 Frequencies --   1313.3273              1366.0395              1394.8092
 Red. masses --      1.3756                 1.6944                 1.2089
 Frc consts  --      1.3980                 1.8629                 1.3857
 IR Inten    --     20.5655                32.1330                 4.2746

                     25                     26                     27
                      A                      A                      A
 Frequencies --   1401.2945              1415.6990              1473.8187
 Red. masses --      1.2758                 1.4034                 1.0556
 Frc consts  --      1.4760                 1.6572                 1.3509
 IR Inten    --     15.7284                 2.2479                14.6640

                     28                     29                     30
                      A                      A                      A
 Frequencies --   1482.6612              1492.8932              1501.0556
 Red. masses --      1.0622                 1.0522                 1.0511
 Frc consts  --      1.3757                 1.3817                 1.3954
 IR Inten    --     13.7300                 0.4349                 3.8104

                     31                     32                     33
                      A                      A                      A
 Frequencies --   1673.8238              1725.0894              2991.6922
 Red. masses --      1.0892                 8.1478                 1.0817
 Frc consts  --      1.7980                14.2860                 5.7040
 IR Inten    --     16.6602                58.4413                22.4387

                     34                     35                     36
                      A                      A                      A
 Frequencies --   3030.7720              3037.3628              3091.4924
 Red. masses --      1.0361                 1.0380                 1.0988
 Frc consts  --      5.6072                 5.6423                 6.1872
 IR Inten    --      9.6835                18.7514                15.2121

                     37                     38                     39
                      A                      A                      A
 Frequencies --   3107.6841              3115.3795              3130.9014
 Red. masses --      1.0979                 1.1020                 1.1020
 Frc consts  --      6.2472                 6.3016                 6.3648
 IR Inten    --     21.0854                26.3096                17.0773

                     40                     41                     42
                      A                      A                      A
 Frequencies --   3426.6187              3475.6353              3538.8147
 Red. masses --      1.0744                 1.0509                 1.0884
 Frc consts  --      7.4325                 7.4797                 8.0309
 IR Inten    --      5.9280                 0.2382                 0.5107

 - Thermochemistry -
 -------------------
 Temperature   298.150 Kelvin.  Pressure   1.00000 Atm.
 Atom     1 has atomic number  6 and mass  12.00000

 Molecular mass:    86.08440 amu.
 Principal axes and moments of inertia in atomic units:
                           1         2         3
     Eigenvalues --   383.06230 594.74012 855.84055
           X            0.99973  -0.01786   0.01475
           Y            0.01775   0.99981   0.00769
           Z           -0.01488  -0.00743   0.99986
 This molecule is an asymmetric top.
 Rotational symmetry number  1.
 Rotational temperatures (Kelvin)      0.22611     0.14563     0.10120
 Rotational constants (GHZ):           4.71135     3.03450     2.10874
 Zero-point vibrational energy     373761.4 (Joules/Mol)
                                   89.33113 (Kcal/Mol)
 Warning -- explicit consideration of  10 degrees of freedom as
           vibrations may cause significant error
 Vibrational temperatures:     51.49   174.70   246.82   308.18   379.95
          (Kelvin)            451.25   543.45   640.10   798.78   884.16
                             1078.36  1260.20  1323.92  1368.39  1397.12
                             1467.76  1524.81  1551.02  1613.13  1686.16
                             1826.42  1889.58  1965.42  2006.82  2016.15
                             2036.87  2120.49  2133.22  2147.94  2159.68
                             2408.26  2482.02  4304.37  4360.60  4370.08
                             4447.96  4471.26  4482.33  4504.66  4930.13
                             5000.66  5091.56

 Zero-point correction=                           0.142358 (Hartree/Particle)
 Thermal correction to Energy=                    0.150205
 Thermal correction to Enthalpy=                  0.151149
 Thermal correction to Gibbs Free Energy=         0.110242
 Sum of electronic and zero-point Energies=           -267.815090
 Sum of electronic and thermal Energies=              -267.807244
 Sum of electronic and thermal Enthalpies=            -267.806300
 Sum of electronic and thermal Free Energies=         -267.847207

                     E (Thermal)             CV                S
                      KCal/Mol        Cal/Mol-Kelvin    Cal/Mol-Kelvin
 Total                   94.255             27.149             86.096
 Electronic               0.000              0.000              0.000
 Translational            0.889              2.981             39.271
 Rotational               0.889              2.981             26.769
 Vibrational             92.477             21.187             20.055
 Vibration     1          0.594              1.982              5.480
 Vibration     2          0.609              1.931              3.078
 Vibration     3          0.626              1.878              2.418
 Vibration     4          0.644              1.819              2.008
 Vibration     5          0.671              1.739              1.635
 Vibration     6          0.701              1.648              1.343
 Vibration     7          0.748              1.518              1.048
 Vibration     8          0.804              1.372              0.811
 Vibration     9          0.911              1.128              0.534
 Vibration    10          0.974              1.001              0.425

 Normal termination of Gaussian 09 at Fri Aug 26 10:45:50 2022.

 -----------------------------------------------------------------
 #P Geom=AllCheck Guess=TCheck SCRF=Check CCSD(T,E4T,FrzG4)/GTBas1
 -----------------------------------------------------------------

 Structure from the checkpoint file:  "G4.Frag_582.chk"
 --------
 Frag_582
 --------
 Charge =  0 Multiplicity = 1

 SCF Done:  E(RHF) =  -266.170309683     A.U. after   13 cycles
 E2 =    -0.8468808007D+00 EUMP2 =    -0.26701719048352D+03
 CCSD(T)
 CCSD(T)= -0.26710562264D+03
 Q=-267.1045936\MP4SDQ=-267.0761735\CCSD=-267.0770788\CCSD(T)=-267.1056
 Normal termination of Gaussian 09 at Fri Aug 26 10:48:06 2022.

 ---------------------------------------------------------
 #P Geom=AllCheck Guess=TCheck SCRF=Check MP4=FrzG4/GTBas2
 ---------------------------------------------------------

 Structure from the checkpoint file:  "G4.Frag_582.chk"
 --------
 Frag_582
 --------
 Charge =  0 Multiplicity = 1

 SCF Done:  E(RHF) =  -266.178401563     A.U. after   13 cycles
 E2 =    -0.8582818627D+00 EUMP2 =    -0.26703668342618D+03
 Normal termination of Gaussian 09 at Fri Aug 26 10:48:47 2022.

 ---------------------------------------------------------
 #P Geom=AllCheck Guess=TCheck SCRF=Check MP4=FrzG4/GTBas3
 ---------------------------------------------------------

 Structure from the checkpoint file:  "G4.Frag_582.chk"
 --------
 Frag_582
 --------
 Charge =  0 Multiplicity = 1

 SCF Done:  E(RHF) =  -266.207472612     A.U. after   11 cycles
 E2 =    -0.1039764860D+01 EUMP2 =    -0.26724723747214D+03
 Normal termination of Gaussian 09 at Fri Aug 26 10:52:53 2022.

 -----------------------------------------------------------
 #P Geom=AllCheck Guess=TCheck SCRF=Check MP2=Full/GTLargeXP
 -----------------------------------------------------------

 Structure from the checkpoint file:  "G4.Frag_582.chk"
 --------
 Frag_582
 --------
 Charge =  0 Multiplicity = 1

 SCF Done:  E(RHF) =  -266.271082073     A.U. after   12 cycles
 E2 =    -0.1365379253D+01 EUMP2 =    -0.26763646132661D+03
 Normal termination of Gaussian 09 at Fri Aug 26 10:55:13 2022.
 SCF Done:  E(RHF) =  -266.291701689     A.U. after    8 cycles
 Normal termination of Gaussian 09 at Fri Aug 26 10:57:23 2022.

                         Standard orientation:
 ---------------------------------------------------------------------
 Center     Atomic      Atomic             Coordinates (Angstroms)
 Number     Number       Type             X           Y           Z
 ---------------------------------------------------------------------
      1          6           0       -1.822426    0.793808   -0.260354
      2          6           0       -0.747427   -0.244768   -0.017834
      3          7           0       -0.951326   -1.406859    0.459850
      4          6           0        0.686329    0.149988   -0.388858
      5          6           0        1.167387    1.346090    0.449452
      6          7           0        1.664807   -0.927849   -0.290464
      7          1           0       -2.819763    0.348882   -0.206665
      8          1           0       -1.765917    1.592719    0.487525
      9          1           0       -1.702697    1.269032   -1.240382
     10          1           0       -1.944618   -1.549948    0.659471
     11          1           0        0.658903    0.473591   -1.440755
     12          1           0        0.539103    2.229114    0.306623
     13          1           0        2.191721    1.597058    0.164921
     14          1           0        1.161335    1.094012    1.516290
     15          1           0        1.307064   -1.731086   -0.802518
     16          1           0        1.677323   -1.251125    0.675353
 ---------------------------------------------------------------------

 SCF Done:  E(RHF) =  -266.296058665     A.U. after    7 cycles

 The electronic state is 1-A.
 Alpha  occ. eigenvalues --  -15.54266 -15.52971 -11.28519 -11.26179 -11.23924
 Alpha  occ. eigenvalues --  -11.22021  -1.22611  -1.16373  -1.01769  -0.97311
 Alpha  occ. eigenvalues --   -0.86197  -0.74275  -0.66012  -0.64420  -0.63175
 Alpha  occ. eigenvalues --   -0.59325  -0.57751  -0.56101  -0.52520  -0.51109
 Alpha  occ. eigenvalues --   -0.49727  -0.42275  -0.41956  -0.39275
 Alpha virt. eigenvalues --    0.02919   0.04196   0.04618   0.05035   0.06818
 Alpha virt. eigenvalues --    0.06966   0.07286   0.07563   0.07897   0.09832
 Alpha virt. eigenvalues --    0.09932   0.10294   0.11039   0.12260   0.12782

 Mulliken charges:
               1
     1  C   -0.571589
     2  C    0.293263
     3  N   -0.648391
     4  C    0.081520
     5  C   -0.548052
     6  N   -0.698588
     7  H    0.169083
     8  H    0.190424
     9  H    0.186621
    10  H    0.272292
    11  H    0.168275
    12  H    0.159820
    13  H    0.193873
    14  H    0.165578
    15  H    0.294565
    16  H    0.291306
 Sum of Mulliken charges =  -0.00000

 Dipole moment (field-independent basis, Debye):
    X=             -2.2826    Y=              1.8480    Z=             -0.2102  Tot=              2.9444
 Quadrupole moment (field-independent basis, Debye-Ang):
   XX=            -39.9744   YY=            -40.1393   ZZ=            -38.2254
   XY=              0.1477   XZ=              1.5030   YZ=              0.4083

 Normal termination of Gaussian 09 at Fri Aug 26 11:04:47 2022.
