 Gaussian 09, Revision E.01,
 Gaussian 09:  ES64L-G09RevE.01 30-Nov-2015

 -----
 #P G4
 -----

 --------
 Frag_761
 --------
 Symbolic Z-matrix:
 Charge =  0 Multiplicity = 1

 SCF Done:  E(RB3LYP) =  -248.507499351     A.U. after   14 cycles
 SCF Done:  E(RB3LYP) =  -248.527316854     A.U. after   12 cycles
 SCF Done:  E(RB3LYP) =  -248.528881703     A.U. after   10 cycles
 SCF Done:  E(RB3LYP) =  -248.529047998     A.U. after   10 cycles
 SCF Done:  E(RB3LYP) =  -248.529327760     A.U. after   12 cycles
 SCF Done:  E(RB3LYP) =  -248.529479671     A.U. after   11 cycles
 SCF Done:  E(RB3LYP) =  -248.529737610     A.U. after   12 cycles
 SCF Done:  E(RB3LYP) =  -248.529830783     A.U. after   10 cycles
 SCF Done:  E(RB3LYP) =  -248.529846022     A.U. after   11 cycles
 SCF Done:  E(RB3LYP) =  -248.529856537     A.U. after   10 cycles
 SCF Done:  E(RB3LYP) =  -248.529856804     A.U. after    7 cycles
 Optimization completed.
    -- Stationary point found.
 Normal termination of Gaussian 09 at Sun Aug 21 10:02:36 2022.

 ----------------------------------------------------------
 #P Geom=AllCheck Guess=TCheck SCRF=Check B3LYP/GTBas3 Freq
 ----------------------------------------------------------

 Structure from the checkpoint file:  "G4.Frag_761.chk"
 --------
 Frag_761
 --------
 Charge =  0 Multiplicity = 1

 SCF Done:  E(RB3LYP) =  -248.529856804     A.U. after    1 cycles

  Exact polarizability:  49.658   2.433  46.051  -3.020  -0.967  33.780
 Approx polarizability:  66.093   7.206  69.972  -6.609  -3.913  48.960

                      1                      2                      3
                      A                      A                      A
 Frequencies --     63.8833               218.8987               250.0424
 Red. masses --      2.6377                 1.1054                 3.0377
 Frc consts  --      0.0063                 0.0312                 0.1119
 IR Inten    --      0.0493                 0.0769                 0.8790

                      4                      5                      6
                      A                      A                      A
 Frequencies --    435.1906               534.7745               589.2274
 Red. masses --      2.4103                 2.8331                 1.2816
 Frc consts  --      0.2690                 0.4774                 0.2622
 IR Inten    --      0.2399                32.4790                86.2523

                      7                      8                      9
                      A                      A                      A
 Frequencies --    695.0805               800.9607               823.7350
 Red. masses --      2.8155                 1.2452                 2.8045
 Frc consts  --      0.8015                 0.4707                 1.1212
 IR Inten    --     44.8254                 3.6732                 6.0846

                     10                     11                     12
                      A                      A                      A
 Frequencies --    853.6114               997.7903              1068.7861
 Red. masses --      1.1431                 2.3163                 2.0998
 Frc consts  --      0.4907                 1.3587                 1.4132
 IR Inten    --     25.2098                13.5416                83.2416

                     13                     14                     15
                      A                      A                      A
 Frequencies --   1099.2896              1119.6226              1256.7436
 Red. masses --      1.7120                 1.3681                 1.4036
 Frc consts  --      1.2189                 1.0105                 1.3062
 IR Inten    --     14.6235               105.2066                67.4327

                     16                     17                     18
                      A                      A                      A
 Frequencies --   1287.4715              1347.1813              1401.6299
 Red. masses --      1.2105                 1.4154                 1.3026
 Frc consts  --      1.1822                 1.5135                 1.5077
 IR Inten    --     13.8059                 9.2116                 5.7143

                     19                     20                     21
                      A                      A                      A
 Frequencies --   1444.4165              1476.3404              1496.8262
 Red. masses --      2.2209                 1.0777                 1.0403
 Frc consts  --      2.7300                 1.3840                 1.3733
 IR Inten    --     40.4310                 4.2238                 6.8368

                     22                     23                     24
                      A                      A                      A
 Frequencies --   1509.8678              1745.0268              3040.1109
 Red. masses --      1.0762                 7.5901                 1.0623
 Frc consts  --      1.4455                13.6176                 5.7845
 IR Inten    --      9.5562               208.4535                 9.5691

                     25                     26                     27
                      A                      A                      A
 Frequencies --   3046.4298              3090.9098              3114.5173
 Red. masses --      1.0359                 1.0989                 1.1025
 Frc consts  --      5.6644                 6.1858                 6.3010
 IR Inten    --     26.0898                 9.9459                27.7428

                     28                     29                     30
                      A                      A                      A
 Frequencies --   3134.2554              3514.7185              3752.9123
 Red. masses --      1.1017                 1.0753                 1.0638
 Frc consts  --      6.3767                 7.8261                 8.8280
 IR Inten    --     21.6739                 1.3862                43.4750

 - Thermochemistry -
 -------------------
 Temperature   298.150 Kelvin.  Pressure   1.00000 Atm.
 Atom     1 has atomic number  6 and mass  12.00000

 Molecular mass:    73.05276 amu.
 Principal axes and moments of inertia in atomic units:
                           1         2         3
     Eigenvalues --   208.57889 466.02442 593.93347
           X            0.99996  -0.00639   0.00577
           Y            0.00624   0.99964   0.02625
           Z           -0.00594  -0.02621   0.99964
 This molecule is an asymmetric top.
 Rotational symmetry number  1.
 Rotational temperatures (Kelvin)      0.41526     0.18586     0.14583
 Rotational constants (GHZ):           8.65256     3.87263     3.03863
 Zero-point vibrational energy     270417.3 (Joules/Mol)
                                   64.63130 (Kcal/Mol)
 Warning -- explicit consideration of   6 degrees of freedom as
           vibrations may cause significant error
 Vibrational temperatures:     91.91   314.95   359.75   626.14   769.42
          (Kelvin)            847.77  1000.06  1152.40  1185.17  1228.15
                             1435.60  1537.74  1581.63  1610.89  1808.17
                             1852.38  1938.29  2016.63  2078.19  2124.12
                             2153.60  2172.36  2510.70  4374.04  4383.13
                             4447.12  4481.09  4509.49  5056.89  5399.60

 Zero-point correction=                           0.102997 (Hartree/Particle)
 Thermal correction to Energy=                    0.108803
 Thermal correction to Enthalpy=                  0.109747
 Thermal correction to Gibbs Free Energy=         0.073837
 Sum of electronic and zero-point Energies=           -248.426860
 Sum of electronic and thermal Energies=              -248.421054
 Sum of electronic and thermal Enthalpies=            -248.420110
 Sum of electronic and thermal Free Energies=         -248.456020

                     E (Thermal)             CV                S
                      KCal/Mol        Cal/Mol-Kelvin    Cal/Mol-Kelvin
 Total                   68.275             19.937             75.578
 Electronic               0.000              0.000              0.000
 Translational            0.889              2.981             38.782
 Rotational               0.889              2.981             25.560
 Vibrational             66.497             13.975             11.236
 Vibration     1          0.597              1.972              4.333
 Vibration     2          0.647              1.812              1.968
 Vibration     3          0.663              1.763              1.730
 Vibration     4          0.796              1.394              0.842
 Vibration     5          0.890              1.173              0.577
 Vibration     6          0.947              1.055              0.469

 Optimization completed.
    -- Stationary point found.
 Normal termination of Gaussian 09 at Sun Aug 21 10:04:02 2022.

 -----------------------------------------------------------------
 #P Geom=AllCheck Guess=TCheck SCRF=Check CCSD(T,E4T,FrzG4)/GTBas1
 -----------------------------------------------------------------

 Structure from the checkpoint file:  "G4.Frag_761.chk"
 --------
 Frag_761
 --------
 Charge =  0 Multiplicity = 1

 SCF Done:  E(RHF) =  -246.986069072     A.U. after   12 cycles
 E2 =    -0.7270131400D+00 EUMP2 =    -0.24771308221240D+03
 CCSD(T)
 CCSD(T)= -0.24777798403D+03
 =-247.7547141\CCSD(T)=-247.777984\RMSD=9.493e-09\PG=C01 [X(C3H7N1O1)]\
 Normal termination of Gaussian 09 at Sun Aug 21 10:05:54 2022.

 ---------------------------------------------------------
 #P Geom=AllCheck Guess=TCheck SCRF=Check MP4=FrzG4/GTBas2
 ---------------------------------------------------------

 Structure from the checkpoint file:  "G4.Frag_761.chk"
 --------
 Frag_761
 --------
 Charge =  0 Multiplicity = 1

 SCF Done:  E(RHF) =  -246.993998807     A.U. after   12 cycles
 E2 =    -0.7374345949D+00 EUMP2 =    -0.24773143340224D+03
 Normal termination of Gaussian 09 at Sun Aug 21 10:07:58 2022.

 ---------------------------------------------------------
 #P Geom=AllCheck Guess=TCheck SCRF=Check MP4=FrzG4/GTBas3
 ---------------------------------------------------------

 Structure from the checkpoint file:  "G4.Frag_761.chk"
 --------
 Frag_761
 --------
 Charge =  0 Multiplicity = 1

 SCF Done:  E(RHF) =  -247.020546863     A.U. after   11 cycles
 E2 =    -0.8941076715D+00 EUMP2 =    -0.24791465453467D+03
 Normal termination of Gaussian 09 at Sun Aug 21 10:47:01 2022.

 -----------------------------------------------------------
 #P Geom=AllCheck Guess=TCheck SCRF=Check MP2=Full/GTLargeXP
 -----------------------------------------------------------

 Structure from the checkpoint file:  "G4.Frag_761.chk"
 --------
 Frag_761
 --------
 Charge =  0 Multiplicity = 1

 SCF Done:  E(RHF) =  -247.084617624     A.U. after   12 cycles
 E2 =    -0.1172737185D+01 EUMP2 =    -0.24825735480962D+03
 Normal termination of Gaussian 09 at Sun Aug 21 10:49:38 2022.
 SCF Done:  E(RHF) =  -247.104584497     A.U. after    8 cycles
 Normal termination of Gaussian 09 at Sun Aug 21 10:52:41 2022.

                         Standard orientation:
 ---------------------------------------------------------------------
 Center     Atomic      Atomic             Coordinates (Angstroms)
 Number     Number       Type             X           Y           Z
 ---------------------------------------------------------------------
      1          6           0       -1.874069   -0.085918   -0.367893
      2          6           0       -0.764119    0.494669    0.522613
      3          6           0        0.619077    0.086855    0.076595
      4          7           0        1.591221    0.813027   -0.295714
      5          8           0        0.768212   -1.258746    0.104317
      6          1           0       -1.831915   -1.177355   -0.374667
      7          1           0       -2.857919    0.220201   -0.001516
      8          1           0       -1.772518    0.264173   -1.399777
      9          1           0       -0.817150    1.586757    0.541879
     10          1           0       -0.904917    0.143069    1.551834
     11          1           0        1.343623    1.799583   -0.270224
     12          1           0        1.671224   -1.431284   -0.199953
 ---------------------------------------------------------------------

 SCF Done:  E(RHF) =  -247.108811445     A.U. after    8 cycles

 The electronic state is 1-A.
 Alpha  occ. eigenvalues --  -20.59192 -15.53456 -11.34132 -11.24715 -11.22852
 Alpha  occ. eigenvalues --   -1.42375  -1.19143  -1.05363  -0.89602  -0.80202
 Alpha  occ. eigenvalues --   -0.72002  -0.65168  -0.61346  -0.60272  -0.57731
 Alpha  occ. eigenvalues --   -0.54449  -0.52173  -0.50724  -0.43135  -0.40684
 Alpha virt. eigenvalues --    0.03731   0.04242   0.04750   0.05323   0.07176
 Alpha virt. eigenvalues --    0.07551   0.07638   0.07872   0.08840   0.10460
 Alpha virt. eigenvalues --    0.12421   0.13632   0.14201   0.14679   0.15334

 Mulliken charges:
               1
     1  C   -0.508091
     2  C   -0.264176
     3  C    0.457945
     4  N   -0.731111
     5  O   -0.521490
     6  H    0.192798
     7  H    0.167139
     8  H    0.167738
     9  H    0.167559
    10  H    0.188532
    11  H    0.280446
    12  H    0.402711
 Sum of Mulliken charges =  -0.00000

 Dipole moment (field-independent basis, Debye):
    X=             -1.7277    Y=              0.5457    Z=              0.4319  Tot=              1.8626
 Quadrupole moment (field-independent basis, Debye-Ang):
   XX=            -33.5259   YY=            -29.2578   ZZ=            -32.0030
   XY=             -3.1903   XZ=              0.1479   YZ=              1.0545

 Normal termination of Gaussian 09 at Sun Aug 21 12:22:23 2022.
