 Gaussian 09, Revision E.01,
 Gaussian 09:  ES64L-G09RevE.01 30-Nov-2015

 -----
 #P G4
 -----

 --------
 Frag_468
 --------
 Symbolic Z-matrix:
 Charge =  0 Multiplicity = 1

 SCF Done:  E(RB3LYP) =  -189.230564511     A.U. after   15 cycles
 SCF Done:  E(RB3LYP) =  -189.248568410     A.U. after   13 cycles
 SCF Done:  E(RB3LYP) =  -189.250488004     A.U. after   12 cycles
 SCF Done:  E(RB3LYP) =  -189.250914236     A.U. after   12 cycles
 SCF Done:  E(RB3LYP) =  -189.251385596     A.U. after   12 cycles
 SCF Done:  E(RB3LYP) =  -189.251825894     A.U. after   12 cycles
 SCF Done:  E(RB3LYP) =  -189.252262575     A.U. after   12 cycles
 SCF Done:  E(RB3LYP) =  -189.252416486     A.U. after   12 cycles
 SCF Done:  E(RB3LYP) =  -189.252424729     A.U. after    8 cycles
 SCF Done:  E(RB3LYP) =  -189.252427011     A.U. after    8 cycles
 SCF Done:  E(RB3LYP) =  -189.252427592     A.U. after    8 cycles
 SCF Done:  E(RB3LYP) =  -189.252427687     A.U. after    7 cycles
 Optimization completed.
    -- Stationary point found.
 Normal termination of Gaussian 09 at Sat Aug 20 02:49:33 2022.

 ----------------------------------------------------------
 #P Geom=AllCheck Guess=TCheck SCRF=Check B3LYP/GTBas3 Freq
 ----------------------------------------------------------

 Structure from the checkpoint file:  "G4.Frag_468.chk"
 --------
 Frag_468
 --------
 Charge =  0 Multiplicity = 1

 SCF Done:  E(RB3LYP) =  -189.252427687     A.U. after    1 cycles

  Exact polarizability:  46.563   9.205  50.773   0.000   0.000  23.444
 Approx polarizability:  69.687  28.330  99.529   0.001   0.000  34.115

                      1                      2                      3
                      A                      A                      A
 Frequencies --    154.1784               400.7369               495.0686
 Red. masses --      1.0664                 1.1785                 2.4790
 Frc consts  --      0.0149                 0.1115                 0.3580
 IR Inten    --      0.2665                 6.0644                 0.3211

                      4                      5                      6
                      A                      A                      A
 Frequencies --    517.2011               542.0113               651.0979
 Red. masses --      2.3089                 2.7148                 1.1345
 Frc consts  --      0.3639                 0.4699                 0.2834
 IR Inten    --      2.3797                 8.5695               122.3033

                      7                      8                      9
                      A                      A                      A
 Frequencies --    773.8398               880.3243              1091.3968
 Red. masses --      1.3340                 3.6707                 1.5597
 Frc consts  --      0.4707                 1.6760                 1.0946
 IR Inten    --      0.1967                 2.5359                12.4435

                     10                     11                     12
                      A                      A                      A
 Frequencies --   1124.0423              1145.9358              1317.4613
 Red. masses --      1.6117                 1.3970                 1.9756
 Frc consts  --      1.1998                 1.0808                 2.0204
 IR Inten    --     58.4039                 0.0316                13.8329

                     13                     14                     15
                      A                      A                      A
 Frequencies --   1407.8192              1435.7917              1475.5388
 Red. masses --      1.8395                 1.2793                 1.0416
 Frc consts  --      2.1480                 1.5538                 1.3361
 IR Inten    --    148.0667                57.1653                 9.0594

                     16                     17                     18
                      A                      A                      A
 Frequencies --   1477.8187              1504.3174              1687.2039
 Red. masses --      1.1255                 1.1150                 3.1546
 Frc consts  --      1.4482                 1.4866                 5.2909
 IR Inten    --      2.7972                 2.0168                65.8796

                     19                     20                     21
                      A                      A                      A
 Frequencies --   3061.7901              3141.2000              3166.5436
 Red. masses --      1.0315                 1.1046                 1.1050
 Frc consts  --      5.6975                 6.4215                 6.5278
 IR Inten    --     14.2467                 7.2533                 8.3559

                     22                     23                     24
                      A                      A                      A
 Frequencies --   3209.8055              3337.8169              3453.4906
 Red. masses --      1.0510                 1.1243                 1.0750
 Frc consts  --      6.3797                 7.3799                 7.5537
 IR Inten    --      2.3546                 0.6062                 0.7839

 - Thermochemistry -
 -------------------
 Temperature   298.150 Kelvin.  Pressure   1.00000 Atm.
 Atom     1 has atomic number  6 and mass  12.00000

 Molecular mass:    58.05310 amu.
 Principal axes and moments of inertia in atomic units:
                           1         2         3
     Eigenvalues --   168.62839 179.83433 337.01946
           X            0.96011   0.27964   0.00000
           Y           -0.27964   0.96011   0.00000
           Z           -0.00000  -0.00000   1.00000
 This molecule is an asymmetric top.
 Rotational symmetry number  1.
 Rotational temperatures (Kelvin)      0.51364     0.48163     0.25700
 Rotational constants (GHZ):          10.70248    10.03558     5.35501
 Zero-point vibrational energy     224015.3 (Joules/Mol)
                                   53.54094 (Kcal/Mol)
 Warning -- explicit consideration of   5 degrees of freedom as
           vibrations may cause significant error
 Vibrational temperatures:    221.83   576.57   712.29   744.14   779.83
          (Kelvin)            936.78  1113.38  1266.59  1570.27  1617.24
                             1648.74  1895.53  2025.54  2065.78  2122.97
                             2126.25  2164.37  2427.51  4405.23  4519.48
                             4555.94  4618.19  4802.37  4968.80

 Zero-point correction=                           0.085323 (Hartree/Particle)
 Thermal correction to Energy=                    0.090124
 Thermal correction to Enthalpy=                  0.091068
 Thermal correction to Gibbs Free Energy=         0.058575
 Sum of electronic and zero-point Energies=           -189.167105
 Sum of electronic and thermal Energies=              -189.162304
 Sum of electronic and thermal Enthalpies=            -189.161359
 Sum of electronic and thermal Free Energies=         -189.193853

                     E (Thermal)             CV                S
                      KCal/Mol        Cal/Mol-Kelvin    Cal/Mol-Kelvin
 Total                   56.554             16.508             68.389
 Electronic               0.000              0.000              0.000
 Translational            0.889              2.981             38.097
 Rotational               0.889              2.981             23.840
 Vibrational             54.776             10.547              6.452
 Vibration     1          0.620              1.898              2.620
 Vibration     2          0.767              1.469              0.960
 Vibration     3          0.851              1.261              0.671
 Vibration     4          0.872              1.212              0.616
 Vibration     5          0.897              1.157              0.561

 Optimization completed.
    -- Stationary point found.
 Normal termination of Gaussian 09 at Sat Aug 20 02:50:11 2022.

 -----------------------------------------------------------------
 #P Geom=AllCheck Guess=TCheck SCRF=Check CCSD(T,E4T,FrzG4)/GTBas1
 -----------------------------------------------------------------

 Structure from the checkpoint file:  "G4.Frag_468.chk"
 --------
 Frag_468
 --------
 Charge =  0 Multiplicity = 1

 SCF Done:  E(RHF) =  -188.000787979     A.U. after   14 cycles
 E2 =    -0.6053270781D+00 EUMP2 =    -0.18860611505715D+03
 CCSD(T)
 CCSD(T)= -0.18866172248D+03
 Normal termination of Gaussian 09 at Sat Aug 20 02:50:41 2022.

 ---------------------------------------------------------
 #P Geom=AllCheck Guess=TCheck SCRF=Check MP4=FrzG4/GTBas2
 ---------------------------------------------------------

 Structure from the checkpoint file:  "G4.Frag_468.chk"
 --------
 Frag_468
 --------
 Charge =  0 Multiplicity = 1

 SCF Done:  E(RHF) =  -188.010613455     A.U. after   13 cycles
 E2 =    -0.6130582548D+00 EUMP2 =    -0.18862367170964D+03
 Normal termination of Gaussian 09 at Sat Aug 20 02:50:55 2022.

 ---------------------------------------------------------
 #P Geom=AllCheck Guess=TCheck SCRF=Check MP4=FrzG4/GTBas3
 ---------------------------------------------------------

 Structure from the checkpoint file:  "G4.Frag_468.chk"
 --------
 Frag_468
 --------
 Charge =  0 Multiplicity = 1

 SCF Done:  E(RHF) =  -188.028425541     A.U. after   13 cycles
 E2 =    -0.7342641267D+00 EUMP2 =    -0.18876268966725D+03
 Normal termination of Gaussian 09 at Sat Aug 20 02:57:13 2022.

 -----------------------------------------------------------
 #P Geom=AllCheck Guess=TCheck SCRF=Check MP2=Full/GTLargeXP
 -----------------------------------------------------------

 Structure from the checkpoint file:  "G4.Frag_468.chk"
 --------
 Frag_468
 --------
 Charge =  0 Multiplicity = 1

 SCF Done:  E(RHF) =  -188.079821883     A.U. after   13 cycles
 E2 =    -0.9542248267D+00 EUMP2 =    -0.18903404670962D+03
 Normal termination of Gaussian 09 at Sat Aug 20 02:58:06 2022.
 SCF Done:  E(RHF) =  -188.094547445     A.U. after   10 cycles
 Normal termination of Gaussian 09 at Sat Aug 20 03:00:02 2022.

                         Standard orientation:
 ---------------------------------------------------------------------
 Center     Atomic      Atomic             Coordinates (Angstroms)
 Number     Number       Type             X           Y           Z
 ---------------------------------------------------------------------
      1          6           0       -1.200680   -0.687085   -0.000008
      2          7           0       -0.128624    0.075849    0.000013
      3          6           0        1.187511   -0.599259   -0.000012
      4          7           0       -0.159925    1.384836   -0.000010
      5          1           0       -2.163265   -0.200179    0.000057
      6          1           0       -1.085546   -1.756624   -0.000047
      7          1           0        1.070697   -1.681987    0.000182
      8          1           0        1.732662   -0.281961    0.891504
      9          1           0        1.732562   -0.282133   -0.891628
     10          1           0        0.811751    1.696150    0.000038
 ---------------------------------------------------------------------

 SCF Done:  E(RHF) =  -188.097762631     A.U. after    8 cycles

 The electronic state is 1-A.
 Alpha  occ. eigenvalues --  -15.70589 -15.52686 -11.29062 -11.25813  -1.36492
 Alpha  occ. eigenvalues --   -1.07588  -1.00445  -0.80099  -0.71142  -0.66422
 Alpha  occ. eigenvalues --   -0.65531  -0.60443  -0.56020  -0.52283  -0.42508
 Alpha  occ. eigenvalues --   -0.28478
 Alpha virt. eigenvalues --    0.03200   0.04110   0.04486   0.05527   0.06979
 Alpha virt. eigenvalues --    0.07804   0.07811   0.09750   0.11421   0.13362
 Alpha virt. eigenvalues --    0.13704   0.14654   0.15791   0.16386   0.17031

 Mulliken charges:
               1
     1  C   -0.424174
     2  N    0.297713
     3  C   -0.474631
     4  N   -0.714668
     5  H    0.223444
     6  H    0.204342
     7  H    0.204442
     8  H    0.209653
     9  H    0.209664
    10  H    0.264214
 Sum of Mulliken charges =  -0.00000

 Dipole moment (field-independent basis, Debye):
    X=              2.2354    Y=             -3.3530    Z=              0.0001  Tot=              4.0298
 Quadrupole moment (field-independent basis, Debye-Ang):
   XX=            -21.8963   YY=            -28.4258   ZZ=            -27.7993
   XY=              2.5061   XZ=             -0.0000   YZ=              0.0001

 Normal termination of Gaussian 09 at Sat Aug 20 03:49:03 2022.
