 Gaussian 09, Revision E.01,
 Gaussian 09:  ES64L-G09RevE.01 30-Nov-2015

 -----
 #P G4
 -----

 --------
 Frag_573
 --------
 Symbolic Z-matrix:
 Charge =  0 Multiplicity = 1

 SCF Done:  E(RB3LYP) =  -243.393106846     A.U. after   14 cycles
 SCF Done:  E(RB3LYP) =  -243.409607368     A.U. after   13 cycles
 SCF Done:  E(RB3LYP) =  -243.410341074     A.U. after   12 cycles
 SCF Done:  E(RB3LYP) =  -243.410740489     A.U. after   12 cycles
 SCF Done:  E(RB3LYP) =  -243.410759360     A.U. after    8 cycles
 SCF Done:  E(RB3LYP) =  -243.410762602     A.U. after    9 cycles
 Optimization completed.
    -- Stationary point found.
 Normal termination of Gaussian 09 at Fri Aug 19 10:14:48 2022.

 ----------------------------------------------------------
 #P Geom=AllCheck Guess=TCheck SCRF=Check B3LYP/GTBas3 Freq
 ----------------------------------------------------------

 Structure from the checkpoint file:  "G4.Frag_573.chk"
 --------
 Frag_573
 --------
 Charge =  0 Multiplicity = 1

 SCF Done:  E(RB3LYP) =  -243.410762602     A.U. after    1 cycles

  Exact polarizability:  57.299   6.978  44.221   0.001  -0.001  26.273
 Approx polarizability:  94.745  21.189  70.103   0.005   0.001  40.372

                      1                      2                      3
                      A                      A                      A
 Frequencies --     83.9535               181.9304               360.1304
 Red. masses --      3.0490                 1.0661                 3.5501
 Frc consts  --      0.0127                 0.0208                 0.2713
 IR Inten    --     10.9584                 0.3752                 0.3634

                      4                      5                      6
                      A                      A                      A
 Frequencies --    471.9955               498.7670               611.1859
 Red. masses --      2.5478                 3.1899                 3.7947
 Frc consts  --      0.3344                 0.4675                 0.8352
 IR Inten    --     18.9362                 6.1794                 2.1065

                      7                      8                      9
                      A                      A                      A
 Frequencies --    758.0417               825.0877               984.7797
 Red. masses --      4.8587                 1.1622                 2.2948
 Frc consts  --      1.6450                 0.4661                 1.3112
 IR Inten    --      3.6706                 0.1323                 6.6345

                     10                     11                     12
                      A                      A                      A
 Frequencies --   1022.8127              1061.2407              1079.7192
 Red. masses --      1.3136                 1.5081                 1.7397
 Frc consts  --      0.8096                 1.0007                 1.1949
 IR Inten    --     80.2181                49.3589                 0.5517

                     13                     14                     15
                      A                      A                      A
 Frequencies --   1332.5658              1395.3161              1475.4425
 Red. masses --      1.7436                 1.2558                 1.0443
 Frc consts  --      1.8242                 1.4405                 1.3395
 IR Inten    --     68.8281                16.3160                 7.0063

                     16                     17                     18
                      A                      A                      A
 Frequencies --   1475.7640              1488.1633              1640.0721
 Red. masses --      1.1600                 1.1426                11.1115
 Frc consts  --      1.4885                 1.4909                17.6095
 IR Inten    --     70.4816                11.3940                20.6629

                     19                     20                     21
                      A                      A                      A
 Frequencies --   1729.0917              3035.7166              3094.4596
 Red. masses --      9.3045                 1.0387                 1.0992
 Frc consts  --     16.3900                 5.6396                 6.2016
 IR Inten    --     49.7729                 1.3770                 5.7894

                     22                     23                     24
                      A                      A                      A
 Frequencies --   3114.1169              3138.5757              3457.2442
 Red. masses --      1.0680                 1.0994                 1.0751
 Frc consts  --      6.1025                 6.3805                 7.5710
 IR Inten    --     49.5179                 5.8547                 0.5738

 - Thermochemistry -
 -------------------
 Temperature   298.150 Kelvin.  Pressure   1.00000 Atm.
 Atom     1 has atomic number  6 and mass  12.00000

 Molecular mass:    71.04835 amu.
 Principal axes and moments of inertia in atomic units:
                           1         2         3
     Eigenvalues --   200.80983 378.93578 568.49570
           X            0.99993  -0.01178   0.00000
           Y            0.01178   0.99993  -0.00001
           Z           -0.00000   0.00001   1.00000
 This molecule is an asymmetric top.
 Rotational symmetry number  1.
 Rotational temperatures (Kelvin)      0.43132     0.22857     0.15236
 Rotational constants (GHZ):           8.98731     4.76266     3.17459
 Zero-point vibrational energy     205256.3 (Joules/Mol)
                                   49.05743 (Kcal/Mol)
 Warning -- explicit consideration of   6 degrees of freedom as
           vibrations may cause significant error
 Vibrational temperatures:    120.79   261.76   518.15   679.10   717.61
          (Kelvin)            879.36  1090.65  1187.12  1416.88  1471.60
                             1526.89  1553.47  1917.26  2007.55  2122.83
                             2123.29  2141.13  2359.70  2487.77  4367.71
                             4452.23  4480.51  4515.70  4974.20

 Zero-point correction=                           0.078178 (Hartree/Particle)
 Thermal correction to Energy=                    0.083671
 Thermal correction to Enthalpy=                  0.084615
 Thermal correction to Gibbs Free Energy=         0.049516
 Sum of electronic and zero-point Energies=           -243.332585
 Sum of electronic and thermal Energies=              -243.327092
 Sum of electronic and thermal Enthalpies=            -243.326148
 Sum of electronic and thermal Free Energies=         -243.361247

                     E (Thermal)             CV                S
                      KCal/Mol        Cal/Mol-Kelvin    Cal/Mol-Kelvin
 Total                   52.504             18.167             73.872
 Electronic               0.000              0.000              0.000
 Translational            0.889              2.981             38.699
 Rotational               0.889              2.981             25.273
 Vibrational             50.727             12.205              9.900
 Vibration     1          0.601              1.960              3.796
 Vibration     2          0.630              1.864              2.309
 Vibration     3          0.735              1.554              1.122
 Vibration     4          0.829              1.312              0.732
 Vibration     5          0.854              1.253              0.661
 Vibration     6          0.970              1.008              0.431

 Optimization completed.
    -- Stationary point found.
 Normal termination of Gaussian 09 at Fri Aug 19 10:15:50 2022.

 -----------------------------------------------------------------
 #P Geom=AllCheck Guess=TCheck SCRF=Check CCSD(T,E4T,FrzG4)/GTBas1
 -----------------------------------------------------------------

 Structure from the checkpoint file:  "G4.Frag_573.chk"
 --------
 Frag_573
 --------
 Charge =  0 Multiplicity = 1

 SCF Done:  E(RHF) =  -241.900887975     A.U. after   13 cycles
 E2 =    -0.7400946771D+00 EUMP2 =    -0.24264098265252D+03
 CCSD(T)
 CCSD(T)= -0.24270752202D+03
 Normal termination of Gaussian 09 at Fri Aug 19 10:17:15 2022.

 ---------------------------------------------------------
 #P Geom=AllCheck Guess=TCheck SCRF=Check MP4=FrzG4/GTBas2
 ---------------------------------------------------------

 Structure from the checkpoint file:  "G4.Frag_573.chk"
 --------
 Frag_573
 --------
 Charge =  0 Multiplicity = 1

 SCF Done:  E(RHF) =  -241.908224020     A.U. after   13 cycles
 E2 =    -0.7491309789D+00 EUMP2 =    -0.24265735499891D+03
 Normal termination of Gaussian 09 at Fri Aug 19 10:18:37 2022.

 ---------------------------------------------------------
 #P Geom=AllCheck Guess=TCheck SCRF=Check MP4=FrzG4/GTBas3
 ---------------------------------------------------------

 Structure from the checkpoint file:  "G4.Frag_573.chk"
 --------
 Frag_573
 --------
 Charge =  0 Multiplicity = 1

 SCF Done:  E(RHF) =  -241.932187721     A.U. after   12 cycles
 E2 =    -0.8835924975D+00 EUMP2 =    -0.24281578021845D+03
 Normal termination of Gaussian 09 at Fri Aug 19 10:48:53 2022.

 -----------------------------------------------------------
 #P Geom=AllCheck Guess=TCheck SCRF=Check MP2=Full/GTLargeXP
 -----------------------------------------------------------

 Structure from the checkpoint file:  "G4.Frag_573.chk"
 --------
 Frag_573
 --------
 Charge =  0 Multiplicity = 1

 SCF Done:  E(RHF) =  -241.993004746     A.U. after   13 cycles
 E2 =    -0.1156693868D+01 EUMP2 =    -0.24314969861358D+03
 Normal termination of Gaussian 09 at Fri Aug 19 10:50:52 2022.
 SCF Done:  E(RHF) =  -242.011546388     A.U. after    9 cycles
 Normal termination of Gaussian 09 at Fri Aug 19 10:53:32 2022.

                         Standard orientation:
 ---------------------------------------------------------------------
 Center     Atomic      Atomic             Coordinates (Angstroms)
 Number     Number       Type             X           Y           Z
 ---------------------------------------------------------------------
      1          6           0       -0.616646    1.345083    0.000012
      2          6           0       -0.468431   -0.160697    0.000193
      3          7           0       -1.405902   -1.015964   -0.000064
      4          7           0        0.857339   -0.765366    0.000028
      5          7           0        1.861263   -0.038501   -0.000023
      6          1           0       -0.155113    1.799346   -0.883960
      7          1           0       -0.155390    1.799508    0.884043
      8          1           0       -1.675443    1.607729   -0.000176
      9          1           0       -2.317632   -0.553329   -0.000311
     10          1           0        1.625143    0.979239   -0.000412
 ---------------------------------------------------------------------

 SCF Done:  E(RHF) =  -242.015317887     A.U. after    8 cycles

 The electronic state is 1-A.
 Alpha  occ. eigenvalues --  -15.64104 -15.63787 -15.57530 -11.33265 -11.26647
 Alpha  occ. eigenvalues --   -1.37838  -1.23722  -1.02251  -0.96200  -0.80729
 Alpha  occ. eigenvalues --   -0.69312  -0.68098  -0.62723  -0.59558  -0.55967
 Alpha  occ. eigenvalues --   -0.54209  -0.46893  -0.43721  -0.40177
 Alpha virt. eigenvalues --    0.02476   0.04468   0.04738   0.05643   0.07128
 Alpha virt. eigenvalues --    0.07627   0.07704   0.07831   0.08817   0.10792
 Alpha virt. eigenvalues --    0.12169   0.13245   0.13789   0.14119   0.15434

 Mulliken charges:
               1
     1  C   -0.585652
     2  C    0.318874
     3  N   -0.515092
     4  N   -0.051459
     5  N   -0.317682
     6  H    0.207049
     7  H    0.207100
     8  H    0.194936
     9  H    0.282081
    10  H    0.259844
 Sum of Mulliken charges =  -0.00000

 Dipole moment (field-independent basis, Debye):
    X=             -1.9495    Y=              4.8070    Z=             -0.0005  Tot=              5.1873
 Quadrupole moment (field-independent basis, Debye-Ang):
   XX=            -31.6938   YY=            -33.4559   ZZ=            -30.2299
   XY=              0.4712   XZ=              0.0002   YZ=             -0.0004

 Normal termination of Gaussian 09 at Fri Aug 19 12:08:30 2022.
