 Gaussian 09, Revision E.01,
 Gaussian 09:  ES64L-G09RevE.01 30-Nov-2015

 -----
 #P G4
 -----

 --------
 Frag_447
 --------
 Symbolic Z-matrix:
 Charge =  0 Multiplicity = 1

 SCF Done:  E(RB3LYP) =  -273.003153232     A.U. after   12 cycles
 SCF Done:  E(RB3LYP) =  -273.007200163     A.U. after   10 cycles
 SCF Done:  E(RB3LYP) =  -273.007544781     A.U. after   10 cycles
 SCF Done:  E(RB3LYP) =  -273.007690733     A.U. after   10 cycles
 SCF Done:  E(RB3LYP) =  -273.007801205     A.U. after   10 cycles
 SCF Done:  E(RB3LYP) =  -273.007896790     A.U. after   10 cycles
 SCF Done:  E(RB3LYP) =  -273.007965806     A.U. after   10 cycles
 SCF Done:  E(RB3LYP) =  -273.007984363     A.U. after    9 cycles
 SCF Done:  E(RB3LYP) =  -273.007985287     A.U. after    7 cycles
 SCF Done:  E(RB3LYP) =  -273.007985402     A.U. after    6 cycles
 Optimization completed.
    -- Stationary point found.
 Normal termination of Gaussian 09 at Fri Aug 26 11:51:31 2022.

 ----------------------------------------------------------
 #P Geom=AllCheck Guess=TCheck SCRF=Check B3LYP/GTBas3 Freq
 ----------------------------------------------------------

 Structure from the checkpoint file:  "G4.Frag_447.chk"
 --------
 Frag_447
 --------
 Charge =  0 Multiplicity = 1

 SCF Done:  E(RB3LYP) =  -273.007985402     A.U. after    1 cycles

  Exact polarizability:  66.415   0.275  60.890   0.657  -0.050  52.678
 Approx polarizability:  83.951  -1.523  81.495   1.034   1.144  80.298

                      1                      2                      3
                      A                      A                      A
 Frequencies --     79.2460               208.0588               221.3291
 Red. masses --      2.7895                 1.2335                 1.2217
 Frc consts  --      0.0103                 0.0315                 0.0353
 IR Inten    --      1.4853                 0.3277                 0.3719

                      4                      5                      6
                      A                      A                      A
 Frequencies --    238.2727               267.5306               286.6704
 Red. masses --      1.1243                 1.0642                 1.7598
 Frc consts  --      0.0376                 0.0449                 0.0852
 IR Inten    --      0.3427                93.4805                 4.7323

                      7                      8                      9
                      A                      A                      A
 Frequencies --    362.2788               366.4423               410.9208
 Red. masses --      2.1050                 2.0702                 2.4209
 Frc consts  --      0.1628                 0.1638                 0.2408
 IR Inten    --      3.3395                 2.1333                 0.7105

                     10                     11                     12
                      A                      A                      A
 Frequencies --    459.0356               523.4414               783.6704
 Red. masses --      3.4389                 2.7174                 1.9862
 Frc consts  --      0.4269                 0.4387                 0.7187
 IR Inten    --      7.4903                 2.9089                 1.7312

                     13                     14                     15
                      A                      A                      A
 Frequencies --    893.1637               931.5236               947.7094
 Red. masses --      2.4329                 1.1845                 1.8431
 Frc consts  --      1.1435                 0.6056                 0.9753
 IR Inten    --      6.9287                 1.1649                13.8410

                     16                     17                     18
                      A                      A                      A
 Frequencies --    967.0944               990.8141              1071.1917
 Red. masses --      1.4473                 1.2256                 2.8688
 Frc consts  --      0.7975                 0.7089                 1.9395
 IR Inten    --      2.8571                 3.3890                 9.4709

                     19                     20                     21
                      A                      A                      A
 Frequencies --   1096.1768              1152.2084              1179.0051
 Red. masses --      1.8874                 2.1022                 1.9545
 Frc consts  --      1.3362                 1.6443                 1.6008
 IR Inten    --     73.5067                 7.6916                12.8720

                     22                     23                     24
                      A                      A                      A
 Frequencies --   1194.1196              1273.2845              1338.0087
 Red. masses --      1.7079                 1.3164                 1.3731
 Frc consts  --      1.4348                 1.2574                 1.4484
 IR Inten    --      3.6476                28.1063                15.1480

                     25                     26                     27
                      A                      A                      A
 Frequencies --   1344.7745              1373.7785              1398.3128
 Red. masses --      1.3430                 1.2393                 1.2677
 Frc consts  --      1.4310                 1.3780                 1.4604
 IR Inten    --      3.8661                 6.3446                 0.7351

                     28                     29                     30
                      A                      A                      A
 Frequencies --   1406.8257              1412.8714              1430.3019
 Red. masses --      1.2667                 1.3446                 1.3356
 Frc consts  --      1.4770                 1.5815                 1.6098
 IR Inten    --     10.1894                 4.7619                 7.4657

                     31                     32                     33
                      A                      A                      A
 Frequencies --   1489.3267              1489.6206              1496.2345
 Red. masses --      1.0481                 1.0510                 1.0674
 Frc consts  --      1.3697                 1.3741                 1.4079
 IR Inten    --      2.0815                 2.9468                 3.4914

                     34                     35                     36
                      A                      A                      A
 Frequencies --   1499.9024              1507.9005              1520.1475
 Red. masses --      1.0640                 1.0539                 1.0663
 Frc consts  --      1.4104                 1.4119                 1.4517
 IR Inten    --      8.4229                 2.0003                 5.2167

                     37                     38                     39
                      A                      A                      A
 Frequencies --   2935.8226              3010.1352              3026.1421
 Red. masses --      1.0813                 1.0818                 1.0392
 Frc consts  --      5.4910                 5.7752                 5.6072
 IR Inten    --     47.2612                15.0780                15.6355

                     40                     41                     42
                      A                      A                      A
 Frequencies --   3028.1146              3031.8015              3087.7613
 Red. masses --      1.0385                 1.0401                 1.0987
 Frc consts  --      5.6104                 5.6328                 6.1718
 IR Inten    --     35.6048                30.1165                 6.2905

                     43                     44                     45
                      A                      A                      A
 Frequencies --   3091.1857              3095.1397              3109.8203
 Red. masses --      1.0988                 1.0980                 1.1007
 Frc consts  --      6.1862                 6.1977                 6.2718
 IR Inten    --     15.3145                79.1004                34.6578

                     46                     47                     48
                      A                      A                      A
 Frequencies --   3120.6566              3138.2198              3822.3785
 Red. masses --      1.0999                 1.0979                 1.0662
 Frc consts  --      6.3111                 6.3708                 9.1783
 IR Inten    --     24.4997                15.5577                12.8390

 - Thermochemistry -
 -------------------
 Temperature   298.150 Kelvin.  Pressure   1.00000 Atm.
 Atom     1 has atomic number  6 and mass  12.00000

 Molecular mass:    88.08882 amu.
 Principal axes and moments of inertia in atomic units:
                           1         2         3
     Eigenvalues --   413.30231 607.12360 938.11292
           X            0.99791   0.06455   0.00154
           Y           -0.06454   0.99788  -0.00827
           Z           -0.00207   0.00816   0.99996
 This molecule is an asymmetric top.
 Rotational symmetry number  1.
 Rotational temperatures (Kelvin)      0.20957     0.14266     0.09233
 Rotational constants (GHZ):           4.36664     2.97261     1.92380
 Zero-point vibrational energy     431303.8 (Joules/Mol)
                                  103.08409 (Kcal/Mol)
 Warning -- explicit consideration of  11 degrees of freedom as
           vibrations may cause significant error
 Vibrational temperatures:    114.02   299.35   318.44   342.82   384.92
          (Kelvin)            412.45   521.24   527.23   591.22   660.45
                              753.11  1127.53  1285.06  1340.25  1363.54
                             1391.43  1425.56  1541.20  1577.15  1657.77
                             1696.32  1718.07  1831.97  1925.09  1934.83
                             1976.56  2011.86  2024.11  2032.80  2057.88
                             2142.81  2143.23  2152.75  2158.02  2169.53
                             2187.15  4223.99  4330.91  4353.94  4356.78
                             4362.08  4442.59  4447.52  4453.21  4474.33
                             4489.92  4515.19  5499.54

 Zero-point correction=                           0.164275 (Hartree/Particle)
 Thermal correction to Energy=                    0.172333
 Thermal correction to Enthalpy=                  0.173278
 Thermal correction to Gibbs Free Energy=         0.132915
 Sum of electronic and zero-point Energies=           -272.843710
 Sum of electronic and thermal Energies=              -272.835652
 Sum of electronic and thermal Enthalpies=            -272.834708
 Sum of electronic and thermal Free Energies=         -272.875071

                     E (Thermal)             CV                S
                      KCal/Mol        Cal/Mol-Kelvin    Cal/Mol-Kelvin
 Total                  108.141             29.385             84.951
 Electronic               0.000              0.000              0.000
 Translational            0.889              2.981             39.340
 Rotational               0.889              2.981             26.956
 Vibrational            106.363             23.424             18.655
 Vibration     1          0.600              1.963              3.909
 Vibration     2          0.641              1.828              2.061
 Vibration     3          0.648              1.809              1.948
 Vibration     4          0.656              1.782              1.816
 Vibration     5          0.673              1.733              1.612
 Vibration     6          0.684              1.698              1.494
 Vibration     7          0.736              1.550              1.112
 Vibration     8          0.739              1.541              1.095
 Vibration     9          0.775              1.447              0.923
 Vibration    10          0.817              1.341              0.769
 Vibration    11          0.878              1.198              0.602

 Optimization completed.
    -- Stationary point found.
 Normal termination of Gaussian 09 at Fri Aug 26 11:52:13 2022.

 -----------------------------------------------------------------
 #P Geom=AllCheck Guess=TCheck SCRF=Check CCSD(T,E4T,FrzG4)/GTBas1
 -----------------------------------------------------------------

 Structure from the checkpoint file:  "G4.Frag_447.chk"
 --------
 Frag_447
 --------
 Charge =  0 Multiplicity = 1

 SCF Done:  E(RHF) =  -271.181366192     A.U. after   11 cycles
 E2 =    -0.8408403788D+00 EUMP2 =    -0.27202220657111D+03
 CCSD(T)
 CCSD(T)= -0.27211459003D+03
 CCSD(T)=-272.11459\RMSD=4.118e-09\PG=C01 [X(C5H12O1)]\\@
 Normal termination of Gaussian 09 at Fri Aug 26 11:54:52 2022.

 ---------------------------------------------------------
 #P Geom=AllCheck Guess=TCheck SCRF=Check MP4=FrzG4/GTBas2
 ---------------------------------------------------------

 Structure from the checkpoint file:  "G4.Frag_447.chk"
 --------
 Frag_447
 --------
 Charge =  0 Multiplicity = 1

 SCF Done:  E(RHF) =  -271.187533505     A.U. after   11 cycles
 E2 =    -0.8524238156D+00 EUMP2 =    -0.27203995732072D+03
 Normal termination of Gaussian 09 at Fri Aug 26 11:55:47 2022.

 ---------------------------------------------------------
 #P Geom=AllCheck Guess=TCheck SCRF=Check MP4=FrzG4/GTBas3
 ---------------------------------------------------------

 Structure from the checkpoint file:  "G4.Frag_447.chk"
 --------
 Frag_447
 --------
 Charge =  0 Multiplicity = 1

 SCF Done:  E(RHF) =  -271.219297031     A.U. after   10 cycles
 E2 =    -0.1055727861D+01 EUMP2 =    -0.27227502489243D+03
 Normal termination of Gaussian 09 at Fri Aug 26 12:01:19 2022.

 -----------------------------------------------------------
 #P Geom=AllCheck Guess=TCheck SCRF=Check MP2=Full/GTLargeXP
 -----------------------------------------------------------

 Structure from the checkpoint file:  "G4.Frag_447.chk"
 --------
 Frag_447
 --------
 Charge =  0 Multiplicity = 1

 SCF Done:  E(RHF) =  -271.283184824     A.U. after   11 cycles
 E2 =    -0.1385914742D+01 EUMP2 =    -0.27266909956568D+03
 Normal termination of Gaussian 09 at Fri Aug 26 12:04:10 2022.
 SCF Done:  E(RHF) =  -271.305340614     A.U. after    8 cycles
 Normal termination of Gaussian 09 at Fri Aug 26 12:07:00 2022.

                         Standard orientation:
 ---------------------------------------------------------------------
 Center     Atomic      Atomic             Coordinates (Angstroms)
 Number     Number       Type             X           Y           Z
 ---------------------------------------------------------------------
      1          6           0       -1.574015   -1.150569    0.065716
      2          6           0       -0.691191    0.044658   -0.320881
      3          6           0       -1.377958    1.365679    0.051888
      4          6           0        0.705206   -0.082886    0.310804
      5          6           0        1.660128    1.055146   -0.055219
      6          8           0        1.234596   -1.332464   -0.133903
      7          1           0       -2.543724   -1.095864   -0.439758
      8          1           0       -1.764413   -1.159181    1.146254
      9          1           0       -1.094719   -2.094076   -0.199930
     10          1           0       -0.542418    0.022719   -1.409682
     11          1           0       -0.842123    2.239221   -0.329534
     12          1           0       -1.464537    1.472349    1.140262
     13          1           0       -2.391536    1.396172   -0.360205
     14          1           0        0.579920   -0.101191    1.408605
     15          1           0        2.657915    0.861028    0.356272
     16          1           0        1.755018    1.142528   -1.142643
     17          1           0        1.325811    2.015305    0.346978
     18          1           0        2.115014   -1.431471    0.240752
 ---------------------------------------------------------------------

 SCF Done:  E(RHF) =  -271.310128550     A.U. after    8 cycles

 The electronic state is 1-A.
 Alpha  occ. eigenvalues --  -20.54932 -11.27672 -11.22214 -11.21677 -11.21161
 Alpha  occ. eigenvalues --  -11.20107  -1.35691  -1.07855  -0.98917  -0.92297
 Alpha  occ. eigenvalues --   -0.85819  -0.76142  -0.68858  -0.63391  -0.61126
 Alpha  occ. eigenvalues --   -0.59300  -0.55505  -0.54235  -0.53455  -0.52522
 Alpha  occ. eigenvalues --   -0.51019  -0.47398  -0.46831  -0.44553  -0.43263
 Alpha virt. eigenvalues --    0.03371   0.04025   0.04258   0.04932   0.06181
 Alpha virt. eigenvalues --    0.06894   0.07107   0.07307   0.07832   0.09463
 Alpha virt. eigenvalues --    0.09764   0.09912   0.10500   0.11328   0.11776

 Mulliken charges:
               1
     1  C   -0.568081
     2  C    0.041074
     3  C   -0.551042
     4  C    0.118251
     5  C   -0.553712
     6  O   -0.602848
     7  H    0.155513
     8  H    0.148846
     9  H    0.196162
    10  H    0.145508
    11  H    0.162769
    12  H    0.155750
    13  H    0.167518
    14  H    0.129194
    15  H    0.146083
    16  H    0.172770
    17  H    0.172076
    18  H    0.364169
 Sum of Mulliken charges =  -0.00000

 Dipole moment (field-independent basis, Debye):
    X=              0.7993    Y=              1.1357    Z=              0.8436  Tot=              1.6250
 Quadrupole moment (field-independent basis, Debye-Ang):
   XX=            -36.9347   YY=            -42.6859   ZZ=            -40.0960
   XY=             -0.6042   XZ=              2.0550   YZ=             -1.2606

 Normal termination of Gaussian 09 at Fri Aug 26 12:16:52 2022.
