 Gaussian 09, Revision E.01,
 Gaussian 09:  ES64L-G09RevE.01 30-Nov-2015

 -----
 #P G4
 -----

 ---------
 Frag_1039
 ---------
 Symbolic Z-matrix:
 Charge =  0 Multiplicity = 1

 SCF Done:  E(RB3LYP) =  -301.206185067     A.U. after   12 cycles
 SCF Done:  E(RB3LYP) =  -301.212757392     A.U. after   11 cycles
 SCF Done:  E(RB3LYP) =  -301.213169060     A.U. after   11 cycles
 SCF Done:  E(RB3LYP) =  -301.213405645     A.U. after   10 cycles
 SCF Done:  E(RB3LYP) =  -301.213496803     A.U. after   10 cycles
 SCF Done:  E(RB3LYP) =  -301.213518985     A.U. after   10 cycles
 SCF Done:  E(RB3LYP) =  -301.213522830     A.U. after    8 cycles
 SCF Done:  E(RB3LYP) =  -301.213523410     A.U. after    7 cycles
 SCF Done:  E(RB3LYP) =  -301.213523535     A.U. after    6 cycles
 Optimization completed.
    -- Stationary point found.
 Normal termination of Gaussian 09 at Fri Aug 26 13:46:02 2022.

 ----------------------------------------------------------
 #P Geom=AllCheck Guess=TCheck SCRF=Check B3LYP/GTBas3 Freq
 ----------------------------------------------------------

 Structure from the checkpoint file:  "G4.Frag_1039.chk"
 ---------
 Frag_1039
 ---------
 Charge =  0 Multiplicity = 1

 SCF Done:  E(RB3LYP) =  -301.213523535     A.U. after    1 cycles

  Exact polarizability:  56.858   0.208  58.367   1.456   1.049  47.896
 Approx polarizability:  74.020   1.612  79.506   1.357   1.929  74.507

                      1                      2                      3
                      A                      A                      A
 Frequencies --    101.8931               218.6096               261.8119
 Red. masses --      3.0912                 1.1056                 1.1613
 Frc consts  --      0.0189                 0.0311                 0.0469
 IR Inten    --      0.8619                 0.8445                31.3486

                      4                      5                      6
                      A                      A                      A
 Frequencies --    296.8692               301.8857               331.4218
 Red. masses --      1.8355                 1.1796                 1.9305
 Frc consts  --      0.0953                 0.0633                 0.1249
 IR Inten    --      9.9681                49.3235                 7.4311

                      7                      8                      9
                      A                      A                      A
 Frequencies --    365.7656               429.2130               477.8724
 Red. masses --      1.6855                 2.1916                 2.7396
 Frc consts  --      0.1329                 0.2379                 0.3686
 IR Inten    --      4.5946                27.0459                11.4918

                     10                     11                     12
                      A                      A                      A
 Frequencies --    508.7130               577.8819               787.2607
 Red. masses --      2.6613                 2.4442                 2.5937
 Frc consts  --      0.4058                 0.4809                 0.9471
 IR Inten    --     17.8261                21.2008                67.9564

                     13                     14                     15
                      A                      A                      A
 Frequencies --    858.0520               895.3447               951.2454
 Red. masses --      1.6768                 1.9303                 1.8474
 Frc consts  --      0.7274                 0.9117                 0.9849
 IR Inten    --    263.2313               105.8532                23.9841

                     16                     17                     18
                      A                      A                      A
 Frequencies --    983.4346              1043.8297              1119.7885
 Red. masses --      2.1213                 1.5568                 1.7656
 Frc consts  --      1.2088                 0.9994                 1.3044
 IR Inten    --     35.9787                72.2705                11.9023

                     19                     20                     21
                      A                      A                      A
 Frequencies --   1153.1355              1159.7251              1221.3578
 Red. masses --      1.4708                 1.6282                 2.0750
 Frc consts  --      1.1523                 1.2902                 1.8237
 IR Inten    --     16.3477                 4.6580                32.6159

                     22                     23                     24
                      A                      A                      A
 Frequencies --   1243.7619              1300.4534              1333.7286
 Red. masses --      2.8476                 1.5355                 1.3528
 Frc consts  --      2.5954                 1.5300                 1.4178
 IR Inten    --     24.0783                13.6348                13.5121

                     25                     26                     27
                      A                      A                      A
 Frequencies --   1389.2156              1423.0633              1442.4411
 Red. masses --      1.3375                 1.2689                 1.1806
 Frc consts  --      1.5208                 1.5140                 1.4472
 IR Inten    --     32.8507                18.1220                 9.8249

                     28                     29                     30
                      A                      A                      A
 Frequencies --   1490.9547              1503.5281              1641.1145
 Red. masses --      1.0703                 1.0458                 1.0936
 Frc consts  --      1.4018                 1.3929                 1.7353
 IR Inten    --     11.4441                 3.1472                32.8958

                     31                     32                     33
                      A                      A                      A
 Frequencies --   1650.2004              1664.1386              2909.6600
 Red. masses --      1.1069                 1.0857                 1.0816
 Frc consts  --      1.7760                 1.7714                 5.3952
 IR Inten    --     20.7461                12.7604                53.3973

                     34                     35                     36
                      A                      A                      A
 Frequencies --   2936.4568              3103.8149              3167.3958
 Red. masses --      1.0623                 1.0706                 1.1022
 Frc consts  --      5.3970                 6.0767                 6.5148
 IR Inten    --     93.0799                26.8963                 9.3565

                     37                     38                     39
                      A                      A                      A
 Frequencies --   3329.9108              3467.8200              3481.1020
 Red. masses --      1.0584                 1.0492                 1.0504
 Frc consts  --      6.9144                 7.4337                 7.4998
 IR Inten    --     26.3298                 0.9262                 0.1573

                     40                     41                     42
                      A                      A                      A
 Frequencies --   3549.7683              3564.9963              3571.1889
 Red. masses --      1.0813                 1.0909                 1.0900
 Frc consts  --      8.0277                 8.1689                 8.1904
 IR Inten    --      0.1844                 0.7223                 2.6526

 - Thermochemistry -
 -------------------
 Temperature   298.150 Kelvin.  Pressure   1.00000 Atm.
 Atom     1 has atomic number  6 and mass  12.00000

 Molecular mass:    90.09055 amu.
 Principal axes and moments of inertia in atomic units:
                           1         2         3
     Eigenvalues --   383.35046 552.09467 863.13482
           X            0.99872  -0.04760   0.01729
           Y            0.04751   0.99886   0.00547
           Z           -0.01753  -0.00465   0.99984
 This molecule is an asymmetric top.
 Rotational symmetry number  1.
 Rotational temperatures (Kelvin)      0.22594     0.15688     0.10035
 Rotational constants (GHZ):           4.70781     3.26890     2.09091
 Zero-point vibrational energy     378078.7 (Joules/Mol)
                                   90.36298 (Kcal/Mol)
 Warning -- explicit consideration of  11 degrees of freedom as
           vibrations may cause significant error
 Vibrational temperatures:    146.60   314.53   376.69   427.13   434.35
          (Kelvin)            476.84   526.25   617.54   687.55   731.92
                              831.44  1132.69  1234.54  1288.20  1368.63
                             1414.94  1501.84  1611.12  1659.10  1668.58
                             1757.26  1789.49  1871.06  1918.94  1998.77
                             2047.47  2075.35  2145.15  2163.24  2361.19
                             2374.27  2394.32  4186.35  4224.90  4465.69
                             4557.17  4790.99  4989.41  5008.52  5107.32
                             5129.23  5138.14

 Zero-point correction=                           0.144003 (Hartree/Particle)
 Thermal correction to Energy=                    0.151517
 Thermal correction to Enthalpy=                  0.152461
 Thermal correction to Gibbs Free Energy=         0.113389
 Sum of electronic and zero-point Energies=           -301.069521
 Sum of electronic and thermal Energies=              -301.062006
 Sum of electronic and thermal Enthalpies=            -301.061062
 Sum of electronic and thermal Free Energies=         -301.100134

                     E (Thermal)             CV                S
                      KCal/Mol        Cal/Mol-Kelvin    Cal/Mol-Kelvin
 Total                   95.078             27.850             82.234
 Electronic               0.000              0.000              0.000
 Translational            0.889              2.981             39.407
 Rotational               0.889              2.981             26.704
 Vibrational             93.301             21.889             16.122
 Vibration     1          0.604              1.948              3.418
 Vibration     2          0.646              1.813              1.971
 Vibration     3          0.669              1.743              1.650
 Vibration     4          0.691              1.680              1.434
 Vibration     5          0.694              1.670              1.406
 Vibration     6          0.714              1.613              1.253
 Vibration     7          0.739              1.543              1.097
 Vibration     8          0.791              1.407              0.861
 Vibration     9          0.834              1.299              0.716
 Vibration    10          0.864              1.231              0.637
 Vibration    11          0.934              1.079              0.489

 Optimization completed.
    -- Stationary point found.
 Normal termination of Gaussian 09 at Fri Aug 26 13:46:39 2022.

 -----------------------------------------------------------------
 #P Geom=AllCheck Guess=TCheck SCRF=Check CCSD(T,E4T,FrzG4)/GTBas1
 -----------------------------------------------------------------

 Structure from the checkpoint file:  "G4.Frag_1039.chk"
 ---------
 Frag_1039
 ---------
 Charge =  0 Multiplicity = 1

 SCF Done:  E(RHF) =  -299.283834978     A.U. after   12 cycles
 E2 =    -0.9226045473D+00 EUMP2 =    -0.30020643952561D+03
 CCSD(T)
 CCSD(T)= -0.30029071430D+03
 DTQ=-300.2895405\MP4SDQ=-300.2623566\CCSD=-300.2635448\CCSD(T)=-300.29
 Normal termination of Gaussian 09 at Fri Aug 26 13:49:15 2022.

 ---------------------------------------------------------
 #P Geom=AllCheck Guess=TCheck SCRF=Check MP4=FrzG4/GTBas2
 ---------------------------------------------------------

 Structure from the checkpoint file:  "G4.Frag_1039.chk"
 ---------
 Frag_1039
 ---------
 Charge =  0 Multiplicity = 1

 SCF Done:  E(RHF) =  -299.295841733     A.U. after   12 cycles
 E2 =    -0.9391269512D+00 EUMP2 =    -0.30023496868459D+03
 Normal termination of Gaussian 09 at Fri Aug 26 13:50:04 2022.

 ---------------------------------------------------------
 #P Geom=AllCheck Guess=TCheck SCRF=Check MP4=FrzG4/GTBas3
 ---------------------------------------------------------

 Structure from the checkpoint file:  "G4.Frag_1039.chk"
 ---------
 Frag_1039
 ---------
 Charge =  0 Multiplicity = 1

 SCF Done:  E(RHF) =  -299.330103901     A.U. after   11 cycles
 E2 =    -0.1134181390D+01 EUMP2 =    -0.30046428529098D+03
 Normal termination of Gaussian 09 at Fri Aug 26 13:54:52 2022.

 -----------------------------------------------------------
 #P Geom=AllCheck Guess=TCheck SCRF=Check MP2=Full/GTLargeXP
 -----------------------------------------------------------

 Structure from the checkpoint file:  "G4.Frag_1039.chk"
 ---------
 Frag_1039
 ---------
 Charge =  0 Multiplicity = 1

 SCF Done:  E(RHF) =  -299.409058469     A.U. after   11 cycles
 E2 =    -0.1474950274D+01 EUMP2 =    -0.30088400874299D+03
 Normal termination of Gaussian 09 at Fri Aug 26 13:57:05 2022.
 SCF Done:  E(RHF) =  -299.431748940     A.U. after    8 cycles
 Normal termination of Gaussian 09 at Fri Aug 26 13:59:27 2022.

                         Standard orientation:
 ---------------------------------------------------------------------
 Center     Atomic      Atomic             Coordinates (Angstroms)
 Number     Number       Type             X           Y           Z
 ---------------------------------------------------------------------
      1          6           0        1.536218   -1.076981    0.051358
      2          7           0        0.647299    0.019231   -0.328057
      3          7           0        1.337613    1.239400   -0.059406
      4          6           0       -0.673674   -0.056106    0.324091
      5          7           0       -1.540065    1.069244   -0.004219
      6          7           0       -1.270708   -1.324312   -0.054985
      7          1           0        1.065407   -2.030337   -0.183065
      8          1           0        2.470532   -0.970407   -0.502257
      9          1           0        1.772999   -1.068268    1.131919
     10          1           0        1.288884    1.467264    0.941431
     11          1           0        0.862975    1.984427   -0.557852
     12          1           0       -0.560250   -0.046613    1.426439
     13          1           0       -1.546000    1.207395   -1.013254
     14          1           0       -1.204541    1.929694    0.417885
     15          1           0       -2.227788   -1.335747    0.283817
     16          1           0       -1.316455   -1.363832   -1.071092
 ---------------------------------------------------------------------

 SCF Done:  E(RHF) =  -299.436897885     A.U. after    8 cycles

 The electronic state is 1-A.
 Alpha  occ. eigenvalues --  -15.57680 -15.57281 -15.54878 -15.54088 -11.31410
 Alpha  occ. eigenvalues --  -11.23249  -1.30386  -1.21047  -1.13507  -1.05002
 Alpha  occ. eigenvalues --   -0.90713  -0.81479  -0.71190  -0.68349  -0.66469
 Alpha  occ. eigenvalues --   -0.63628  -0.61366  -0.58375  -0.54841  -0.53378
 Alpha  occ. eigenvalues --   -0.52738  -0.43659  -0.41702  -0.40453  -0.37304
 Alpha virt. eigenvalues --    0.03908   0.04525   0.04731   0.05179   0.07123
 Alpha virt. eigenvalues --    0.07498   0.07759   0.08733   0.08867   0.10877
 Alpha virt. eigenvalues --    0.11901   0.11975   0.12466   0.12643   0.12955

 Mulliken charges:
               1
     1  C   -0.473806
     2  N   -0.017282
     3  N   -0.643975
     4  C    0.121688
     5  N   -0.698460
     6  N   -0.716971
     7  H    0.201694
     8  H    0.191189
     9  H    0.132240
    10  H    0.275604
    11  H    0.303438
    12  H    0.145647
    13  H    0.292466
    14  H    0.283727
    15  H    0.308919
    16  H    0.293881
 Sum of Mulliken charges =  -0.00000

 Dipole moment (field-independent basis, Debye):
    X=             -0.8328    Y=              1.3583    Z=              0.2719  Tot=              1.6163
 Quadrupole moment (field-independent basis, Debye-Ang):
   XX=            -43.2819   YY=            -36.6830   ZZ=            -36.6242
   XY=             -0.3084   XZ=              3.2751   YZ=              1.3642

 Normal termination of Gaussian 09 at Fri Aug 26 14:07:47 2022.
