 Gaussian 09, Revision E.01,
 Gaussian 09:  ES64L-G09RevE.01 30-Nov-2015

 -----
 #P G4
 -----

 ---------
 Frag_1021
 ---------
 Symbolic Z-matrix:
 Charge =  0 Multiplicity = 1

 SCF Done:  E(RB3LYP) =  -209.111146285     A.U. after   13 cycles
 SCF Done:  E(RB3LYP) =  -209.118675769     A.U. after   12 cycles
 SCF Done:  E(RB3LYP) =  -209.119338516     A.U. after   11 cycles
 SCF Done:  E(RB3LYP) =  -209.119503841     A.U. after   10 cycles
 SCF Done:  E(RB3LYP) =  -209.119783483     A.U. after   10 cycles
 SCF Done:  E(RB3LYP) =  -209.122348701     A.U. after   12 cycles
 SCF Done:  E(RB3LYP) =  -209.099380580     A.U. after   13 cycles
 SCF Done:  E(RB3LYP) =  -209.123322377     A.U. after   11 cycles
 SCF Done:  E(RB3LYP) =  -209.124357963     A.U. after   13 cycles
 SCF Done:  E(RB3LYP) =  -209.125829510     A.U. after   12 cycles
 SCF Done:  E(RB3LYP) =  -209.126052775     A.U. after   10 cycles
 SCF Done:  E(RB3LYP) =  -209.126059643     A.U. after    9 cycles
 SCF Done:  E(RB3LYP) =  -209.126060771     A.U. after    8 cycles
 Optimization completed.
    -- Stationary point found.
 Normal termination of Gaussian 09 at Fri Aug 19 22:13:29 2022.

 ----------------------------------------------------------
 #P Geom=AllCheck Guess=TCheck SCRF=Check B3LYP/GTBas3 Freq
 ----------------------------------------------------------

 Structure from the checkpoint file:  "G4.Frag_1021.chk"
 ---------
 Frag_1021
 ---------
 Charge =  0 Multiplicity = 1

 SCF Done:  E(RB3LYP) =  -209.126060771     A.U. after    1 cycles

  Exact polarizability:  43.935   4.127  38.695   1.039  -1.460  20.040
 Approx polarizability:  60.500   9.995  60.543   1.911  -1.100  29.887

                      1                      2                      3
                      A                      A                      A
 Frequencies --    257.4885               304.5860               317.6183
 Red. masses --      2.2625                 2.4254                 1.1562
 Frc consts  --      0.0884                 0.1326                 0.0687
 IR Inten    --      0.6124                 3.9532                73.3383

                      4                      5                      6
                      A                      A                      A
 Frequencies --    608.7387               677.9839               782.9531
 Red. masses --      2.0257                 1.5238                 2.1496
 Frc consts  --      0.4423                 0.4127                 0.7764
 IR Inten    --     37.5818                72.0125               120.5008

                      7                      8                      9
                      A                      A                      A
 Frequencies --    858.5183               988.2057              1006.0373
 Red. masses --      1.4055                 1.7646                 1.3449
 Frc consts  --      0.6103                 1.0153                 0.8020
 IR Inten    --     45.5306                31.5993                12.6820

                     10                     11                     12
                      A                      A                      A
 Frequencies --   1021.2803              1171.7061              1324.4058
 Red. masses --      1.8641                 2.5234                 1.2201
 Frc consts  --      1.1455                 2.0411                 1.2610
 IR Inten    --      8.7938                29.0656                 0.6459

                     13                     14                     15
                      A                      A                      A
 Frequencies --   1390.5637              1439.9975              1481.2357
 Red. masses --      1.2016                 1.2232                 1.1166
 Frc consts  --      1.3689                 1.4945                 1.4434
 IR Inten    --     53.4804                 5.0317                 5.5828

                     16                     17                     18
                      A                      A                      A
 Frequencies --   1725.0411              3159.2498              3184.7001
 Red. masses --      4.6923                 1.0826                 1.0664
 Frc consts  --      8.2269                 6.3661                 6.3726
 IR Inten    --     70.3515                 9.9920                 0.9970

                     19                     20                     21
                      A                      A                      A
 Frequencies --   3272.9894              3496.6382              3790.6977
 Red. masses --      1.1158                 1.0757                 1.0683
 Frc consts  --      7.0426                 7.7492                 9.0444
 IR Inten    --      5.3741                 3.7975                41.1341

 - Thermochemistry -
 -------------------
 Temperature   298.150 Kelvin.  Pressure   1.00000 Atm.
 Atom     1 has atomic number  6 and mass  12.00000

 Molecular mass:    59.03711 amu.
 Principal axes and moments of inertia in atomic units:
                           1         2         3
     Eigenvalues --    97.85990 288.22668 377.16415
           X            0.99980   0.01794   0.00924
           Y           -0.01745   0.99855  -0.05099
           Z           -0.01014   0.05082   0.99866
 This molecule is an asymmetric top.
 Rotational symmetry number  1.
 Rotational temperatures (Kelvin)      0.88508     0.30051     0.22964
 Rotational constants (GHZ):          18.44209     6.26153     4.78503
 Zero-point vibrational energy     192961.4 (Joules/Mol)
                                   46.11889 (Kcal/Mol)
 Warning -- explicit consideration of   4 degrees of freedom as
           vibrations may cause significant error
 Vibrational temperatures:    370.47   438.23   456.98   875.84   975.47
          (Kelvin)           1126.49  1235.21  1421.81  1447.46  1469.39
                             1685.82  1905.52  2000.71  2071.83  2131.17
                             2481.95  4545.45  4582.07  4709.10  5030.88
                             5453.96

 Zero-point correction=                           0.073495 (Hartree/Particle)
 Thermal correction to Energy=                    0.078199
 Thermal correction to Enthalpy=                  0.079143
 Thermal correction to Gibbs Free Energy=         0.046848
 Sum of electronic and zero-point Energies=           -209.052566
 Sum of electronic and thermal Energies=              -209.047862
 Sum of electronic and thermal Enthalpies=            -209.046918
 Sum of electronic and thermal Free Energies=         -209.079213

                     E (Thermal)             CV                S
                      KCal/Mol        Cal/Mol-Kelvin    Cal/Mol-Kelvin
 Total                   49.071             15.932             67.971
 Electronic               0.000              0.000              0.000
 Translational            0.889              2.981             38.147
 Rotational               0.889              2.981             23.879
 Vibrational             47.293              9.970              5.945
 Vibration     1          0.667              1.750              1.679
 Vibration     2          0.695              1.665              1.392
 Vibration     3          0.704              1.640              1.322
 Vibration     4          0.968              1.013              0.435

 Optimization completed.
    -- Stationary point found.
 Normal termination of Gaussian 09 at Fri Aug 19 22:14:00 2022.

 -----------------------------------------------------------------
 #P Geom=AllCheck Guess=TCheck SCRF=Check CCSD(T,E4T,FrzG4)/GTBas1
 -----------------------------------------------------------------

 Structure from the checkpoint file:  "G4.Frag_1021.chk"
 ---------
 Frag_1021
 ---------
 Charge =  0 Multiplicity = 1

 SCF Done:  E(RHF) =  -207.856212958     A.U. after   13 cycles
 E2 =    -0.5962458048D+00 EUMP2 =    -0.20845245876286D+03
 CCSD(T)
 CCSD(T)= -0.20850582135D+03
 .4861784\CCSD=-208.4868023\CCSD(T)=-208.5058214\RMSD=4.398e-09\PG=C01
 Normal termination of Gaussian 09 at Fri Aug 19 22:14:25 2022.

 ---------------------------------------------------------
 #P Geom=AllCheck Guess=TCheck SCRF=Check MP4=FrzG4/GTBas2
 ---------------------------------------------------------

 Structure from the checkpoint file:  "G4.Frag_1021.chk"
 ---------
 Frag_1021
 ---------
 Charge =  0 Multiplicity = 1

 SCF Done:  E(RHF) =  -207.865654047     A.U. after   13 cycles
 E2 =    -0.6059394325D+00 EUMP2 =    -0.20847159347924D+03
 Normal termination of Gaussian 09 at Fri Aug 19 22:14:36 2022.

 ---------------------------------------------------------
 #P Geom=AllCheck Guess=TCheck SCRF=Check MP4=FrzG4/GTBas3
 ---------------------------------------------------------

 Structure from the checkpoint file:  "G4.Frag_1021.chk"
 ---------
 Frag_1021
 ---------
 Charge =  0 Multiplicity = 1

 SCF Done:  E(RHF) =  -207.885386911     A.U. after   12 cycles
 E2 =    -0.7310674254D+00 EUMP2 =    -0.20861645433660D+03
 Normal termination of Gaussian 09 at Fri Aug 19 22:18:26 2022.

 -----------------------------------------------------------
 #P Geom=AllCheck Guess=TCheck SCRF=Check MP2=Full/GTLargeXP
 -----------------------------------------------------------

 Structure from the checkpoint file:  "G4.Frag_1021.chk"
 ---------
 Frag_1021
 ---------
 Charge =  0 Multiplicity = 1

 SCF Done:  E(RHF) =  -207.944005229     A.U. after   12 cycles
 E2 =    -0.9579847236D+00 EUMP2 =    -0.20890198995227D+03
 Normal termination of Gaussian 09 at Fri Aug 19 22:19:08 2022.
 SCF Done:  E(RHF) =  -207.961478074     A.U. after   10 cycles
 Normal termination of Gaussian 09 at Fri Aug 19 22:20:47 2022.

                         Standard orientation:
 ---------------------------------------------------------------------
 Center     Atomic      Atomic             Coordinates (Angstroms)
 Number     Number       Type             X           Y           Z
 ---------------------------------------------------------------------
      1          6           0       -1.474256   -0.538489   -0.005328
      2          6           0       -0.729106    0.563954    0.003655
      3          7           0        0.665521    0.642699    0.135408
      4          8           0        1.315675   -0.591283   -0.137271
      5          1           0       -1.027744   -1.523241    0.014616
      6          1           0       -2.553082   -0.463648   -0.034416
      7          1           0       -1.171925    1.557408   -0.024321
      8          1           0        1.067400    1.323129   -0.503813
      9          1           0        1.721475   -0.815066    0.708284
 ---------------------------------------------------------------------

 SCF Done:  E(RHF) =  -207.965121479     A.U. after    8 cycles

 The electronic state is 1-A.
 Alpha  occ. eigenvalues --  -20.59809 -15.62382 -11.26838 -11.20845  -1.41830
 Alpha  occ. eigenvalues --   -1.15227  -0.99399  -0.78728  -0.72069  -0.68606
 Alpha  occ. eigenvalues --   -0.63742  -0.59095  -0.52425  -0.50339  -0.47406
 Alpha  occ. eigenvalues --   -0.33376
 Alpha virt. eigenvalues --    0.04006   0.04774   0.05446   0.06774   0.07504
 Alpha virt. eigenvalues --    0.08242   0.08369   0.10471   0.11210   0.12839
 Alpha virt. eigenvalues --    0.14423   0.15176   0.15786   0.17489   0.17751

 Mulliken charges:
               1
     1  C   -0.467619
     2  C   -0.049256
     3  N   -0.276762
     4  O   -0.495293
     5  H    0.195688
     6  H    0.192168
     7  H    0.192752
     8  H    0.313593
     9  H    0.394729
 Sum of Mulliken charges =  -0.00000

 Dipole moment (field-independent basis, Debye):
    X=              0.4705    Y=              0.9987    Z=              0.4053  Tot=              1.1760
 Quadrupole moment (field-independent basis, Debye-Ang):
   XX=            -22.7983   YY=            -21.7644   ZZ=            -26.5132
   XY=             -0.3654   XZ=              1.6316   YZ=             -3.1909

 Normal termination of Gaussian 09 at Fri Aug 19 23:00:32 2022.
