 Gaussian 09, Revision E.01,
 Gaussian 09:  ES64L-G09RevE.01 30-Nov-2015

 -----
 #P G4
 -----

 --------
 Frag_788
 --------
 Symbolic Z-matrix:
 Charge =  0 Multiplicity = 1

 SCF Done:  E(RB3LYP) =  -384.159136645     A.U. after   12 cycles
 SCF Done:  E(RB3LYP) =  -384.159142349     A.U. after    8 cycles
 SCF Done:  E(RB3LYP) =  -384.159144578     A.U. after    8 cycles
 SCF Done:  E(RB3LYP) =  -384.159145276     A.U. after    7 cycles
 SCF Done:  E(RB3LYP) =  -384.159145697     A.U. after    7 cycles
 SCF Done:  E(RB3LYP) =  -384.159145982     A.U. after    7 cycles
 SCF Done:  E(RB3LYP) =  -384.159146322     A.U. after    7 cycles
 SCF Done:  E(RB3LYP) =  -384.159147192     A.U. after    7 cycles
 SCF Done:  E(RB3LYP) =  -384.159147577     A.U. after    7 cycles
 SCF Done:  E(RB3LYP) =  -384.159147579     A.U. after    6 cycles
 Optimization completed.
    -- Stationary point found.
 Normal termination of Gaussian 09 at Fri Sep  2 18:00:48 2022.

 ----------------------------------------------------------
 #P Geom=AllCheck Guess=TCheck SCRF=Check B3LYP/GTBas3 Freq
 ----------------------------------------------------------

 Structure from the checkpoint file:  "G4.Frag_788.chk"
 --------
 Frag_788
 --------
 Charge =  0 Multiplicity = 1

 SCF Done:  E(RB3LYP) =  -384.159147579     A.U. after    1 cycles

  Exact polarizability:  59.356  -0.025  56.576   0.080  -0.055  50.947
 Approx polarizability:  76.040  -0.083  77.401   0.788  -0.054  76.775

                      1                      2                      3
                      A                      A                      A
 Frequencies --     81.3681                98.4428               125.0547
 Red. masses --      1.4861                 2.4240                 1.2676
 Frc consts  --      0.0058                 0.0138                 0.0117
 IR Inten    --     37.0549                10.5649                46.1368

                      4                      5                      6
                      A                      A                      A
 Frequencies --    218.8786               236.0264               250.2683
 Red. masses --      1.0692                 1.1870                 3.1579
 Frc consts  --      0.0302                 0.0390                 0.1165
 IR Inten    --      0.1844                 0.1752                 0.7557

                      7                      8                      9
                      A                      A                      A
 Frequencies --    276.0870               337.3061               417.9200
 Red. masses --      2.3320                 2.5930                 2.6270
 Frc consts  --      0.1047                 0.1738                 0.2703
 IR Inten    --      2.2390                 4.8084                15.7188

                     10                     11                     12
                      A                      A                      A
 Frequencies --    429.4041               456.5419               518.3357
 Red. masses --      1.1625                 2.6754                 3.6996
 Frc consts  --      0.1263                 0.3286                 0.5856
 IR Inten    --    113.7493                 2.4541                 7.3865

                     13                     14                     15
                      A                      A                      A
 Frequencies --    554.1442               610.5664               762.9631
 Red. masses --      4.7250                 2.9690                 3.6249
 Frc consts  --      0.8549                 0.6521                 1.2432
 IR Inten    --      6.4026                 8.5874                 4.7679

                     16                     17                     18
                      A                      A                      A
 Frequencies --    902.3541               933.0477               966.4541
 Red. masses --      2.4988                 1.1573                 1.4220
 Frc consts  --      1.1988                 0.5936                 0.7825
 IR Inten    --      4.6493                 0.0060                 8.9515

                     19                     20                     21
                      A                      A                      A
 Frequencies --    990.5706              1024.6604              1028.3041
 Red. masses --      2.4790                 2.5471                 2.9709
 Frc consts  --      1.4332                 1.5756                 1.8509
 IR Inten    --    128.5453               176.9868               146.8787

                     22                     23                     24
                      A                      A                      A
 Frequencies --   1134.2309              1141.7446              1201.1081
 Red. masses --      1.5627                 2.0734                 1.7998
 Frc consts  --      1.1844                 1.5924                 1.5298
 IR Inten    --     20.0720                 2.9393                 1.8012

                     25                     26                     27
                      A                      A                      A
 Frequencies --   1310.5922              1337.4822              1357.6201
 Red. masses --      1.4442                 1.3892                 1.6133
 Frc consts  --      1.4615                 1.4642                 1.7520
 IR Inten    --     58.6973                38.7371               127.2499

                     28                     29                     30
                      A                      A                      A
 Frequencies --   1379.1621              1393.9055              1404.8768
 Red. masses --      1.5728                 1.3016                 1.5426
 Frc consts  --      1.7626                 1.4900                 1.7939
 IR Inten    --     85.4221                 2.5894                17.2790

                     31                     32                     33
                      A                      A                      A
 Frequencies --   1427.7410              1489.0474              1496.9789
 Red. masses --      1.5362                 1.0463                 1.0471
 Frc consts  --      1.8450                 1.3668                 1.3826
 IR Inten    --     16.1522                 1.2580                 0.4004

                     34                     35                     36
                      A                      A                      A
 Frequencies --   1501.0754              1522.0604              3034.8026
 Red. masses --      1.0443                 1.0775                 1.0828
 Frc consts  --      1.3864                 1.4707                 5.8757
 IR Inten    --      3.5116                11.4796                14.2685

                     37                     38                     39
                      A                      A                      A
 Frequencies --   3040.1287              3044.6673              3105.4847
 Red. masses --      1.0354                 1.0357                 1.1016
 Frc consts  --      5.6382                 5.6566                 6.2596
 IR Inten    --     21.1868                25.3324                 3.7262

                     40                     41                     42
                      A                      A                      A
 Frequencies --   3111.7724              3124.7301              3128.1292
 Red. masses --      1.1009                 1.1012                 1.1007
 Frc consts  --      6.2810                 6.3352                 6.3458
 IR Inten    --     48.2140                20.6716                21.2312

                     43                     44                     45
                      A                      A                      A
 Frequencies --   3816.5273              3820.4687              3822.0892
 Red. masses --      1.0654                 1.0653                 1.0653
 Frc consts  --      9.1430                 9.1611                 9.1690
 IR Inten    --     63.1329                49.3629                50.1718

 - Thermochemistry -
 -------------------
 Temperature   298.150 Kelvin.  Pressure   1.00000 Atm.
 Atom     1 has atomic number  6 and mass  12.00000

 Molecular mass:   106.06299 amu.
 Principal axes and moments of inertia in atomic units:
                           1         2         3
     Eigenvalues --   540.69067 764.13065 940.66117
           X            0.99998  -0.00032  -0.00615
           Y            0.00032   1.00000  -0.00043
           Z            0.00615   0.00043   0.99998
 This molecule is an asymmetric top.
 Rotational symmetry number  1.
 Warning -- assumption of classical behavior for rotation
           may cause significant error
 Rotational temperatures (Kelvin)      0.16019     0.11335     0.09208
 Rotational constants (GHZ):           3.33784     2.36182     1.91859
 Zero-point vibrational energy     379007.6 (Joules/Mol)
                                   90.58499 (Kcal/Mol)
 Warning -- explicit consideration of  14 degrees of freedom as
           vibrations may cause significant error
 Vibrational temperatures:    117.07   141.64   179.93   314.92   339.59
          (Kelvin)            360.08   397.23   485.31   601.29   617.82
                              656.86   745.77   797.29   878.47  1097.73
                             1298.28  1342.45  1390.51  1425.21  1474.26
                             1479.50  1631.90  1642.71  1728.12  1885.65
                             1924.34  1953.31  1984.30  2005.52  2021.30
                             2054.20  2142.40  2153.82  2159.71  2189.90
                             4366.40  4374.06  4380.59  4468.09  4477.14
                             4495.78  4500.67  5491.12  5496.80  5499.13

 Zero-point correction=                           0.144356 (Hartree/Particle)
 Thermal correction to Energy=                    0.153596
 Thermal correction to Enthalpy=                  0.154540
 Thermal correction to Gibbs Free Energy=         0.111137
 Sum of electronic and zero-point Energies=           -384.014791
 Sum of electronic and thermal Energies=              -384.005552
 Sum of electronic and thermal Enthalpies=            -384.004607
 Sum of electronic and thermal Free Energies=         -384.048011

                     E (Thermal)             CV                S
                      KCal/Mol        Cal/Mol-Kelvin    Cal/Mol-Kelvin
 Total                   96.383             33.001             91.351
 Electronic               0.000              0.000              0.000
 Translational            0.889              2.981             39.894
 Rotational               0.889              2.981             27.455
 Vibrational             94.606             27.039             24.003
 Vibration     1          0.600              1.962              3.858
 Vibration     2          0.604              1.950              3.485
 Vibration     3          0.610              1.928              3.021
 Vibration     4          0.647              1.812              1.968
 Vibration     5          0.655              1.786              1.833
 Vibration     6          0.663              1.762              1.729
 Vibration     7          0.678              1.718              1.558
 Vibration     8          0.718              1.601              1.225
 Vibration     9          0.781              1.431              0.899
 Vibration    10          0.791              1.406              0.861
 Vibration    11          0.815              1.346              0.776
 Vibration    12          0.873              1.209              0.614
 Vibration    13          0.910              1.131              0.536
 Vibration    14          0.970              1.009              0.432

 Normal termination of Gaussian 09 at Fri Sep  2 18:01:39 2022.

 -----------------------------------------------------------------
 #P Geom=AllCheck Guess=TCheck SCRF=Check CCSD(T,E4T,FrzG4)/GTBas1
 -----------------------------------------------------------------

 Structure from the checkpoint file:  "G4.Frag_788.chk"
 --------
 Frag_788
 --------
 Charge =  0 Multiplicity = 1

 SCF Done:  E(RHF) =  -381.880411109     A.U. after   12 cycles
 E2 =    -0.1064733018D+01 EUMP2 =    -0.38294514412645D+03
 CCSD(T)
 CCSD(T)= -0.38302989040D+03
 3.0002959\CCSD=-383.0005093\CCSD(T)=-383.0298904\RMSD=3.585e-09\PG=C01
 Normal termination of Gaussian 09 at Fri Sep  2 18:06:06 2022.

 ---------------------------------------------------------
 #P Geom=AllCheck Guess=TCheck SCRF=Check MP4=FrzG4/GTBas2
 ---------------------------------------------------------

 Structure from the checkpoint file:  "G4.Frag_788.chk"
 --------
 Frag_788
 --------
 Charge =  0 Multiplicity = 1

 SCF Done:  E(RHF) =  -381.891858848     A.U. after   11 cycles
 E2 =    -0.1083769556D+01 EUMP2 =    -0.38297562840473D+03
 Normal termination of Gaussian 09 at Fri Sep  2 18:07:33 2022.

 ---------------------------------------------------------
 #P Geom=AllCheck Guess=TCheck SCRF=Check MP4=FrzG4/GTBas3
 ---------------------------------------------------------

 Structure from the checkpoint file:  "G4.Frag_788.chk"
 --------
 Frag_788
 --------
 Charge =  0 Multiplicity = 1

 SCF Done:  E(RHF) =  -381.934559327     A.U. after   10 cycles
 E2 =    -0.1329096862D+01 EUMP2 =    -0.38326365618829D+03
 Normal termination of Gaussian 09 at Fri Sep  2 18:20:07 2022.

 -----------------------------------------------------------
 #P Geom=AllCheck Guess=TCheck SCRF=Check MP2=Full/GTLargeXP
 -----------------------------------------------------------

 Structure from the checkpoint file:  "G4.Frag_788.chk"
 --------
 Frag_788
 --------
 Charge =  0 Multiplicity = 1

 SCF Done:  E(RHF) =  -382.037552390     A.U. after   11 cycles
 E2 =    -0.1734788231D+01 EUMP2 =    -0.38377234062129D+03
 Normal termination of Gaussian 09 at Fri Sep  2 18:24:11 2022.
 SCF Done:  E(RHF) =  -382.068550320     A.U. after    8 cycles
 Normal termination of Gaussian 09 at Fri Sep  2 18:27:38 2022.

                         Standard orientation:
 ---------------------------------------------------------------------
 Center     Atomic      Atomic             Coordinates (Angstroms)
 Number     Number       Type             X           Y           Z
 ---------------------------------------------------------------------
      1          6           0        1.562256   -1.270062    0.012481
      2          6           0        0.847146   -0.000020   -0.462441
      3          6           0        1.562924    1.268144    0.017086
      4          6           0       -0.626658   -0.000034   -0.024632
      5          8           0       -0.731544    0.089498    1.378592
      6          8           0       -1.298481    1.098163   -0.598379
      7          8           0       -1.262198   -1.184777   -0.449097
      8          1           0        2.596537   -1.280418   -0.344565
      9          1           0        1.583023   -1.311637    1.106287
     10          1           0        1.061914   -2.168106   -0.356795
     11          1           0        0.818260    0.003203   -1.559130
     12          1           0        1.592277    1.304938    1.110454
     13          1           0        2.593601    1.284834   -0.350066
     14          1           0        1.055847    2.166003   -0.344399
     15          1           0       -1.271201   -0.663282    1.644084
     16          1           0       -1.731198    1.547942    0.136009
     17          1           0       -2.035300   -0.894722   -0.945777
 ---------------------------------------------------------------------

 SCF Done:  E(RHF) =  -382.075462356     A.U. after    7 cycles

 The electronic state is 1-A.
 Alpha  occ. eigenvalues --  -20.57363 -20.57343 -20.57334 -11.39538 -11.22775
 Alpha  occ. eigenvalues --  -11.20640 -11.20618  -1.46421  -1.34913  -1.34871
 Alpha  occ. eigenvalues --   -1.07225  -0.92492  -0.90112  -0.77963  -0.74427
 Alpha  occ. eigenvalues --   -0.74374  -0.67510  -0.62103  -0.60561  -0.58833
 Alpha  occ. eigenvalues --   -0.57923  -0.54803  -0.53186  -0.52744  -0.50120
 Alpha  occ. eigenvalues --   -0.49684  -0.47382  -0.47200  -0.44391
 Alpha virt. eigenvalues --    0.03364   0.04037   0.04496   0.04930   0.06415
 Alpha virt. eigenvalues --    0.06519   0.07229   0.07900   0.08137   0.09679
 Alpha virt. eigenvalues --    0.10946   0.11125   0.11279   0.12824   0.12930

 Mulliken charges:
               1
     1  C   -0.597015
     2  C    0.115285
     3  C   -0.600632
     4  C    0.620009
     5  O   -0.655830
     6  O   -0.654378
     7  O   -0.643350
     8  H    0.162727
     9  H    0.169659
    10  H    0.192750
    11  H    0.151724
    12  H    0.184778
    13  H    0.162602
    14  H    0.180127
    15  H    0.406182
    16  H    0.403658
    17  H    0.401705
 Sum of Mulliken charges =  -0.00000

 Dipole moment (field-independent basis, Debye):
    X=             -1.2102    Y=             -0.0325    Z=              0.3243  Tot=              1.2533
 Quadrupole moment (field-independent basis, Debye-Ang):
   XX=            -38.1785   YY=            -45.2882   ZZ=            -44.3154
   XY=             -0.0474   XZ=             -1.9445   YZ=             -0.0296

 Normal termination of Gaussian 09 at Fri Sep  2 18:38:49 2022.
