 Gaussian 09, Revision E.01,
 Gaussian 09:  ES64L-G09RevE.01 30-Nov-2015

 -----
 #P G4
 -----

 --------
 Frag_538
 --------
 Symbolic Z-matrix:
 Charge =  0 Multiplicity = 1

 SCF Done:  E(RB3LYP) =  -253.133140093     A.U. after   12 cycles
 SCF Done:  E(RB3LYP) =  -253.137182864     A.U. after   10 cycles
 SCF Done:  E(RB3LYP) =  -253.137333942     A.U. after   10 cycles
 SCF Done:  E(RB3LYP) =  -253.137399267     A.U. after    9 cycles
 SCF Done:  E(RB3LYP) =  -253.137410414     A.U. after    8 cycles
 SCF Done:  E(RB3LYP) =  -253.137411160     A.U. after    7 cycles
 SCF Done:  E(RB3LYP) =  -253.137411248     A.U. after    6 cycles
 SCF Done:  E(RB3LYP) =  -253.137411283     A.U. after    6 cycles
 Optimization completed.
    -- Stationary point found.
 Normal termination of Gaussian 09 at Fri Aug 26 13:57:48 2022.

 ----------------------------------------------------------
 #P Geom=AllCheck Guess=TCheck SCRF=Check B3LYP/GTBas3 Freq
 ----------------------------------------------------------

 Structure from the checkpoint file:  "G4.Frag_538.chk"
 --------
 Frag_538
 --------
 Charge =  0 Multiplicity = 1

 SCF Done:  E(RB3LYP) =  -253.137411283     A.U. after    1 cycles

  Exact polarizability:  67.361   0.042  61.945  -0.036  -0.158  60.219
 Approx polarizability:  88.717  -0.294  87.579   0.148  -0.261  84.606

                      1                      2                      3
                      A                      A                      A
 Frequencies --    130.5268               207.1448               232.4921
 Red. masses --      2.2361                 1.0364                 1.1132
 Frc consts  --      0.0224                 0.0262                 0.0355
 IR Inten    --      2.6799                20.5142                15.3794

                      4                      5                      6
                      A                      A                      A
 Frequencies --    250.5034               266.9399               288.1614
 Red. masses --      1.9711                 1.1786                 1.0414
 Frc consts  --      0.0729                 0.0495                 0.0509
 IR Inten    --      1.0529                 0.0758                 7.6718

                      7                      8                      9
                      A                      A                      A
 Frequencies --    327.8098               349.5654               399.9720
 Red. masses --      2.0775                 2.3947                 2.2026
 Frc consts  --      0.1315                 0.1724                 0.2076
 IR Inten    --      0.2668                 1.0564                 0.0474

                     10                     11                     12
                      A                      A                      A
 Frequencies --    411.3242               515.6706               727.0369
 Red. masses --      2.0408                 2.8492                 3.0868
 Frc consts  --      0.2034                 0.4464                 0.9613
 IR Inten    --      0.8172                 6.5846                 4.4791

                     13                     14                     15
                      A                      A                      A
 Frequencies --    846.3393               886.0054               928.0233
 Red. masses --      1.3060                 1.8957                 2.0976
 Frc consts  --      0.5511                 0.8768                 1.0644
 IR Inten    --     87.2232                 1.5089                14.7192

                     16                     17                     18
                      A                      A                      A
 Frequencies --    939.1587               950.2390               959.2812
 Red. masses --      1.6631                 1.3489                 1.2159
 Frc consts  --      0.8643                 0.7176                 0.6593
 IR Inten    --      1.5734                10.5915                 1.7848

                     19                     20                     21
                      A                      A                      A
 Frequencies --   1031.2982              1067.4137              1086.0892
 Red. masses --      1.3761                 1.4215                 2.5296
 Frc consts  --      0.8623                 0.9542                 1.7580
 IR Inten    --      0.6456                 6.3617                11.6816

                     22                     23                     24
                      A                      A                      A
 Frequencies --   1149.3028              1239.1543              1272.6905
 Red. masses --      1.3081                 2.3818                 2.5377
 Frc consts  --      1.0180                 2.1548                 2.4218
 IR Inten    --      1.3437                 7.2934                 2.0122

                     25                     26                     27
                      A                      A                      A
 Frequencies --   1291.4168              1350.4323              1392.9295
 Red. masses --      2.2371                 1.2482                 1.2573
 Frc consts  --      2.1982                 1.3412                 1.4372
 IR Inten    --      2.2567                 2.9467                 6.9189

                     28                     29                     30
                      A                      A                      A
 Frequencies --   1395.6540              1407.0347              1437.2095
 Red. masses --      1.2353                 1.3202                 1.2834
 Frc consts  --      1.4177                 1.5399                 1.5619
 IR Inten    --      4.6440                 0.4080                10.6719

                     31                     32                     33
                      A                      A                      A
 Frequencies --   1478.5472              1486.6421              1492.0518
 Red. masses --      1.0493                 1.0558                 1.0454
 Frc consts  --      1.3515                 1.3749                 1.3713
 IR Inten    --      0.2917                 0.6765                 0.0923

                     34                     35                     36
                      A                      A                      A
 Frequencies --   1492.7269              1505.3326              1512.1570
 Red. masses --      1.0638                 1.0620                 1.0625
 Frc consts  --      1.3966                 1.4179                 1.4315
 IR Inten    --      1.3824                 2.8629                 3.4421

                     37                     38                     39
                      A                      A                      A
 Frequencies --   1522.6236              1662.4014              2937.4276
 Red. masses --      1.0647                 1.0879                 1.0717
 Frc consts  --      1.4543                 1.7714                 5.4483
 IR Inten    --     12.4926                23.8387                73.9930

                     40                     41                     42
                      A                      A                      A
 Frequencies --   3019.3313              3022.1527              3029.5542
 Red. masses --      1.0353                 1.0358                 1.0385
 Frc consts  --      5.5609                 5.5739                 5.6159
 IR Inten    --     30.1814                36.5191                12.5479

                     43                     44                     45
                      A                      A                      A
 Frequencies --   3046.2903              3084.3780              3087.1745
 Red. masses --      1.0879                 1.1010                 1.1004
 Frc consts  --      5.9483                 6.1710                 6.1788
 IR Inten    --     28.4934                 0.3857                16.0864

                     46                     47                     48
                      A                      A                      A
 Frequencies --   3089.4236              3094.4633              3099.3336
 Red. masses --      1.1007                 1.1003                 1.1007
 Frc consts  --      6.1899                 6.2077                 6.2293
 IR Inten    --     53.3174                59.8047                31.3645

                     49                     50                     51
                      A                      A                      A
 Frequencies --   3123.9986              3501.9315              3576.5540
 Red. masses --      1.0990                 1.0496                 1.0922
 Frc consts  --      6.3190                 7.5836                 8.2313
 IR Inten    --     18.3060                 0.2796                 0.2550

 - Thermochemistry -
 -------------------
 Temperature   298.150 Kelvin.  Pressure   1.00000 Atm.
 Atom     1 has atomic number  6 and mass  12.00000

 Molecular mass:    87.10480 amu.
 Principal axes and moments of inertia in atomic units:
                           1         2         3
     Eigenvalues --   416.41228 709.01457 712.50758
           X            0.99993   0.00487  -0.01099
           Y           -0.00603   0.99418  -0.10753
           Z            0.01040   0.10758   0.99414
 This molecule is an asymmetric top.
 Rotational symmetry number  1.
 Rotational temperatures (Kelvin)      0.20800     0.12216     0.12156
 Rotational constants (GHZ):           4.33402     2.54542     2.53294
 Zero-point vibrational energy     464158.9 (Joules/Mol)
                                  110.93665 (Kcal/Mol)
 Warning -- explicit consideration of  11 degrees of freedom as
           vibrations may cause significant error
 Vibrational temperatures:    187.80   298.03   334.50   360.42   384.07
          (Kelvin)            414.60   471.64   502.95   575.47   591.80
                              741.93  1046.04  1217.69  1274.76  1335.22
                             1351.24  1367.18  1380.19  1483.81  1535.77
                             1562.64  1653.59  1782.86  1831.12  1858.06
                             1942.97  2004.11  2008.03  2024.41  2067.82
                             2127.30  2138.94  2146.73  2147.70  2165.84
                             2175.65  2190.71  2391.82  4226.30  4344.14
                             4348.20  4358.85  4382.93  4437.73  4441.75
                             4444.99  4452.24  4459.24  4494.73  5038.49
                             5145.86

 Zero-point correction=                           0.176789 (Hartree/Particle)
 Thermal correction to Energy=                    0.184943
 Thermal correction to Enthalpy=                  0.185887
 Thermal correction to Gibbs Free Energy=         0.145786
 Sum of electronic and zero-point Energies=           -252.960622
 Sum of electronic and thermal Energies=              -252.952469
 Sum of electronic and thermal Enthalpies=            -252.951524
 Sum of electronic and thermal Free Energies=         -252.991625

                     E (Thermal)             CV                S
                      KCal/Mol        Cal/Mol-Kelvin    Cal/Mol-Kelvin
 Total                  116.053             30.459             84.399
 Electronic               0.000              0.000              0.000
 Translational            0.889              2.981             39.307
 Rotational               0.889              2.981             26.845
 Vibrational            114.276             24.498             18.248
 Vibration     1          0.612              1.923              2.938
 Vibration     2          0.641              1.830              2.069
 Vibration     3          0.653              1.791              1.860
 Vibration     4          0.663              1.762              1.727
 Vibration     5          0.672              1.734              1.616
 Vibration     6          0.685              1.696              1.485
 Vibration     7          0.711              1.620              1.271
 Vibration     8          0.727              1.576              1.168
 Vibration     9          0.766              1.470              0.963
 Vibration    10          0.775              1.446              0.922
 Vibration    11          0.871              1.215              0.620

 Normal termination of Gaussian 09 at Fri Aug 26 13:58:35 2022.

 -----------------------------------------------------------------
 #P Geom=AllCheck Guess=TCheck SCRF=Check CCSD(T,E4T,FrzG4)/GTBas1
 -----------------------------------------------------------------

 Structure from the checkpoint file:  "G4.Frag_538.chk"
 --------
 Frag_538
 --------
 Charge =  0 Multiplicity = 1

 SCF Done:  E(RHF) =  -251.349702262     A.U. after   11 cycles
 E2 =    -0.8294434080D+00 EUMP2 =    -0.25217914566958D+03
 CCSD(T)
 CCSD(T)= -0.25227706257D+03
 2.2745778\MP4SDQ=-252.2494742\CCSD=-252.2511149\CCSD(T)=-252.2770626\R
 Normal termination of Gaussian 09 at Fri Aug 26 14:01:33 2022.

 ---------------------------------------------------------
 #P Geom=AllCheck Guess=TCheck SCRF=Check MP4=FrzG4/GTBas2
 ---------------------------------------------------------

 Structure from the checkpoint file:  "G4.Frag_538.chk"
 --------
 Frag_538
 --------
 Charge =  0 Multiplicity = 1

 SCF Done:  E(RHF) =  -251.355067950     A.U. after   11 cycles
 E2 =    -0.8404977011D+00 EUMP2 =    -0.25219556565101D+03
 Normal termination of Gaussian 09 at Fri Aug 26 14:02:26 2022.

 ---------------------------------------------------------
 #P Geom=AllCheck Guess=TCheck SCRF=Check MP4=FrzG4/GTBas3
 ---------------------------------------------------------

 Structure from the checkpoint file:  "G4.Frag_538.chk"
 --------
 Frag_538
 --------
 Charge =  0 Multiplicity = 1

 SCF Done:  E(RHF) =  -251.386097363     A.U. after   10 cycles
 E2 =    -0.1038601900D+01 EUMP2 =    -0.25242469926287D+03
 Normal termination of Gaussian 09 at Fri Aug 26 14:08:23 2022.

 -----------------------------------------------------------
 #P Geom=AllCheck Guess=TCheck SCRF=Check MP2=Full/GTLargeXP
 -----------------------------------------------------------

 Structure from the checkpoint file:  "G4.Frag_538.chk"
 --------
 Frag_538
 --------
 Charge =  0 Multiplicity = 1

 SCF Done:  E(RHF) =  -251.441115718     A.U. after   11 cycles
 E2 =    -0.1362960836D+01 EUMP2 =    -0.25280407655396D+03
 Normal termination of Gaussian 09 at Fri Aug 26 14:11:33 2022.
 SCF Done:  E(RHF) =  -251.461073047     A.U. after    8 cycles
 Normal termination of Gaussian 09 at Fri Aug 26 14:14:52 2022.

                         Standard orientation:
 ---------------------------------------------------------------------
 Center     Atomic      Atomic             Coordinates (Angstroms)
 Number     Number       Type             X           Y           Z
 ---------------------------------------------------------------------
      1          6           0       -1.605978   -0.644933   -0.737539
      2          6           0       -0.424733    0.001021    0.005972
      3          6           0       -0.532615   -0.293701    1.511672
      4          6           0       -0.444696    1.522737   -0.227816
      5          6           0        0.884388   -0.601498   -0.554893
      6          7           0        2.084231   -0.027463    0.065432
      7          1           0       -2.561330   -0.263465   -0.361326
      8          1           0       -1.608745   -1.733195   -0.606837
      9          1           0       -1.565086   -0.437199   -1.812942
     10          1           0       -0.607110   -1.371838    1.695016
     11          1           0        0.350396    0.076496    2.037913
     12          1           0       -1.422462    0.178915    1.941798
     13          1           0       -0.330609    1.764635   -1.291499
     14          1           0       -1.392546    1.955862    0.109409
     15          1           0        0.357398    2.021653    0.325340
     16          1           0        0.870822   -0.498509   -1.654544
     17          1           0        0.887442   -1.677850   -0.343622
     18          1           0        2.889960   -0.607501   -0.143749
     19          1           0        2.284053    0.882486   -0.337357
 ---------------------------------------------------------------------

 SCF Done:  E(RHF) =  -251.465373326     A.U. after    8 cycles

 The electronic state is 1-A.
 Alpha  occ. eigenvalues --  -15.53613 -11.24301 -11.22736 -11.20748 -11.20713
 Alpha  occ. eigenvalues --  -11.19809  -1.17821  -1.07942  -0.92699  -0.92109
 Alpha  occ. eigenvalues --   -0.88908  -0.72644  -0.66170  -0.62726  -0.60741
 Alpha  occ. eigenvalues --   -0.59038  -0.56679  -0.53940  -0.52304  -0.50892
 Alpha  occ. eigenvalues --   -0.50543  -0.45984  -0.45252  -0.44776  -0.38731
 Alpha virt. eigenvalues --    0.03376   0.04201   0.04244   0.04533   0.06644
 Alpha virt. eigenvalues --    0.06738   0.06828   0.07466   0.07726   0.09684
 Alpha virt. eigenvalues --    0.09885   0.10094   0.10255   0.12129   0.12339

 Mulliken charges:
               1
     1  C   -0.582588
     2  C    0.428233
     3  C   -0.603098
     4  C   -0.620167
     5  C   -0.254698
     6  N   -0.707159
     7  H    0.162648
     8  H    0.157301
     9  H    0.156707
    10  H    0.152763
    11  H    0.199112
    12  H    0.157846
    13  H    0.162703
    14  H    0.165200
    15  H    0.172198
    16  H    0.131744
    17  H    0.151619
    18  H    0.285347
    19  H    0.284290
 Sum of Mulliken charges =  -0.00000

 Dipole moment (field-independent basis, Debye):
    X=              0.3912    Y=             -0.0789    Z=             -1.2284  Tot=              1.2916
 Quadrupole moment (field-independent basis, Debye-Ang):
   XX=            -39.3114   YY=            -40.2356   ZZ=            -42.9690
   XY=             -0.4759   XZ=             -2.8949   YZ=             -0.2322

 Normal termination of Gaussian 09 at Fri Aug 26 14:25:54 2022.
