 Gaussian 09, Revision E.01,
 Gaussian 09:  ES64L-G09RevE.01 30-Nov-2015

 -----
 #P G4
 -----

 --------
 Frag_648
 --------
 Symbolic Z-matrix:
 Charge =  0 Multiplicity = 1

 SCF Done:  E(RB3LYP) =  -291.218416360     A.U. after   13 cycles
 SCF Done:  E(RB3LYP) =  -291.226903885     A.U. after   12 cycles
 SCF Done:  E(RB3LYP) =  -291.227081565     A.U. after   11 cycles
 SCF Done:  E(RB3LYP) =  -291.227109030     A.U. after    9 cycles
 SCF Done:  E(RB3LYP) =  -291.227111175     A.U. after    7 cycles
 SCF Done:  E(RB3LYP) =  -291.227111280     A.U. after    6 cycles
 SCF Done:  E(RB3LYP) =  -291.227111349     A.U. after    6 cycles
 SCF Done:  E(RB3LYP) =  -291.227111679     A.U. after    7 cycles
 SCF Done:  E(RB3LYP) =  -291.213584363     A.U. after   12 cycles
 SCF Done:  E(RB3LYP) =  -291.227111839     A.U. after    7 cycles
 SCF Done:  E(RB3LYP) =  -291.229480602     A.U. after    9 cycles
 SCF Done:  E(RB3LYP) =  -291.229480850     A.U. after    6 cycles
 SCF Done:  E(RB3LYP) =  -291.229480995     A.U. after    7 cycles
 Optimization completed.
    -- Stationary point found.
 Normal termination of Gaussian 09 at Fri Aug 26 10:51:04 2022.

 ----------------------------------------------------------
 #P Geom=AllCheck Guess=TCheck SCRF=Check B3LYP/GTBas3 Freq
 ----------------------------------------------------------

 Structure from the checkpoint file:  "G4.Frag_648.chk"
 --------
 Frag_648
 --------
 Charge =  0 Multiplicity = 1

 SCF Done:  E(RB3LYP) =  -291.229480995     A.U. after    1 cycles

  Exact polarizability:  79.030   4.808  80.383  -0.180   0.371  58.644
 Approx polarizability: 107.123   9.752 123.527   0.030  -0.340  83.775

                      1                      2                      3
                      A                      A                      A
 Frequencies --     63.1870               196.4923               253.6681
 Red. masses --      2.9444                 1.1508                 1.0628
 Frc consts  --      0.0069                 0.0262                 0.0403
 IR Inten    --      1.0872                 0.3577                 0.2694

                      4                      5                      6
                      A                      A                      A
 Frequencies --    273.2492               287.9611               306.1864
 Red. masses --      1.8425                 2.0737                 1.1213
 Frc consts  --      0.0811                 0.1013                 0.0619
 IR Inten    --      0.7732                 4.5701                13.1415

                      7                      8                      9
                      A                      A                      A
 Frequencies --    322.8841               350.1194               376.2235
 Red. masses --      1.1573                 2.4398                 2.1698
 Frc consts  --      0.0711                 0.1762                 0.1809
 IR Inten    --     18.2104                 0.7230                 1.2503

                     10                     11                     12
                      A                      A                      A
 Frequencies --    389.3829               485.9858               498.0087
 Red. masses --      2.5633                 2.7962                 2.1999
 Frc consts  --      0.2290                 0.3891                 0.3215
 IR Inten    --      1.3240                 2.9353                 6.4542

                     13                     14                     15
                      A                      A                      A
 Frequencies --    619.8610               683.5959               687.1295
 Red. masses --      1.6416                 1.4217                 2.8744
 Frc consts  --      0.3716                 0.3914                 0.7996
 IR Inten    --    133.6689                32.2207                 2.2232

                     16                     17                     18
                      A                      A                      A
 Frequencies --    760.3498               826.6012               862.1832
 Red. masses --      1.4503                 1.5137                 2.2371
 Frc consts  --      0.4940                 0.6094                 0.9798
 IR Inten    --     40.3445                59.0298                 2.2486

                     19                     20                     21
                      A                      A                      A
 Frequencies --    929.4286               943.0927               959.4788
 Red. masses --      1.7865                 1.6838                 1.2022
 Frc consts  --      0.9092                 0.8824                 0.6520
 IR Inten    --      0.2401                 0.9835                 0.0421

                     22                     23                     24
                      A                      A                      A
 Frequencies --    996.9515              1042.4710              1047.9154
 Red. masses --      1.5426                 1.3931                 1.3978
 Frc consts  --      0.9033                 0.8920                 0.9044
 IR Inten    --      4.3906                 0.7223                 0.2879

                     25                     26                     27
                      A                      A                      A
 Frequencies --   1127.1310              1226.0244              1234.8347
 Red. masses --      1.5011                 2.6769                 2.3931
 Frc consts  --      1.1236                 2.3707                 2.1500
 IR Inten    --      2.6178                 5.8658                10.3145

                     28                     29                     30
                      A                      A                      A
 Frequencies --   1246.4833              1351.7327              1395.9634
 Red. masses --      2.3996                 3.0285                 1.2153
 Frc consts  --      2.1966                 3.2603                 1.3953
 IR Inten    --     15.4870                24.7629                 3.6448

                     31                     32                     33
                      A                      A                      A
 Frequencies --   1397.5823              1429.0531              1454.9783
 Red. masses --      1.2498                 1.2313                 1.1654
 Frc consts  --      1.4383                 1.4816                 1.4536
 IR Inten    --      2.7208                 5.8928                 1.0067

                     34                     35                     36
                      A                      A                      A
 Frequencies --   1477.2625              1484.5558              1492.6261
 Red. masses --      1.0498                 1.0463                 1.0485
 Frc consts  --      1.3499                 1.3586                 1.3763
 IR Inten    --      0.0836                 0.0487                 0.5485

                     37                     38                     39
                      A                      A                      A
 Frequencies --   1499.3798              1505.8986              1523.6091
 Red. masses --      1.0521                 1.0538                 1.0714
 Frc consts  --      1.3935                 1.4080                 1.4654
 IR Inten    --      2.9637                 4.8916                 9.7967

                     40                     41                     42
                      A                      A                      A
 Frequencies --   1651.3060              1704.6446              3027.9370
 Red. masses --      1.1569                 4.6793                 1.0348
 Frc consts  --      1.8587                 8.0111                 5.5896
 IR Inten    --     45.5892                90.5434                28.6426

                     43                     44                     45
                      A                      A                      A
 Frequencies --   3032.7758              3039.1307              3090.2097
 Red. masses --      1.0353                 1.0361                 1.1000
 Frc consts  --      5.6105                 5.6385                 6.1890
 IR Inten    --     21.7284                16.1654                27.6399

                     46                     47                     48
                      A                      A                      A
 Frequencies --   3100.0121              3102.6465              3108.1333
 Red. masses --      1.1014                 1.1019                 1.1013
 Frc consts  --      6.2365                 6.2499                 6.2682
 IR Inten    --      2.1220                15.2488                56.4618

                     49                     50                     51
                      A                      A                      A
 Frequencies --   3112.4778              3120.6176              3156.5911
 Red. masses --      1.1017                 1.1004                 1.0676
 Frc consts  --      6.2884                 6.3136                 6.2677
 IR Inten    --     30.7312                26.1703                12.9418

                     52                     53                     54
                      A                      A                      A
 Frequencies --   3268.0251              3550.1418              3644.6014
 Red. masses --      1.1063                 1.0472                 1.0961
 Frc consts  --      6.9616                 7.7762                 8.5787
 IR Inten    --      6.9979                 3.1105                 5.7882

 - Thermochemistry -
 -------------------
 Temperature   298.150 Kelvin.  Pressure   1.00000 Atm.
 Atom     1 has atomic number  6 and mass  12.00000

 Molecular mass:    99.10480 amu.
 Principal axes and moments of inertia in atomic units:
                           1         2         3
     Eigenvalues --   567.91212 784.12844 949.58025
           X            0.99995   0.00697  -0.00738
           Y           -0.00682   0.99979   0.01941
           Z            0.00751  -0.01936   0.99978
 This molecule is an asymmetric top.
 Rotational symmetry number  1.
 Warning -- assumption of classical behavior for rotation
           may cause significant error
 Rotational temperatures (Kelvin)      0.15251     0.11046     0.09121
 Rotational constants (GHZ):           3.17785     2.30159     1.90057
 Zero-point vibrational energy     476824.1 (Joules/Mol)
                                  113.96371 (Kcal/Mol)
 Warning -- explicit consideration of  13 degrees of freedom as
           vibrations may cause significant error
 Vibrational temperatures:     90.91   282.71   364.97   393.14   414.31
          (Kelvin)            440.53   464.56   503.74   541.30   560.23
                              699.22   716.52   891.84   983.54   988.62
                             1093.97  1189.29  1240.49  1337.24  1356.90
                             1380.47  1434.39  1499.88  1507.71  1621.69
                             1763.97  1776.65  1793.41  1944.84  2008.48
                             2010.81  2056.09  2093.39  2125.45  2135.94
                             2147.55  2157.27  2166.65  2192.13  2375.86
                             2452.60  4356.52  4363.48  4372.63  4446.12
                             4460.22  4464.01  4471.90  4478.16  4489.87
                             4541.62  4701.95  5107.86  5243.76

 Zero-point correction=                           0.181613 (Hartree/Particle)
 Thermal correction to Energy=                    0.190454
 Thermal correction to Enthalpy=                  0.191398
 Thermal correction to Gibbs Free Energy=         0.149412
 Sum of electronic and zero-point Energies=           -291.047868
 Sum of electronic and thermal Energies=              -291.039027
 Sum of electronic and thermal Enthalpies=            -291.038083
 Sum of electronic and thermal Free Energies=         -291.080069

                     E (Thermal)             CV                S
                      KCal/Mol        Cal/Mol-Kelvin    Cal/Mol-Kelvin
 Total                  119.512             34.187             88.367
 Electronic               0.000              0.000              0.000
 Translational            0.889              2.981             39.691
 Rotational               0.889              2.981             27.538
 Vibrational            117.734             28.226             21.137
 Vibration     1          0.597              1.972              4.355
 Vibration     2          0.636              1.845              2.166
 Vibration     3          0.665              1.757              1.705
 Vibration     4          0.676              1.723              1.576
 Vibration     5          0.685              1.696              1.486
 Vibration     6          0.697              1.662              1.383
 Vibration     7          0.708              1.630              1.295
 Vibration     8          0.727              1.575              1.166
 Vibration     9          0.747              1.521              1.054
 Vibration    10          0.757              1.493              1.003
 Vibration    11          0.842              1.281              0.694
 Vibration    12          0.853              1.254              0.663
 Vibration    13          0.980              0.990              0.417

 Optimization completed.
    -- Stationary point found.
 Normal termination of Gaussian 09 at Fri Aug 26 10:52:07 2022.

 -----------------------------------------------------------------
 #P Geom=AllCheck Guess=TCheck SCRF=Check CCSD(T,E4T,FrzG4)/GTBas1
 -----------------------------------------------------------------

 Structure from the checkpoint file:  "G4.Frag_648.chk"
 --------
 Frag_648
 --------
 Charge =  0 Multiplicity = 1

 SCF Done:  E(RHF) =  -289.199360851     A.U. after   12 cycles
 E2 =    -0.9523437297D+00 EUMP2 =    -0.29015170458100D+03
 CCSD(T)
 CCSD(T)= -0.29025964314D+03
 03\CCSD=-290.2261864\CCSD(T)=-290.2596431\RMSD=7.208e-09\PG=C01 [X(C6H
 Normal termination of Gaussian 09 at Fri Aug 26 10:57:09 2022.

 ---------------------------------------------------------
 #P Geom=AllCheck Guess=TCheck SCRF=Check MP4=FrzG4/GTBas2
 ---------------------------------------------------------

 Structure from the checkpoint file:  "G4.Frag_648.chk"
 --------
 Frag_648
 --------
 Charge =  0 Multiplicity = 1

 SCF Done:  E(RHF) =  -289.206791910     A.U. after   13 cycles
 E2 =    -0.9646283204D+00 EUMP2 =    -0.29017142023055D+03
 Normal termination of Gaussian 09 at Fri Aug 26 10:58:46 2022.

 ---------------------------------------------------------
 #P Geom=AllCheck Guess=TCheck SCRF=Check MP4=FrzG4/GTBas3
 ---------------------------------------------------------

 Structure from the checkpoint file:  "G4.Frag_648.chk"
 --------
 Frag_648
 --------
 Charge =  0 Multiplicity = 1

 SCF Done:  E(RHF) =  -289.240028794     A.U. after   10 cycles
 E2 =    -0.1179595224D+01 EUMP2 =    -0.29041962401775D+03
 Normal termination of Gaussian 09 at Fri Aug 26 11:11:53 2022.

 -----------------------------------------------------------
 #P Geom=AllCheck Guess=TCheck SCRF=Check MP2=Full/GTLargeXP
 -----------------------------------------------------------

 Structure from the checkpoint file:  "G4.Frag_648.chk"
 --------
 Frag_648
 --------
 Charge =  0 Multiplicity = 1

 SCF Done:  E(RHF) =  -289.304350707     A.U. after   12 cycles
 E2 =    -0.1553579721D+01 EUMP2 =    -0.29085793042730D+03
 Normal termination of Gaussian 09 at Fri Aug 26 11:16:45 2022.
 SCF Done:  E(RHF) =  -289.327207035     A.U. after    8 cycles
 Normal termination of Gaussian 09 at Fri Aug 26 11:21:25 2022.

                         Standard orientation:
 ---------------------------------------------------------------------
 Center     Atomic      Atomic             Coordinates (Angstroms)
 Number     Number       Type             X           Y           Z
 ---------------------------------------------------------------------
      1          6           0        1.625660    1.281487   -0.021465
      2          6           0        0.955333    0.122404   -0.003019
      3          7           0        1.626606   -1.108578    0.088086
      4          6           0       -0.572449    0.005759    0.004258
      5          6           0       -1.038252   -0.774366   -1.249049
      6          6           0       -1.025304   -0.747339    1.275768
      7          6           0       -1.249472    1.385751   -0.017060
      8          1           0        2.711250    1.297123   -0.035093
      9          1           0        1.128872    2.238571    0.009343
     10          1           0        2.615643   -1.042632   -0.110852
     11          1           0        1.209143   -1.859197   -0.443532
     12          1           0       -0.679948   -1.809601   -1.260803
     13          1           0       -0.693612   -0.285863   -2.165934
     14          1           0       -2.131854   -0.819738   -1.278788
     15          1           0       -2.114179   -0.866872    1.279826
     16          1           0       -0.739767   -0.192136    2.174618
     17          1           0       -0.569935   -1.738275    1.341757
     18          1           0       -2.337396    1.262984   -0.013559
     19          1           0       -0.979468    1.955107   -0.911413
     20          1           0       -0.978084    1.978393    0.861228
 ---------------------------------------------------------------------

 SCF Done:  E(RHF) =  -289.331960266     A.U. after    8 cycles

 The electronic state is 1-A.
 Alpha  occ. eigenvalues --  -15.55323 -11.26577 -11.24399 -11.21921 -11.21010
 Alpha  occ. eigenvalues --  -11.21005 -11.19088  -1.21247  -1.09078  -0.98336
 Alpha  occ. eigenvalues --   -0.93262  -0.92597  -0.81803  -0.71452  -0.68569
 Alpha  occ. eigenvalues --   -0.63740  -0.60129  -0.59508  -0.58146  -0.55920
 Alpha  occ. eigenvalues --   -0.54345  -0.52202  -0.51405  -0.48761  -0.46627
 Alpha  occ. eigenvalues --   -0.46062  -0.45142  -0.31347
 Alpha virt. eigenvalues --    0.03207   0.04125   0.04288   0.04481   0.05943
 Alpha virt. eigenvalues --    0.06561   0.06806   0.07006   0.07769   0.08979
 Alpha virt. eigenvalues --    0.09442   0.09809   0.09939   0.10067   0.10942

 Mulliken charges:
               1
     1  C   -0.574750
     2  C    0.227600
     3  N   -0.762443
     4  C    0.400183
     5  C   -0.585575
     6  C   -0.561919
     7  C   -0.646185
     8  H    0.152811
     9  H    0.179322
    10  H    0.306527
    11  H    0.312623
    12  H    0.149433
    13  H    0.180527
    14  H    0.173079
    15  H    0.163860
    16  H    0.174223
    17  H    0.173259
    18  H    0.179058
    19  H    0.178820
    20  H    0.179548
 Sum of Mulliken charges =  -0.00000

 Dipole moment (field-independent basis, Debye):
    X=             -0.3001    Y=             -0.8860    Z=             -0.9566  Tot=              1.3380
 Quadrupole moment (field-independent basis, Debye-Ang):
   XX=            -44.0055   YY=            -45.5175   ZZ=            -49.2635
   XY=             -1.6009   XZ=             -1.5661   YZ=              2.1349

 Normal termination of Gaussian 09 at Fri Aug 26 11:37:26 2022.
