 Gaussian 09, Revision E.01,
 Gaussian 09:  ES64L-G09RevE.01 30-Nov-2015

 -----
 #P G4
 -----

 --------
 Frag_623
 --------
 Symbolic Z-matrix:
 Charge =  0 Multiplicity = 1

 SCF Done:  E(RB3LYP) =  -319.914225591     A.U. after   14 cycles
 SCF Done:  E(RB3LYP) =  -319.929146487     A.U. after   13 cycles
 SCF Done:  E(RB3LYP) =  -319.930143642     A.U. after   12 cycles
 SCF Done:  E(RB3LYP) =  -319.930466048     A.U. after   11 cycles
 SCF Done:  E(RB3LYP) =  -319.930570152     A.U. after   12 cycles
 SCF Done:  E(RB3LYP) =  -319.931470165     A.U. after   11 cycles
 SCF Done:  E(RB3LYP) =  -319.934288018     A.U. after   12 cycles
 SCF Done:  E(RB3LYP) =  -319.911282877     A.U. after   13 cycles
 SCF Done:  E(RB3LYP) =  -319.934407604     A.U. after    8 cycles
 SCF Done:  E(RB3LYP) =  -319.938906187     A.U. after   12 cycles
 SCF Done:  E(RB3LYP) =  -319.943034414     A.U. after    8 cycles
 SCF Done:  E(RB3LYP) =  -319.943034953     A.U. after    7 cycles
 SCF Done:  E(RB3LYP) =  -319.943035329     A.U. after    7 cycles
 Optimization completed.
    -- Stationary point found.
 Normal termination of Gaussian 09 at Wed Aug 24 01:53:31 2022.

 ----------------------------------------------------------
 #P Geom=AllCheck Guess=TCheck SCRF=Check B3LYP/GTBas3 Freq
 ----------------------------------------------------------

 Structure from the checkpoint file:  "G4.Frag_623.chk"
 --------
 Frag_623
 --------
 Charge =  0 Multiplicity = 1

 SCF Done:  E(RB3LYP) =  -319.943035329     A.U. after    1 cycles

  Exact polarizability:  52.013  -1.615  52.948   1.957   0.170  34.111
 Approx polarizability:  67.667   0.495  82.281   3.016   1.891  51.572

                      1                      2                      3
                      A                      A                      A
 Frequencies --     79.3112               262.5063               294.7188
 Red. masses --      5.3749                 1.2876                 1.0919
 Frc consts  --      0.0199                 0.0523                 0.0559
 IR Inten    --      2.6802                23.7500                16.0205

                      4                      5                      6
                      A                      A                      A
 Frequencies --    306.8188               341.7440               399.2736
 Red. masses --      3.2188                 1.6673                 1.7567
 Frc consts  --      0.1785                 0.1147                 0.1650
 IR Inten    --     34.5808                70.0576               103.8185

                      7                      8                      9
                      A                      A                      A
 Frequencies --    485.1689               502.2727               547.2983
 Red. masses --      2.7594                 2.6979                 4.2006
 Frc consts  --      0.3827                 0.4010                 0.7413
 IR Inten    --     33.9847                24.3471                10.0374

                     10                     11                     12
                      A                      A                      A
 Frequencies --    665.9211               736.8647               816.5367
 Red. masses --      1.3952                 2.0188                 2.8268
 Frc consts  --      0.3645                 0.6458                 1.1104
 IR Inten    --     23.0717                 5.4549                12.9012

                     13                     14                     15
                      A                      A                      A
 Frequencies --    887.4701               899.6689              1067.0931
 Red. masses --      1.4061                 2.0758                 1.7815
 Frc consts  --      0.6525                 0.9899                 1.1952
 IR Inten    --    162.9425                95.3218                27.9454

                     16                     17                     18
                      A                      A                      A
 Frequencies --   1107.7021              1120.9243              1191.5975
 Red. masses --      1.8301                 2.0354                 1.3208
 Frc consts  --      1.3230                 1.5068                 1.1049
 IR Inten    --      9.2846                31.7248                 1.1712

                     19                     20                     21
                      A                      A                      A
 Frequencies --   1231.3752              1334.7143              1383.4098
 Red. masses --      1.6011                 1.9236                 1.4295
 Frc consts  --      1.4304                 2.0191                 1.6119
 IR Inten    --     20.5221                88.0303                 7.7528

                     22                     23                     24
                      A                      A                      A
 Frequencies --   1440.4067              1579.5279              1638.3405
 Red. masses --      1.7030                 1.3358                 1.1212
 Frc consts  --      2.0818                 1.9636                 1.7731
 IR Inten    --     12.6442               134.2159               102.1681

                     25                     26                     27
                      A                      A                      A
 Frequencies --   1666.6087              1800.0975              2960.5318
 Red. masses --      1.0966                 8.2736                 1.0814
 Frc consts  --      1.7946                15.7957                 5.5846
 IR Inten    --     27.2846               252.9025                46.0492

                     28                     29                     30
                      A                      A                      A
 Frequencies --   3479.8068              3484.9805              3560.7691
 Red. masses --      1.0505                 1.0504                 1.0908
 Frc consts  --      7.4946                 7.5164                 8.1486
 IR Inten    --      1.5813                20.4841                 2.7902

                     31                     32                     33
                      A                      A                      A
 Frequencies --   3578.7407              3580.3738              3727.5424
 Red. masses --      1.0905                 1.0444                 1.1047
 Frc consts  --      8.2287                 7.8883                 9.0434
 IR Inten    --     11.1084                44.5777                76.9811

 - Thermochemistry -
 -------------------
 Temperature   298.150 Kelvin.  Pressure   1.00000 Atm.
 Atom     1 has atomic number  7 and mass  14.00307

 Molecular mass:    89.05891 amu.
 Principal axes and moments of inertia in atomic units:
                           1         2         3
     Eigenvalues --   363.93317 516.70471 836.07046
           X            0.99647  -0.08326   0.01095
           Y            0.08339   0.99645  -0.01159
           Z           -0.00995   0.01246   0.99987
 This molecule is an asymmetric top.
 Rotational symmetry number  1.
 Rotational temperatures (Kelvin)      0.23799     0.16763     0.10360
 Rotational constants (GHZ):           4.95899     3.49279     2.15860
 Zero-point vibrational energy     288061.5 (Joules/Mol)
                                   68.84834 (Kcal/Mol)
 Warning -- explicit consideration of   9 degrees of freedom as
           vibrations may cause significant error
 Vibrational temperatures:    114.11   377.69   424.03   441.44   491.69
          (Kelvin)            574.46   698.05   722.66   787.44   958.11
                             1060.18  1174.81  1276.87  1294.42  1535.31
                             1593.73  1612.76  1714.44  1771.67  1920.35
                             1990.42  2072.42  2272.59  2357.20  2397.88
                             2589.94  4259.54  5006.66  5014.10  5123.15
                             5149.00  5151.35  5363.10

 Zero-point correction=                           0.109717 (Hartree/Particle)
 Thermal correction to Energy=                    0.116514
 Thermal correction to Enthalpy=                  0.117458
 Thermal correction to Gibbs Free Energy=         0.079533
 Sum of electronic and zero-point Energies=           -319.833319
 Sum of electronic and thermal Energies=              -319.826522
 Sum of electronic and thermal Enthalpies=            -319.825577
 Sum of electronic and thermal Free Energies=         -319.863503

                     E (Thermal)             CV                S
                      KCal/Mol        Cal/Mol-Kelvin    Cal/Mol-Kelvin
 Total                   73.113             24.792             79.820
 Electronic               0.000              0.000              0.000
 Translational            0.889              2.981             39.373
 Rotational               0.889              2.981             26.555
 Vibrational             71.336             18.831             13.892
 Vibration     1          0.600              1.963              3.908
 Vibration     2          0.670              1.742              1.645
 Vibration     3          0.689              1.684              1.447
 Vibration     4          0.697              1.661              1.379
 Vibration     5          0.721              1.592              1.204
 Vibration     6          0.765              1.472              0.965
 Vibration     7          0.841              1.283              0.696
 Vibration     8          0.858              1.245              0.652
 Vibration     9          0.903              1.146              0.550

 Optimization completed.
    -- Stationary point found.
 Normal termination of Gaussian 09 at Wed Aug 24 01:55:35 2022.

 -----------------------------------------------------------------
 #P Geom=AllCheck Guess=TCheck SCRF=Check CCSD(T,E4T,FrzG4)/GTBas1
 -----------------------------------------------------------------

 Structure from the checkpoint file:  "G4.Frag_623.chk"
 --------
 Frag_623
 --------
 Charge =  0 Multiplicity = 1

 SCF Done:  E(RHF) =  -318.024892511     A.U. after   13 cycles
 E2 =    -0.9232083911D+00 EUMP2 =    -0.31894810090242D+03
 CCSD(T)
 CCSD(T)= -0.31901630271D+03
 DTQ=-319.0190387\MP4SDQ=-318.9888927\CCSD=-318.9878794\CCSD(T)=-319.01
 Normal termination of Gaussian 09 at Wed Aug 24 02:00:57 2022.

 ---------------------------------------------------------
 #P Geom=AllCheck Guess=TCheck SCRF=Check MP4=FrzG4/GTBas2
 ---------------------------------------------------------

 Structure from the checkpoint file:  "G4.Frag_623.chk"
 --------
 Frag_623
 --------
 Charge =  0 Multiplicity = 1

 SCF Done:  E(RHF) =  -318.038164328     A.U. after   13 cycles
 E2 =    -0.9396239185D+00 EUMP2 =    -0.31897778824693D+03
 Normal termination of Gaussian 09 at Wed Aug 24 02:06:21 2022.

 ---------------------------------------------------------
 #P Geom=AllCheck Guess=TCheck SCRF=Check MP4=FrzG4/GTBas3
 ---------------------------------------------------------

 Structure from the checkpoint file:  "G4.Frag_623.chk"
 --------
 Frag_623
 --------
 Charge =  0 Multiplicity = 1

 SCF Done:  E(RHF) =  -318.069482379     A.U. after   12 cycles
 E2 =    -0.1126208106D+01 EUMP2 =    -0.31919569048497D+03
 Normal termination of Gaussian 09 at Wed Aug 24 04:22:12 2022.

 -----------------------------------------------------------
 #P Geom=AllCheck Guess=TCheck SCRF=Check MP2=Full/GTLargeXP
 -----------------------------------------------------------

 Structure from the checkpoint file:  "G4.Frag_623.chk"
 --------
 Frag_623
 --------
 Charge =  0 Multiplicity = 1

 SCF Done:  E(RHF) =  -318.157606577     A.U. after   13 cycles
 E2 =    -0.1469098921D+01 EUMP2 =    -0.31962670549732D+03
 Normal termination of Gaussian 09 at Wed Aug 24 04:27:26 2022.
 SCF Done:  E(RHF) =  -318.182181493     A.U. after    9 cycles
 Normal termination of Gaussian 09 at Wed Aug 24 04:32:46 2022.

                         Standard orientation:
 ---------------------------------------------------------------------
 Center     Atomic      Atomic             Coordinates (Angstroms)
 Number     Number       Type             X           Y           Z
 ---------------------------------------------------------------------
      1          7           0        1.512020   -0.985515    0.006848
      2          6           0        0.808652    0.167508   -0.056500
      3          8           0        1.292111    1.280899    0.055461
      4          6           0       -0.698270   -0.030818   -0.354560
      5          7           0       -1.412651    1.095447    0.222949
      6          7           0       -1.150470   -1.339491    0.129780
      7          1           0        2.493775   -0.948627    0.222607
      8          1           0        1.000392   -1.853788    0.029086
      9          1           0       -0.767822   -0.076540   -1.454590
     10          1           0       -2.206232    1.360957   -0.348969
     11          1           0       -0.769606    1.883615    0.258198
     12          1           0       -2.026352   -1.585954   -0.320767
     13          1           0       -1.365631   -1.240078    1.120061
 ---------------------------------------------------------------------

 SCF Done:  E(RHF) =  -318.187476996     A.U. after    8 cycles

 The electronic state is 1-A.
 Alpha  occ. eigenvalues --  -20.51937 -15.57808 -15.55922 -15.54356 -11.34937
 Alpha  occ. eigenvalues --  -11.30470  -1.38483  -1.23890  -1.20656  -1.13738
 Alpha  occ. eigenvalues --   -0.92180  -0.78265  -0.74047  -0.70564  -0.67597
 Alpha  occ. eigenvalues --   -0.63276  -0.61521  -0.60252  -0.55386  -0.54103
 Alpha  occ. eigenvalues --   -0.45478  -0.42717  -0.41447  -0.39776
 Alpha virt. eigenvalues --    0.03331   0.04296   0.05132   0.05498   0.07185
 Alpha virt. eigenvalues --    0.07561   0.07812   0.09337   0.09778   0.11620
 Alpha virt. eigenvalues --    0.11720   0.12824   0.13070   0.13548   0.13721

 Mulliken charges:
               1
     1  N   -0.739059
     2  C    0.562777
     3  O   -0.645987
     4  C    0.151067
     5  N   -0.722053
     6  N   -0.733999
     7  H    0.357446
     8  H    0.373465
     9  H    0.159555
    10  H    0.287504
    11  H    0.340939
    12  H    0.295922
    13  H    0.312423
 Sum of Mulliken charges =  -0.00000

 Dipole moment (field-independent basis, Debye):
    X=             -1.8117    Y=             -2.7353    Z=             -0.9831  Tot=              3.4250
 Quadrupole moment (field-independent basis, Debye-Ang):
   XX=            -32.0842   YY=            -38.1194   ZZ=            -36.5200
   XY=             -4.9340   XZ=              3.4369   YZ=             -2.2751

 Normal termination of Gaussian 09 at Wed Aug 24 06:57:50 2022.
