 Gaussian 09, Revision E.01,
 Gaussian 09:  ES64L-G09RevE.01 30-Nov-2015

 -----
 #P G4
 -----

 --------
 Frag_635
 --------
 Symbolic Z-matrix:
 Charge =  0 Multiplicity = 1

 SCF Done:  E(RB3LYP) =  -346.997881059     A.U. after   14 cycles
 SCF Done:  E(RB3LYP) =  -347.003824177     A.U. after   12 cycles
 SCF Done:  E(RB3LYP) =  -347.005755289     A.U. after   12 cycles
 SCF Done:  E(RB3LYP) =  -347.006565382     A.U. after   12 cycles
 SCF Done:  E(RB3LYP) =  -347.006853802     A.U. after   10 cycles
 SCF Done:  E(RB3LYP) =  -347.007112321     A.U. after   11 cycles
 SCF Done:  E(RB3LYP) =  -347.000320827     A.U. after   15 cycles
 SCF Done:  E(RB3LYP) =  -347.007449369     A.U. after   11 cycles
 SCF Done:  E(RB3LYP) =  -347.007886556     A.U. after   11 cycles
 SCF Done:  E(RB3LYP) =  -347.008629750     A.U. after   11 cycles
 SCF Done:  E(RB3LYP) =  -347.009362036     A.U. after    8 cycles
 SCF Done:  E(RB3LYP) =  -347.009363051     A.U. after    7 cycles
 SCF Done:  E(RB3LYP) =  -347.009363451     A.U. after    6 cycles
 Optimization completed.
    -- Stationary point found.
 Normal termination of Gaussian 09 at Sat Aug 20 09:53:33 2022.

 ----------------------------------------------------------
 #P Geom=AllCheck Guess=TCheck SCRF=Check B3LYP/GTBas3 Freq
 ----------------------------------------------------------

 Structure from the checkpoint file:  "G4.Frag_635.chk"
 --------
 Frag_635
 --------
 Charge =  0 Multiplicity = 1

 SCF Done:  E(RB3LYP) =  -347.009363451     A.U. after    1 cycles

  Exact polarizability:  68.157   4.585  68.481  -0.404   0.532  49.638
 Approx polarizability:  90.439  10.349 104.105   1.604   3.396  72.281

                      1                      2                      3
                      A                      A                      A
 Frequencies --     57.5701               180.0461               219.9688
 Red. masses --      3.2008                 1.0614                 1.4859
 Frc consts  --      0.0063                 0.0203                 0.0424
 IR Inten    --      0.5530                 0.1148                 0.7669

                      4                      5                      6
                      A                      A                      A
 Frequencies --    269.1234               279.8160               291.8446
 Red. masses --      2.0061                 2.2897                 1.0852
 Frc consts  --      0.0856                 0.1056                 0.0545
 IR Inten    --      1.3720                 0.5522                99.0057

                      7                      8                      9
                      A                      A                      A
 Frequencies --    365.4145               383.4832               403.0425
 Red. masses --      2.7515                 2.1003                 1.7449
 Frc consts  --      0.2165                 0.1820                 0.1670
 IR Inten    --      6.0748                 7.2729                39.0380

                     10                     11                     12
                      A                      A                      A
 Frequencies --    455.5679               521.4866               554.7778
 Red. masses --      2.1873                 3.0939                 3.1952
 Frc consts  --      0.2675                 0.4957                 0.5794
 IR Inten    --     20.9308                16.6463                41.7021

                     13                     14                     15
                      A                      A                      A
 Frequencies --    582.5575               712.0592               757.3116
 Red. masses --      2.4468                 3.6065                 1.1670
 Frc consts  --      0.4892                 1.0774                 0.3943
 IR Inten    --     23.6855                 3.2182                 0.9878

                     16                     17                     18
                      A                      A                      A
 Frequencies --    910.2704               940.1727               957.5498
 Red. masses --      2.5676                 2.2141                 1.3484
 Frc consts  --      1.2535                 1.1531                 0.7284
 IR Inten    --     19.4905                59.7403                27.2470

                     19                     20                     21
                      A                      A                      A
 Frequencies --    962.1499              1016.7092              1059.2416
 Red. masses --      1.7021                 1.3948                 1.7293
 Frc consts  --      0.9284                 0.8495                 1.1432
 IR Inten    --     10.3512                10.2763                39.5337

                     22                     23                     24
                      A                      A                      A
 Frequencies --   1074.8493              1129.0343              1164.5929
 Red. masses --      1.4904                 2.0854                 2.9023
 Frc consts  --      1.0145                 1.5662                 2.3192
 IR Inten    --      4.5345               126.2028                86.9775

                     25                     26                     27
                      A                      A                      A
 Frequencies --   1275.3226              1342.8798              1389.7737
 Red. masses --      2.0588                 1.5585                 1.4834
 Frc consts  --      1.9729                 1.6559                 1.6881
 IR Inten    --     19.7210                11.7822                43.1539

                     28                     29                     30
                      A                      A                      A
 Frequencies --   1404.5809              1411.6750              1449.9038
 Red. masses --      1.2786                 1.4650                 1.2110
 Frc consts  --      1.4862                 1.7201                 1.5000
 IR Inten    --      3.3022                37.9146                22.9294

                     31                     32                     33
                      A                      A                      A
 Frequencies --   1475.4770              1483.2857              1497.2664
 Red. masses --      1.0467                 1.0725                 1.0532
 Frc consts  --      1.3426                 1.3903                 1.3912
 IR Inten    --      5.1886                 8.0405                 7.1582

                     34                     35                     36
                      A                      A                      A
 Frequencies --   1505.7883              1721.4389              3030.7901
 Red. masses --      1.0848                 5.7666                 1.0393
 Frc consts  --      1.4491                10.0683                 5.6247
 IR Inten    --      9.2989                 3.5554                18.4919

                     37                     38                     39
                      A                      A                      A
 Frequencies --   3046.5437              3086.5921              3120.2433
 Red. masses --      1.0380                 1.0948                 1.0979
 Frc consts  --      5.6761                 6.1454                 6.2978
 IR Inten    --     13.5012                16.8502                27.0965

                     40                     41                     42
                      A                      A                      A
 Frequencies --   3122.6989              3145.5611              3153.4466
 Red. masses --      1.1013                 1.1031                 1.0639
 Frc consts  --      6.3274                 6.4308                 6.2334
 IR Inten    --      8.8078                13.8942                12.7349

                     43                     44                     45
                      A                      A                      A
 Frequencies --   3253.2969              3787.6764              3810.6397
 Red. masses --      1.1111                 1.0655                 1.0656
 Frc consts  --      6.9287                 9.0062                 9.1164
 IR Inten    --      3.8897                17.9814                21.2356

 - Thermochemistry -
 -------------------
 Temperature   298.150 Kelvin.  Pressure   1.00000 Atm.
 Atom     1 has atomic number  6 and mass  12.00000

 Molecular mass:   102.06808 amu.
 Principal axes and moments of inertia in atomic units:
                           1         2         3
     Eigenvalues --   539.67478 755.64820 931.71592
           X            0.99957  -0.00859  -0.02805
           Y            0.00706   0.99851  -0.05417
           Z            0.02847   0.05395   0.99814
 This molecule is an asymmetric top.
 Rotational symmetry number  1.
 Warning -- assumption of classical behavior for rotation
           may cause significant error
 Rotational temperatures (Kelvin)      0.16049     0.11462     0.09296
 Rotational constants (GHZ):           3.34413     2.38834     1.93701
 Zero-point vibrational energy     381390.5 (Joules/Mol)
                                   91.15453 (Kcal/Mol)
 Warning -- explicit consideration of  13 degrees of freedom as
           vibrations may cause significant error
 Vibrational temperatures:     82.83   259.05   316.49   387.21   402.59
          (Kelvin)            419.90   525.75   551.75   579.89   655.46
                              750.30   798.20   838.17  1024.49  1089.60
                             1309.67  1352.70  1377.70  1384.32  1462.82
                             1524.01  1546.47  1624.43  1675.59  1834.90
                             1932.10  1999.57  2020.88  2031.08  2086.09
                             2122.88  2134.11  2154.23  2166.49  2476.76
                             4360.63  4383.29  4440.91  4489.33  4492.86
                             4525.76  4537.10  4680.76  5449.61  5482.65

 Zero-point correction=                           0.145264 (Hartree/Particle)
 Thermal correction to Energy=                    0.153765
 Thermal correction to Enthalpy=                  0.154709
 Thermal correction to Gibbs Free Energy=         0.113073
 Sum of electronic and zero-point Energies=           -346.864099
 Sum of electronic and thermal Energies=              -346.855598
 Sum of electronic and thermal Enthalpies=            -346.854654
 Sum of electronic and thermal Free Energies=         -346.896291

                     E (Thermal)             CV                S
                      KCal/Mol        Cal/Mol-Kelvin    Cal/Mol-Kelvin
 Total                   96.489             31.817             87.632
 Electronic               0.000              0.000              0.000
 Translational            0.889              2.981             39.779
 Rotational               0.889              2.981             27.432
 Vibrational             94.712             25.856             20.421
 Vibration     1          0.596              1.974              4.539
 Vibration     2          0.629              1.867              2.328
 Vibration     3          0.647              1.811              1.959
 Vibration     4          0.674              1.730              1.602
 Vibration     5          0.680              1.711              1.535
 Vibration     6          0.687              1.689              1.463
 Vibration     7          0.739              1.543              1.099
 Vibration     8          0.753              1.505              1.025
 Vibration     9          0.768              1.464              0.952
 Vibration    10          0.814              1.349              0.779
 Vibration    11          0.876              1.202              0.607
 Vibration    12          0.910              1.129              0.534
 Vibration    13          0.939              1.069              0.481

 Optimization completed.
    -- Stationary point found.
 Normal termination of Gaussian 09 at Sat Aug 20 09:58:25 2022.

 -----------------------------------------------------------------
 #P Geom=AllCheck Guess=TCheck SCRF=Check CCSD(T,E4T,FrzG4)/GTBas1
 -----------------------------------------------------------------

 Structure from the checkpoint file:  "G4.Frag_635.chk"
 --------
 Frag_635
 --------
 Charge =  0 Multiplicity = 1

 SCF Done:  E(RHF) =  -344.858788536     A.U. after   12 cycles
 E2 =    -0.1008296879D+01 EUMP2 =    -0.34586708541543D+03
 CCSD(T)
 CCSD(T)= -0.34595904433D+03
 5.9263233\CCSD=-345.9268734\CCSD(T)=-345.9590443\RMSD=4.886e-09\PG=C01
 Normal termination of Gaussian 09 at Sat Aug 20 10:13:57 2022.

 ---------------------------------------------------------
 #P Geom=AllCheck Guess=TCheck SCRF=Check MP4=FrzG4/GTBas2
 ---------------------------------------------------------

 Structure from the checkpoint file:  "G4.Frag_635.chk"
 --------
 Frag_635
 --------
 Charge =  0 Multiplicity = 1

 SCF Done:  E(RHF) =  -344.870203350     A.U. after   12 cycles
 E2 =    -0.1024155888D+01 EUMP2 =    -0.34589435923805D+03
 Normal termination of Gaussian 09 at Sat Aug 20 10:34:26 2022.

 ---------------------------------------------------------
 #P Geom=AllCheck Guess=TCheck SCRF=Check MP4=FrzG4/GTBas3
 ---------------------------------------------------------

 Structure from the checkpoint file:  "G4.Frag_635.chk"
 --------
 Frag_635
 --------
 Charge =  0 Multiplicity = 1

 SCF Done:  E(RHF) =  -344.905628325     A.U. after   11 cycles
 E2 =    -0.1248716034D+01 EUMP2 =    -0.34615434435865D+03
 Normal termination of Gaussian 09 at Sat Aug 20 15:24:02 2022.

 -----------------------------------------------------------
 #P Geom=AllCheck Guess=TCheck SCRF=Check MP2=Full/GTLargeXP
 -----------------------------------------------------------

 Structure from the checkpoint file:  "G4.Frag_635.chk"
 --------
 Frag_635
 --------
 Charge =  0 Multiplicity = 1

 SCF Done:  E(RHF) =  -344.994675400     A.U. after   12 cycles
 E2 =    -0.1639490810D+01 EUMP2 =    -0.34663416620979D+03
 Normal termination of Gaussian 09 at Sat Aug 20 15:36:33 2022.
 SCF Done:  E(RHF) =  -345.022464731     A.U. after    8 cycles
 Normal termination of Gaussian 09 at Sat Aug 20 15:46:08 2022.

                         Standard orientation:
 ---------------------------------------------------------------------
 Center     Atomic      Atomic             Coordinates (Angstroms)
 Number     Number       Type             X           Y           Z
 ---------------------------------------------------------------------
      1          6           0        1.506352    1.354614    0.177595
      2          6           0        0.923898    0.163481    0.058899
      3          6           0        1.713962   -1.116945   -0.045492
      4          6           0       -0.593360    0.015736   -0.024666
      5          6           0       -1.168984   -0.883219    1.072020
      6          8           0       -1.160041    1.306544    0.042171
      7          8           0       -0.950663   -0.605176   -1.255372
      8          1           0        0.927457    2.265118    0.256387
      9          1           0        2.587981    1.445966    0.203439
     10          1           0        1.377823   -1.715573   -0.897971
     11          1           0        2.780124   -0.907479   -0.159430
     12          1           0        1.591061   -1.741466    0.847567
     13          1           0       -0.751077   -1.890406    1.023242
     14          1           0       -2.252857   -0.965598    0.939442
     15          1           0       -0.959789   -0.451533    2.053077
     16          1           0       -2.113534    1.191979   -0.035956
     17          1           0       -0.592772   -0.043957   -1.954322
 ---------------------------------------------------------------------

 SCF Done:  E(RHF) =  -345.028430777     A.U. after    7 cycles

 The electronic state is 1-A.
 Alpha  occ. eigenvalues --  -20.56289 -20.56244 -11.34590 -11.23756 -11.22110
 Alpha  occ. eigenvalues --  -11.22055 -11.21572  -1.41504  -1.33343  -1.08560
 Alpha  occ. eigenvalues --   -0.99876  -0.93486  -0.85531  -0.74699  -0.72022
 Alpha  occ. eigenvalues --   -0.66262  -0.63194  -0.62281  -0.58611  -0.57800
 Alpha  occ. eigenvalues --   -0.55451  -0.54068  -0.53890  -0.51626  -0.49058
 Alpha  occ. eigenvalues --   -0.48002  -0.45123  -0.35912
 Alpha virt. eigenvalues --    0.03392   0.04059   0.04431   0.04896   0.06233
 Alpha virt. eigenvalues --    0.06627   0.06892   0.07191   0.07651   0.09376
 Alpha virt. eigenvalues --    0.09670   0.09801   0.10078   0.11128   0.11684

 Mulliken charges:
               1
     1  C   -0.445418
     2  C    0.061634
     3  C   -0.599392
     4  C    0.565220
     5  C   -0.560054
     6  O   -0.644710
     7  O   -0.616153
     8  H    0.221686
     9  H    0.182978
    10  H    0.198458
    11  H    0.168525
    12  H    0.172931
    13  H    0.178151
    14  H    0.164506
    15  H    0.191611
    16  H    0.377944
    17  H    0.382086
 Sum of Mulliken charges =  -0.00000

 Dipole moment (field-independent basis, Debye):
    X=             -0.0318    Y=             -0.2909    Z=              0.1309  Tot=              0.3206
 Quadrupole moment (field-independent basis, Debye-Ang):
   XX=            -39.8380   YY=            -46.1130   ZZ=            -43.3809
   XY=             -1.5720   XZ=             -1.4185   YZ=             -2.3781

 Normal termination of Gaussian 09 at Sat Aug 20 19:59:37 2022.
