 Gaussian 09, Revision E.01,
 Gaussian 09:  ES64L-G09RevE.01 30-Nov-2015

 -----
 #P G4
 -----

 --------
 Frag_886
 --------
 Symbolic Z-matrix:
 Charge =  0 Multiplicity = 1

 SCF Done:  E(RB3LYP) =  -384.132116722     A.U. after   12 cycles
 SCF Done:  E(RB3LYP) =  -384.138133208     A.U. after   11 cycles
 SCF Done:  E(RB3LYP) =  -384.138943545     A.U. after   11 cycles
 SCF Done:  E(RB3LYP) =  -384.139275820     A.U. after   10 cycles
 SCF Done:  E(RB3LYP) =  -384.139472655     A.U. after   10 cycles
 SCF Done:  E(RB3LYP) =  -384.139565165     A.U. after   10 cycles
 SCF Done:  E(RB3LYP) =  -384.139646131     A.U. after    9 cycles
 SCF Done:  E(RB3LYP) =  -384.139740036     A.U. after   10 cycles
 SCF Done:  E(RB3LYP) =  -384.139893432     A.U. after   10 cycles
 SCF Done:  E(RB3LYP) =  -384.140553913     A.U. after   11 cycles
 SCF Done:  E(RB3LYP) =  -384.141278259     A.U. after   11 cycles
 SCF Done:  E(RB3LYP) =  -384.141370659     A.U. after   10 cycles
 SCF Done:  E(RB3LYP) =  -384.141370949     A.U. after    7 cycles
 Optimization completed.
    -- Stationary point found.
 Normal termination of Gaussian 09 at Fri Aug 26 04:31:03 2022.

 ----------------------------------------------------------
 #P Geom=AllCheck Guess=TCheck SCRF=Check B3LYP/GTBas3 Freq
 ----------------------------------------------------------

 Structure from the checkpoint file:  "G4.Frag_886.chk"
 --------
 Frag_886
 --------
 Charge =  0 Multiplicity = 1

 SCF Done:  E(RB3LYP) =  -384.141370949     A.U. after    1 cycles

  Exact polarizability:  59.141  -0.941  57.648   1.328  -1.399  51.851
 Approx polarizability:  78.139  -1.570  79.214   1.633  -2.909  77.850

                      1                      2                      3
                      A                      A                      A
 Frequencies --    100.1195               193.0906               215.3830
 Red. masses --      4.2943                 1.0778                 1.4164
 Frc consts  --      0.0254                 0.0237                 0.0387
 IR Inten    --      1.6956                55.3522                10.5770

                      4                      5                      6
                      A                      A                      A
 Frequencies --    237.0580               254.4938               290.3033
 Red. masses --      1.3545                 1.6535                 1.8165
 Frc consts  --      0.0448                 0.0631                 0.0902
 IR Inten    --      0.5085                13.1388                10.5303

                      7                      8                      9
                      A                      A                      A
 Frequencies --    311.0756               347.3009               371.1644
 Red. masses --      1.6474                 2.3222                 3.3795
 Frc consts  --      0.0939                 0.1650                 0.2743
 IR Inten    --     93.8546                 7.8882                 4.9519

                     10                     11                     12
                      A                      A                      A
 Frequencies --    389.3900               413.9477               512.3264
 Red. masses --      2.0236                 1.2550                 3.6760
 Frc consts  --      0.1808                 0.1267                 0.5685
 IR Inten    --     29.9355                83.2742                 5.0509

                     13                     14                     15
                      A                      A                      A
 Frequencies --    539.8397               642.0731               810.8957
 Red. masses --      2.8119                 4.4397                 3.9475
 Frc consts  --      0.4828                 1.0784                 1.5293
 IR Inten    --     28.8618                 8.4830                31.1614

                     16                     17                     18
                      A                      A                      A
 Frequencies --    876.0406               929.9651               978.4959
 Red. masses --      2.0941                 1.4824                 2.1349
 Frc consts  --      0.9469                 0.7553                 1.2043
 IR Inten    --      1.8679                 1.7577                41.4208

                     19                     20                     21
                      A                      A                      A
 Frequencies --   1002.0858              1046.1966              1072.1853
 Red. masses --      1.3790                 2.7691                 3.2820
 Frc consts  --      0.8159                 1.7857                 2.2229
 IR Inten    --     11.5428                56.0082               121.2608

                     22                     23                     24
                      A                      A                      A
 Frequencies --   1163.8325              1198.2886              1214.0741
 Red. masses --      1.7944                 2.0504                 2.0788
 Frc consts  --      1.4320                 1.7346                 1.8053
 IR Inten    --     52.6420                63.1606                37.0570

                     25                     26                     27
                      A                      A                      A
 Frequencies --   1269.9534              1293.0867              1379.5433
 Red. masses --      1.3841                 1.5224                 1.2272
 Frc consts  --      1.3152                 1.4998                 1.3760
 IR Inten    --     44.6449                52.2167                42.7505

                     28                     29                     30
                      A                      A                      A
 Frequencies --   1395.2436              1413.4208              1420.8085
 Red. masses --      1.3285                 1.3005                 1.5097
 Frc consts  --      1.5237                 1.5308                 1.7956
 IR Inten    --     23.0316                28.0106                31.9191

                     31                     32                     33
                      A                      A                      A
 Frequencies --   1444.1036              1479.1467              1489.2376
 Red. masses --      1.4829                 1.0583                 1.0533
 Frc consts  --      1.8221                 1.3642                 1.3764
 IR Inten    --     30.6287                 1.7642                 2.4229

                     34                     35                     36
                      A                      A                      A
 Frequencies --   1499.8718              1514.2112              2929.5323
 Red. masses --      1.0960                 1.0756                 1.0831
 Frc consts  --      1.4527                 1.4531                 5.4766
 IR Inten    --      6.3827                 4.3798                74.7563

                     37                     38                     39
                      A                      A                      A
 Frequencies --   3034.2450              3041.1557              3106.0293
 Red. masses --      1.0371                 1.0370                 1.0982
 Frc consts  --      5.6256                 5.6508                 6.2422
 IR Inten    --     15.1752                21.0781                 9.2226

                     40                     41                     42
                      A                      A                      A
 Frequencies --   3113.2540              3126.9229              3128.9614
 Red. masses --      1.0987                 1.1025                 1.1019
 Frc consts  --      6.2743                 6.3515                 6.3562
 IR Inten    --     34.4070                13.0285                23.6929

                     43                     44                     45
                      A                      A                      A
 Frequencies --   3770.0904              3814.3562              3839.3497
 Red. masses --      1.0648                 1.0654                 1.0659
 Frc consts  --      8.9175                 9.1332                 9.2574
 IR Inten    --     45.0209                45.0151                28.0540

 - Thermochemistry -
 -------------------
 Temperature   298.150 Kelvin.  Pressure   1.00000 Atm.
 Atom     1 has atomic number  6 and mass  12.00000

 Molecular mass:   106.06299 amu.
 Principal axes and moments of inertia in atomic units:
                           1         2         3
     Eigenvalues --   541.84246 764.05547 933.40221
           X            0.99968  -0.00576   0.02449
           Y            0.00611   0.99988  -0.01434
           Z           -0.02440   0.01448   0.99960
 This molecule is an asymmetric top.
 Rotational symmetry number  1.
 Warning -- assumption of classical behavior for rotation
           may cause significant error
 Rotational temperatures (Kelvin)      0.15985     0.11336     0.09279
 Rotational constants (GHZ):           3.33075     2.36206     1.93351
 Zero-point vibrational energy     380485.1 (Joules/Mol)
                                   90.93813 (Kcal/Mol)
 Warning -- explicit consideration of  13 degrees of freedom as
           vibrations may cause significant error
 Vibrational temperatures:    144.05   277.81   309.89   341.07   366.16
          (Kelvin)            417.68   447.57   499.69   534.02   560.24
                              595.58   737.12   776.71   923.80  1166.70
                             1260.43  1338.01  1407.84  1441.78  1505.24
                             1542.63  1674.49  1724.07  1746.78  1827.18
                             1860.46  1984.85  2007.44  2033.59  2044.22
                             2077.74  2128.16  2142.68  2157.98  2178.61
                             4214.94  4365.60  4375.54  4468.88  4479.27
                             4498.94  4501.87  5424.31  5488.00  5523.96

 Zero-point correction=                           0.144919 (Hartree/Particle)
 Thermal correction to Energy=                    0.153737
 Thermal correction to Enthalpy=                  0.154681
 Thermal correction to Gibbs Free Energy=         0.112761
 Sum of electronic and zero-point Energies=           -383.996452
 Sum of electronic and thermal Energies=              -383.987634
 Sum of electronic and thermal Enthalpies=            -383.986690
 Sum of electronic and thermal Free Energies=         -384.028610

                     E (Thermal)             CV                S
                      KCal/Mol        Cal/Mol-Kelvin    Cal/Mol-Kelvin
 Total                   96.471             32.636             88.228
 Electronic               0.000              0.000              0.000
 Translational            0.889              2.981             39.894
 Rotational               0.889              2.981             27.449
 Vibrational             94.694             26.674             20.886
 Vibration     1          0.604              1.949              3.452
 Vibration     2          0.635              1.849              2.198
 Vibration     3          0.645              1.818              1.998
 Vibration     4          0.656              1.784              1.825
 Vibration     5          0.665              1.755              1.699
 Vibration     6          0.686              1.692              1.472
 Vibration     7          0.700              1.653              1.357
 Vibration     8          0.725              1.581              1.178
 Vibration     9          0.743              1.531              1.075
 Vibration    10          0.757              1.493              1.002
 Vibration    11          0.778              1.440              0.913
 Vibration    12          0.867              1.223              0.628
 Vibration    13          0.895              1.162              0.566

 Optimization completed.
    -- Stationary point found.
 Normal termination of Gaussian 09 at Fri Aug 26 04:31:56 2022.

 -----------------------------------------------------------------
 #P Geom=AllCheck Guess=TCheck SCRF=Check CCSD(T,E4T,FrzG4)/GTBas1
 -----------------------------------------------------------------

 Structure from the checkpoint file:  "G4.Frag_886.chk"
 --------
 Frag_886
 --------
 Charge =  0 Multiplicity = 1

 SCF Done:  E(RHF) =  -381.860957096     A.U. after   12 cycles
 E2 =    -0.1065879865D+01 EUMP2 =    -0.38292683696144D+03
 CCSD(T)
 CCSD(T)= -0.38301209114D+03
 908\CCSD=-382.9827084\CCSD(T)=-383.0120911\RMSD=4.183e-09\PG=C01 [X(C4
 Normal termination of Gaussian 09 at Fri Aug 26 04:36:26 2022.

 ---------------------------------------------------------
 #P Geom=AllCheck Guess=TCheck SCRF=Check MP4=FrzG4/GTBas2
 ---------------------------------------------------------

 Structure from the checkpoint file:  "G4.Frag_886.chk"
 --------
 Frag_886
 --------
 Charge =  0 Multiplicity = 1

 SCF Done:  E(RHF) =  -381.873954068     A.U. after   12 cycles
 E2 =    -0.1085175631D+01 EUMP2 =    -0.38295912969821D+03
 Normal termination of Gaussian 09 at Fri Aug 26 04:37:51 2022.

 ---------------------------------------------------------
 #P Geom=AllCheck Guess=TCheck SCRF=Check MP4=FrzG4/GTBas3
 ---------------------------------------------------------

 Structure from the checkpoint file:  "G4.Frag_886.chk"
 --------
 Frag_886
 --------
 Charge =  0 Multiplicity = 1

 SCF Done:  E(RHF) =  -381.915260954     A.U. after   11 cycles
 E2 =    -0.1329264231D+01 EUMP2 =    -0.38324452518509D+03
 Normal termination of Gaussian 09 at Fri Aug 26 04:50:31 2022.

 -----------------------------------------------------------
 #P Geom=AllCheck Guess=TCheck SCRF=Check MP2=Full/GTLargeXP
 -----------------------------------------------------------

 Structure from the checkpoint file:  "G4.Frag_886.chk"
 --------
 Frag_886
 --------
 Charge =  0 Multiplicity = 1

 SCF Done:  E(RHF) =  -382.020003930     A.U. after   11 cycles
 E2 =    -0.1735169652D+01 EUMP2 =    -0.38375517358295D+03
 Normal termination of Gaussian 09 at Fri Aug 26 04:54:50 2022.
 SCF Done:  E(RHF) =  -382.051116618     A.U. after    8 cycles
 Normal termination of Gaussian 09 at Fri Aug 26 04:58:15 2022.

                         Standard orientation:
 ---------------------------------------------------------------------
 Center     Atomic      Atomic             Coordinates (Angstroms)
 Number     Number       Type             X           Y           Z
 ---------------------------------------------------------------------
      1          6           0       -1.414204   -1.131250   -0.634074
      2          6           0       -0.627880    0.005392    0.040341
      3          6           0       -1.282883    1.360963   -0.220421
      4          8           0       -0.607959   -0.174216    1.448946
      5          6           0        0.829714    0.002600   -0.484980
      6          8           0        1.613996    1.069275    0.008181
      7          8           0        1.421889   -1.178345   -0.010261
      8          1           0       -2.426545   -1.165827   -0.222884
      9          1           0       -0.930788   -2.093923   -0.449057
     10          1           0       -1.485954   -0.986860   -1.718019
     11          1           0       -2.311266    1.351155    0.150172
     12          1           0       -1.309936    1.592344   -1.291003
     13          1           0       -0.740773    2.148335    0.308650
     14          1           0        0.081817   -0.828254    1.620870
     15          1           0        0.824117    0.023123   -1.590279
     16          1           0        1.472229    1.839790   -0.549894
     17          1           0        2.375207   -1.039835   -0.038674
 ---------------------------------------------------------------------

 SCF Done:  E(RHF) =  -382.058021741     A.U. after    8 cycles

 The electronic state is 1-A.
 Alpha  occ. eigenvalues --  -20.57480 -20.57459 -20.54061 -11.34395 -11.28617
 Alpha  occ. eigenvalues --  -11.21678 -11.21250  -1.43001  -1.35238  -1.34333
 Alpha  occ. eigenvalues --   -1.05732  -0.94073  -0.91573  -0.77631  -0.74514
 Alpha  occ. eigenvalues --   -0.72521  -0.68539  -0.63240  -0.59727  -0.58286
 Alpha  occ. eigenvalues --   -0.56564  -0.54423  -0.54033  -0.52704  -0.52274
 Alpha  occ. eigenvalues --   -0.50693  -0.49678  -0.44782  -0.42119
 Alpha virt. eigenvalues --    0.02871   0.03973   0.04137   0.05399   0.06768
 Alpha virt. eigenvalues --    0.07089   0.07223   0.07418   0.07824   0.09636
 Alpha virt. eigenvalues --    0.10375   0.10640   0.10939   0.13022   0.13372

 Mulliken charges:
               1
     1  C   -0.592714
     2  C    0.518707
     3  C   -0.616783
     4  O   -0.645956
     5  C    0.180218
     6  O   -0.591849
     7  O   -0.615202
     8  H    0.178980
     9  H    0.189905
    10  H    0.161398
    11  H    0.182531
    12  H    0.171714
    13  H    0.181879
    14  H    0.392063
    15  H    0.137532
    16  H    0.376711
    17  H    0.390867
 Sum of Mulliken charges =  -0.00000

 Dipole moment (field-independent basis, Debye):
    X=              0.9241    Y=              0.6843    Z=             -2.9257  Tot=              3.1435
 Quadrupole moment (field-independent basis, Debye-Ang):
   XX=            -41.4832   YY=            -42.1010   ZZ=            -45.0901
   XY=             -0.6937   XZ=              0.0714   YZ=             -3.5429

 Normal termination of Gaussian 09 at Fri Aug 26 05:10:53 2022.
