 Gaussian 09, Revision E.01,
 Gaussian 09:  ES64L-G09RevE.01 30-Nov-2015

 -----
 #P G4
 -----

 --------
 Frag_769
 --------
 Symbolic Z-matrix:
 Charge =  0 Multiplicity = 1

 SCF Done:  E(RB3LYP) =  -287.803998830     A.U. after   14 cycles
 SCF Done:  E(RB3LYP) =  -287.808906776     A.U. after   12 cycles
 SCF Done:  E(RB3LYP) =  -287.809351785     A.U. after   11 cycles
 SCF Done:  E(RB3LYP) =  -287.809392090     A.U. after   10 cycles
 SCF Done:  E(RB3LYP) =  -287.809395367     A.U. after    8 cycles
 SCF Done:  E(RB3LYP) =  -287.809395745     A.U. after    7 cycles
 Optimization completed.
    -- Stationary point found.
 Normal termination of Gaussian 09 at Sat Aug 20 12:46:32 2022.

 ----------------------------------------------------------
 #P Geom=AllCheck Guess=TCheck SCRF=Check B3LYP/GTBas3 Freq
 ----------------------------------------------------------

 Structure from the checkpoint file:  "G4.Frag_769.chk"
 --------
 Frag_769
 --------
 Charge =  0 Multiplicity = 1

 SCF Done:  E(RB3LYP) =  -287.809395745     A.U. after    1 cycles

  Exact polarizability:  67.442   0.001  46.511   0.329   0.000  49.611
 Approx polarizability:  95.069   0.000  61.930   6.249   0.001  76.555

                      1                      2                      3
                      A                      A                      A
 Frequencies --     44.6991               238.1721               270.8827
 Red. masses --      2.6090                 1.0437                 1.1038
 Frc consts  --      0.0031                 0.0349                 0.0477
 IR Inten    --     11.0671                 7.0993                 0.0798

                      4                      5                      6
                      A                      A                      A
 Frequencies --    271.0179               281.8573               316.4610
 Red. masses --      1.0717                 2.2856                 2.3217
 Frc consts  --      0.0464                 0.1070                 0.1370
 IR Inten    --     86.2566                 0.5362                 2.9623

                      7                      8                      9
                      A                      A                      A
 Frequencies --    358.2982               452.4883               458.4217
 Red. masses --      2.3029                 2.9295                 2.7560
 Frc consts  --      0.1742                 0.3534                 0.3412
 IR Inten    --      1.8066                12.1668                 6.3427

                     10                     11                     12
                      A                      A                      A
 Frequencies --    538.9358               735.3660               748.6573
 Red. masses --      3.7977                 4.1385                 1.4200
 Frc consts  --      0.6499                 1.3186                 0.4689
 IR Inten    --      1.0140                 3.3039                 2.5584

                     13                     14                     15
                      A                      A                      A
 Frequencies --    893.2381               917.4012               969.1205
 Red. masses --      2.4452                 1.4764                 2.0289
 Frc consts  --      1.1495                 0.7321                 1.1227
 IR Inten    --     19.0357                 0.4287                13.3986

                     16                     17                     18
                      A                      A                      A
 Frequencies --   1014.1441              1066.8535              1141.6922
 Red. masses --      1.3093                 1.3606                 1.5217
 Frc consts  --      0.7934                 0.9124                 1.1686
 IR Inten    --      0.0724                13.1645                96.0607

                     19                     20                     21
                      A                      A                      A
 Frequencies --   1193.9292              1215.4434              1244.8218
 Red. masses --      1.7875                 3.5681                 2.2550
 Frc consts  --      1.5012                 3.1057                 2.0588
 IR Inten    --     36.2907                39.4097                67.3197

                     22                     23                     24
                      A                      A                      A
 Frequencies --   1351.3389              1390.1828              1406.5020
 Red. masses --      1.5690                 1.2526                 1.2304
 Frc consts  --      1.6881                 1.4263                 1.4341
 IR Inten    --     52.1297                 8.5488                 4.4918

                     25                     26                     27
                      A                      A                      A
 Frequencies --   1476.9345              1481.8454              1490.2432
 Red. masses --      1.0478                 1.0523                 1.0714
 Frc consts  --      1.3466                 1.3614                 1.4019
 IR Inten    --      0.0081                 0.6760                 2.8648

                     28                     29                     30
                      A                      A                      A
 Frequencies --   1500.4327              1510.3975              1752.1165
 Red. masses --      1.0618                 1.1245                 6.8560
 Frc consts  --      1.4084                 1.5115                12.4008
 IR Inten    --      8.4528                 6.1819                32.4158

                     31                     32                     33
                      A                      A                      A
 Frequencies --   2996.1804              3032.3559              3037.5194
 Red. masses --      1.0658                 1.0357                 1.0360
 Frc consts  --      5.6372                 5.6113                 5.6316
 IR Inten    --     39.6324                10.6691                23.8765

                     34                     35                     36
                      A                      A                      A
 Frequencies --   3098.0294              3105.1341              3124.7937
 Red. masses --      1.1012                 1.1003                 1.1026
 Frc consts  --      6.2269                 6.2507                 6.3433
 IR Inten    --      0.4523                55.7545                26.0524

                     37                     38                     39
                      A                      A                      A
 Frequencies --   3130.0128              3131.6273              3819.2761
 Red. masses --      1.1015                 1.1019                 1.0655
 Frc consts  --      6.3583                 6.3669                 9.1573
 IR Inten    --     11.5571                24.9685                13.1945

 - Thermochemistry -
 -------------------
 Temperature   298.150 Kelvin.  Pressure   1.00000 Atm.
 Atom     1 has atomic number  6 and mass  12.00000

 Molecular mass:    87.06841 amu.
 Principal axes and moments of inertia in atomic units:
                           1         2         3
     Eigenvalues --   385.71179 611.64227 621.98425
           X            0.99985  -0.00000  -0.01732
           Y            0.00000   1.00000  -0.00002
           Z            0.01732   0.00002   0.99985
 This molecule is an asymmetric top.
 Rotational symmetry number  1.
 Rotational temperatures (Kelvin)      0.22456     0.14161     0.13925
 Rotational constants (GHZ):           4.67899     2.95065     2.90159
 Zero-point vibrational energy     336191.5 (Joules/Mol)
                                   80.35169 (Kcal/Mol)
 Warning -- explicit consideration of  10 degrees of freedom as
           vibrations may cause significant error
 Vibrational temperatures:     64.31   342.68   389.74   389.93   405.53
          (Kelvin)            455.32   515.51   651.03   659.57   775.41
                             1058.03  1077.15  1285.17  1319.93  1394.35
                             1459.13  1534.96  1642.64  1717.80  1748.75
                             1791.02  1944.27  2000.16  2023.64  2124.98
                             2132.04  2144.12  2158.79  2173.12  2520.90
                             4310.83  4362.88  4370.31  4457.37  4467.59
                             4495.88  4503.38  4505.71  5495.08

 Zero-point correction=                           0.128049 (Hartree/Particle)
 Thermal correction to Energy=                    0.135581
 Thermal correction to Enthalpy=                  0.136525
 Thermal correction to Gibbs Free Energy=         0.096953
 Sum of electronic and zero-point Energies=           -287.681347
 Sum of electronic and thermal Energies=              -287.673815
 Sum of electronic and thermal Enthalpies=            -287.672871
 Sum of electronic and thermal Free Energies=         -287.712443

                     E (Thermal)             CV                S
                      KCal/Mol        Cal/Mol-Kelvin    Cal/Mol-Kelvin
 Total                   85.078             27.100             83.286
 Electronic               0.000              0.000              0.000
 Translational            0.889              2.981             39.305
 Rotational               0.889              2.981             26.487
 Vibrational             83.301             21.139             17.494
 Vibration     1          0.595              1.980              5.039
 Vibration     2          0.656              1.782              1.816
 Vibration     3          0.675              1.727              1.591
 Vibration     4          0.675              1.727              1.590
 Vibration     5          0.681              1.707              1.522
 Vibration     6          0.703              1.642              1.328
 Vibration     7          0.733              1.558              1.129
 Vibration     8          0.811              1.355              0.788
 Vibration     9          0.816              1.342              0.771
 Vibration    10          0.894              1.164              0.568

 Optimization completed.
    -- Stationary point found.
 Normal termination of Gaussian 09 at Sat Aug 20 12:49:25 2022.

 -----------------------------------------------------------------
 #P Geom=AllCheck Guess=TCheck SCRF=Check CCSD(T,E4T,FrzG4)/GTBas1
 -----------------------------------------------------------------

 Structure from the checkpoint file:  "G4.Frag_769.chk"
 --------
 Frag_769
 --------
 Charge =  0 Multiplicity = 1

 SCF Done:  E(RHF) =  -285.982803915     A.U. after   12 cycles
 E2 =    -0.8640924814D+00 EUMP2 =    -0.28684689639648D+03
 CCSD(T)
 CCSD(T)= -0.28692947882D+03
 286.900557\CCSD(T)=-286.9294788\RMSD=7.149e-09\PG=C01 [X(C4H9N1O1)]\\@
 Normal termination of Gaussian 09 at Sat Aug 20 12:55:42 2022.

 ---------------------------------------------------------
 #P Geom=AllCheck Guess=TCheck SCRF=Check MP4=FrzG4/GTBas2
 ---------------------------------------------------------

 Structure from the checkpoint file:  "G4.Frag_769.chk"
 --------
 Frag_769
 --------
 Charge =  0 Multiplicity = 1

 SCF Done:  E(RHF) =  -285.991178015     A.U. after   13 cycles
 E2 =    -0.8766318048D+00 EUMP2 =    -0.28686780981944D+03
 Normal termination of Gaussian 09 at Sat Aug 20 13:02:21 2022.

 ---------------------------------------------------------
 #P Geom=AllCheck Guess=TCheck SCRF=Check MP4=FrzG4/GTBas3
 ---------------------------------------------------------

 Structure from the checkpoint file:  "G4.Frag_769.chk"
 --------
 Frag_769
 --------
 Charge =  0 Multiplicity = 1

 SCF Done:  E(RHF) =  -286.020594076     A.U. after   12 cycles
 E2 =    -0.1062641659D+01 EUMP2 =    -0.28708323573517D+03
 Normal termination of Gaussian 09 at Sat Aug 20 16:20:35 2022.

 -----------------------------------------------------------
 #P Geom=AllCheck Guess=TCheck SCRF=Check MP2=Full/GTLargeXP
 -----------------------------------------------------------

 Structure from the checkpoint file:  "G4.Frag_769.chk"
 --------
 Frag_769
 --------
 Charge =  0 Multiplicity = 1

 SCF Done:  E(RHF) =  -286.092336854     A.U. after   12 cycles
 E2 =    -0.1394255814D+01 EUMP2 =    -0.28748659266754D+03
 Normal termination of Gaussian 09 at Sat Aug 20 16:26:55 2022.
 SCF Done:  E(RHF) =  -286.114766089     A.U. after    9 cycles
 Normal termination of Gaussian 09 at Sat Aug 20 16:33:44 2022.

                         Standard orientation:
 ---------------------------------------------------------------------
 Center     Atomic      Atomic             Coordinates (Angstroms)
 Number     Number       Type             X           Y           Z
 ---------------------------------------------------------------------
      1          6           0        2.025439    0.000002   -0.063632
      2          7           0        0.957393   -0.000025   -0.735318
      3          6           0       -0.335360   -0.000001   -0.058137
      4          6           0       -0.515247   -1.276686    0.778832
      5          6           0       -0.515231    1.276708    0.778799
      6          8           0       -1.271773   -0.000009   -1.133483
      7          1           0        2.980286   -0.000028   -0.591981
      8          1           0        2.084215    0.000042    1.034515
      9          1           0       -1.521186   -1.309851    1.211182
     10          1           0        0.204538   -1.324380    1.601761
     11          1           0       -0.381106   -2.152651    0.139845
     12          1           0       -1.521169    1.309895    1.211148
     13          1           0       -0.381081    2.152654    0.139788
     14          1           0        0.204554    1.324416    1.601726
     15          1           0       -2.154222    0.000018   -0.748069
 ---------------------------------------------------------------------

 SCF Done:  E(RHF) =  -286.119567349     A.U. after    8 cycles

 The electronic state is 1-A.
 Alpha  occ. eigenvalues --  -20.54908 -15.56094 -11.32032 -11.27663 -11.22384
 Alpha  occ. eigenvalues --  -11.22383  -1.36807  -1.22602  -1.03172  -0.95012
 Alpha  occ. eigenvalues --   -0.88249  -0.75935  -0.68321  -0.67308  -0.62001
 Alpha  occ. eigenvalues --   -0.59033  -0.58449  -0.56099  -0.55456  -0.51868
 Alpha  occ. eigenvalues --   -0.50973  -0.46109  -0.41259  -0.40301
 Alpha virt. eigenvalues --    0.03044   0.03919   0.04173   0.05423   0.06518
 Alpha virt. eigenvalues --    0.06634   0.06899   0.07514   0.07520   0.09506
 Alpha virt. eigenvalues --    0.09722   0.10682   0.10942   0.13532   0.13703

 Mulliken charges:
               1
     1  C   -0.201513
     2  N   -0.358270
     3  C    0.485387
     4  C   -0.568013
     5  C   -0.568015
     6  O   -0.589036
     7  H    0.216564
     8  H    0.171501
     9  H    0.160962
    10  H    0.168975
    11  H    0.197204
    12  H    0.160962
    13  H    0.197203
    14  H    0.168976
    15  H    0.357114
 Sum of Mulliken charges =  -0.00000

 Dipole moment (field-independent basis, Debye):
    X=              0.0437    Y=              0.0001    Z=              3.5170  Tot=              3.5173
 Quadrupole moment (field-independent basis, Debye-Ang):
   XX=            -30.4912   YY=            -38.3807   ZZ=            -43.2184
   XY=             -0.0001   XZ=              0.1625   YZ=             -0.0001

 Normal termination of Gaussian 09 at Sat Aug 20 19:38:25 2022.
