 Gaussian 09, Revision E.01,
 Gaussian 09:  ES64L-G09RevE.01 30-Nov-2015

 -----
 #P G4
 -----

 --------
 Frag_816
 --------
 Symbolic Z-matrix:
 Charge =  0 Multiplicity = 1

 SCF Done:  E(RB3LYP) =  -264.455360805     A.U. after   14 cycles
 SCF Done:  E(RB3LYP) =  -264.482340929     A.U. after   13 cycles
 SCF Done:  E(RB3LYP) =  -264.485086198     A.U. after   13 cycles
 SCF Done:  E(RB3LYP) =  -264.485231429     A.U. after   12 cycles
 SCF Done:  E(RB3LYP) =  -264.485649231     A.U. after   12 cycles
 SCF Done:  E(RB3LYP) =  -264.485758400     A.U. after   12 cycles
 SCF Done:  E(RB3LYP) =  -264.485901966     A.U. after   12 cycles
 SCF Done:  E(RB3LYP) =  -264.486104881     A.U. after   10 cycles
 SCF Done:  E(RB3LYP) =  -264.486292028     A.U. after   10 cycles
 SCF Done:  E(RB3LYP) =  -264.486297306     A.U. after    9 cycles
 SCF Done:  E(RB3LYP) =  -264.486297538     A.U. after    7 cycles
 Optimization completed.
    -- Stationary point found.
 Normal termination of Gaussian 09 at Thu Aug 25 16:05:14 2022.

 ----------------------------------------------------------
 #P Geom=AllCheck Guess=TCheck SCRF=Check B3LYP/GTBas3 Freq
 ----------------------------------------------------------

 Structure from the checkpoint file:  "G4.Frag_816.chk"
 --------
 Frag_816
 --------
 Charge =  0 Multiplicity = 1

 SCF Done:  E(RB3LYP) =  -264.486297538     A.U. after    1 cycles

  Exact polarizability:  55.271   3.499  42.250   0.001   0.002  30.169
 Approx polarizability:  72.176  16.026  83.534   0.000   0.001  43.741

                      1                      2                      3
                      A                      A                      A
 Frequencies --    134.7963               194.2552               253.9475
 Red. masses --      1.1081                 1.0726                 2.4941
 Frc consts  --      0.0119                 0.0238                 0.0948
 IR Inten    --      1.4367                 0.4331                 6.6158

                      4                      5                      6
                      A                      A                      A
 Frequencies --    319.4856               461.2250               650.6606
 Red. masses --      3.0511                 3.3482                 3.9865
 Frc consts  --      0.1835                 0.4196                 0.9944
 IR Inten    --     15.5134                 4.8231                 4.4991

                      7                      8                      9
                      A                      A                      A
 Frequencies --    656.3869               932.4136              1026.1564
 Red. masses --      4.1534                 3.0542                 3.1598
 Frc consts  --      1.0543                 1.5645                 1.9603
 IR Inten    --     13.8663                 5.6320                11.2439

                     10                     11                     12
                      A                      A                      A
 Frequencies --   1091.0396              1128.8729              1150.0087
 Red. masses --      1.4032                 1.8631                 1.4344
 Frc consts  --      0.9841                 1.3989                 1.1177
 IR Inten    --      1.8075                 3.6134                 0.1167

                     13                     14                     15
                      A                      A                      A
 Frequencies --   1190.6529              1389.1945              1419.8143
 Red. masses --      1.8846                 5.0619                 1.2376
 Frc consts  --      1.5741                 5.7555                 1.4700
 IR Inten    --      2.3592                37.5383                36.6108

                     16                     17                     18
                      A                      A                      A
 Frequencies --   1424.3011              1462.4616              1473.7248
 Red. masses --      1.3606                 1.0959                 1.0464
 Frc consts  --      1.6262                 1.3810                 1.3389
 IR Inten    --      4.1874                 9.4550                 4.0107

                     19                     20                     21
                      A                      A                      A
 Frequencies --   1475.0738              1475.3395              1612.0239
 Red. masses --      1.0702                 1.0435                 5.2019
 Frc consts  --      1.3720                 1.3382                 7.9645
 IR Inten    --     21.8695                12.0792               149.9359

                     22                     23                     24
                      A                      A                      A
 Frequencies --   3017.2597              3068.7861              3078.0522
 Red. masses --      1.0358                 1.0998                 1.0304
 Frc consts  --      5.5558                 6.1022                 5.7520
 IR Inten    --     15.5772                16.0705                 7.7300

                     25                     26                     27
                      A                      A                      A
 Frequencies --   3148.1541              3162.0345              3199.9339
 Red. masses --      1.1007                 1.1044                 1.1072
 Frc consts  --      6.4272                 6.5057                 6.6796
 IR Inten    --     18.1838                 3.3871                 1.9588

 - Thermochemistry -
 -------------------
 Temperature   298.150 Kelvin.  Pressure   1.00000 Atm.
 Atom     1 has atomic number  6 and mass  12.00000

 Molecular mass:    74.04801 amu.
 Principal axes and moments of inertia in atomic units:
                           1         2         3
     Eigenvalues --   164.51048 420.38336 562.38547
           X            0.99932  -0.03695  -0.00000
           Y            0.03695   0.99932   0.00000
           Z           -0.00000  -0.00000   1.00000
 This molecule is an asymmetric top.
 Rotational symmetry number  1.
 Rotational temperatures (Kelvin)      0.52649     0.20604     0.15401
 Rotational constants (GHZ):          10.97037     4.29308     3.20908
 Zero-point vibrational energy     236837.0 (Joules/Mol)
                                   56.60540 (Kcal/Mol)
 Warning -- explicit consideration of   5 degrees of freedom as
           vibrations may cause significant error
 Vibrational temperatures:    193.94   279.49   365.37   459.67   663.60
          (Kelvin)            936.15   944.39  1341.53  1476.41  1569.76
                             1624.19  1654.60  1713.08  1998.74  2042.79
                             2049.25  2104.15  2120.36  2122.30  2122.68
                             2319.34  4341.16  4415.29  4428.63  4529.49
                             4549.46  4603.99

 Zero-point correction=                           0.090206 (Hartree/Particle)
 Thermal correction to Energy=                    0.095890
 Thermal correction to Enthalpy=                  0.096834
 Thermal correction to Gibbs Free Energy=         0.061628
 Sum of electronic and zero-point Energies=           -264.396091
 Sum of electronic and thermal Energies=              -264.390408
 Sum of electronic and thermal Enthalpies=            -264.389464
 Sum of electronic and thermal Free Energies=         -264.424669

                     E (Thermal)             CV                S
                      KCal/Mol        Cal/Mol-Kelvin    Cal/Mol-Kelvin
 Total                   60.172             18.788             74.097
 Electronic               0.000              0.000              0.000
 Translational            0.889              2.981             38.822
 Rotational               0.889              2.981             25.167
 Vibrational             58.394             12.826             10.107
 Vibration     1          0.613              1.919              2.876
 Vibration     2          0.635              1.848              2.187
 Vibration     3          0.665              1.756              1.703
 Vibration     4          0.705              1.636              1.313
 Vibration     5          0.819              1.336              0.763

 Optimization completed.
    -- Stationary point found.
 Normal termination of Gaussian 09 at Thu Aug 25 16:06:29 2022.

 -----------------------------------------------------------------
 #P Geom=AllCheck Guess=TCheck SCRF=Check CCSD(T,E4T,FrzG4)/GTBas1
 -----------------------------------------------------------------

 Structure from the checkpoint file:  "G4.Frag_816.chk"
 --------
 Frag_816
 --------
 Charge =  0 Multiplicity = 1

 SCF Done:  E(RHF) =  -262.873205230     A.U. after   14 cycles
 E2 =    -0.7887101134D+00 EUMP2 =    -0.26366191534375D+03
 CCSD(T)
 CCSD(T)= -0.26371901487D+03
 9325\MP4SDQ=-263.6901157\CCSD=-263.688094\CCSD(T)=-263.7190149\RMSD=4.
 Normal termination of Gaussian 09 at Thu Aug 25 16:08:19 2022.

 ---------------------------------------------------------
 #P Geom=AllCheck Guess=TCheck SCRF=Check MP4=FrzG4/GTBas2
 ---------------------------------------------------------

 Structure from the checkpoint file:  "G4.Frag_816.chk"
 --------
 Frag_816
 --------
 Charge =  0 Multiplicity = 1

 SCF Done:  E(RHF) =  -262.882219026     A.U. after   13 cycles
 E2 =    -0.7990863068D+00 EUMP2 =    -0.26368130533254D+03
 Normal termination of Gaussian 09 at Thu Aug 25 16:10:14 2022.

 ---------------------------------------------------------
 #P Geom=AllCheck Guess=TCheck SCRF=Check MP4=FrzG4/GTBas3
 ---------------------------------------------------------

 Structure from the checkpoint file:  "G4.Frag_816.chk"
 --------
 Frag_816
 --------
 Charge =  0 Multiplicity = 1

 SCF Done:  E(RHF) =  -262.902748179     A.U. after   12 cycles
 E2 =    -0.9555866318D+00 EUMP2 =    -0.26385833481123D+03
 Normal termination of Gaussian 09 at Thu Aug 25 16:45:40 2022.

 -----------------------------------------------------------
 #P Geom=AllCheck Guess=TCheck SCRF=Check MP2=Full/GTLargeXP
 -----------------------------------------------------------

 Structure from the checkpoint file:  "G4.Frag_816.chk"
 --------
 Frag_816
 --------
 Charge =  0 Multiplicity = 1

 SCF Done:  E(RHF) =  -262.971734286     A.U. after   12 cycles
 E2 =    -0.1238042790D+01 EUMP2 =    -0.26420977707596D+03
 Normal termination of Gaussian 09 at Thu Aug 25 16:47:59 2022.
 SCF Done:  E(RHF) =  -262.992918664     A.U. after   11 cycles
 Normal termination of Gaussian 09 at Thu Aug 25 16:51:32 2022.

                         Standard orientation:
 ---------------------------------------------------------------------
 Center     Atomic      Atomic             Coordinates (Angstroms)
 Number     Number       Type             X           Y           Z
 ---------------------------------------------------------------------
      1          6           0       -1.863601   -0.145716    0.000032
      2          7           0       -0.556384   -0.783593   -0.000016
      3          7           0        0.383142    0.067490    0.000000
      4          6           0        1.757619   -0.481937    0.000031
      5          8           0        0.276194    1.310516   -0.000013
      6          1           0       -1.987082    0.499635    0.878970
      7          1           0       -2.617187   -0.933161    0.000643
      8          1           0       -1.987624    0.498507   -0.879683
      9          1           0        1.706634   -1.567899    0.001215
     10          1           0        2.262527   -0.100219    0.888329
     11          1           0        2.261765   -0.102354   -0.889641
 ---------------------------------------------------------------------

 SCF Done:  E(RHF) =  -262.997302568     A.U. after    7 cycles

 The electronic state is 1-A.
 Alpha  occ. eigenvalues --  -20.55055 -15.77773 -15.61423 -11.28808 -11.25368
 Alpha  occ. eigenvalues --   -1.51537  -1.27499  -1.08632  -0.95920  -0.79611
 Alpha  occ. eigenvalues --   -0.70967  -0.70116  -0.69805  -0.60177  -0.59365
 Alpha  occ. eigenvalues --   -0.56297  -0.54018  -0.46959  -0.45057  -0.38218
 Alpha virt. eigenvalues --    0.03484   0.04472   0.04928   0.05634   0.06967
 Alpha virt. eigenvalues --    0.07106   0.07330   0.10749   0.10777   0.11804
 Alpha virt. eigenvalues --    0.12709   0.12955   0.14427   0.15073   0.17041

 Mulliken charges:
               1
     1  C   -0.426289
     2  N   -0.261730
     3  N    0.471227
     4  C   -0.466788
     5  O   -0.559938
     6  H    0.194193
     7  H    0.193687
     8  H    0.194127
     9  H    0.229468
    10  H    0.216069
    11  H    0.215974
 Sum of Mulliken charges =  -0.00000

 Dipole moment (field-independent basis, Debye):
    X=              0.9050    Y=             -1.8632    Z=              0.0000  Tot=              2.0713
 Quadrupole moment (field-independent basis, Debye-Ang):
   XX=            -23.2470   YY=            -36.4800   ZZ=            -29.9016
   XY=             -2.2705   XZ=              0.0001   YZ=              0.0003

 Normal termination of Gaussian 09 at Thu Aug 25 18:04:09 2022.
