 Gaussian 09, Revision E.01,
 Gaussian 09:  ES64L-G09RevE.01 30-Nov-2015

 -----
 #P G4
 -----

 --------
 Frag_579
 --------
 Symbolic Z-matrix:
 Charge =  0 Multiplicity = 1

 SCF Done:  E(RB3LYP) =  -348.232538181     A.U. after   12 cycles
 SCF Done:  E(RB3LYP) =  -348.237304045     A.U. after   10 cycles
 SCF Done:  E(RB3LYP) =  -348.237598779     A.U. after   10 cycles
 SCF Done:  E(RB3LYP) =  -348.237666696     A.U. after    9 cycles
 SCF Done:  E(RB3LYP) =  -348.237700318     A.U. after    9 cycles
 SCF Done:  E(RB3LYP) =  -348.237726837     A.U. after   10 cycles
 SCF Done:  E(RB3LYP) =  -348.237742648     A.U. after    9 cycles
 SCF Done:  E(RB3LYP) =  -348.237758130     A.U. after    9 cycles
 SCF Done:  E(RB3LYP) =  -348.237760363     A.U. after    8 cycles
 SCF Done:  E(RB3LYP) =  -348.237761177     A.U. after    7 cycles
 SCF Done:  E(RB3LYP) =  -348.237766524     A.U. after    9 cycles
 SCF Done:  E(RB3LYP) =  -348.237768863     A.U. after    7 cycles
 SCF Done:  E(RB3LYP) =  -348.237769414     A.U. after    6 cycles
 Optimization completed.
    -- Stationary point found.
 Normal termination of Gaussian 09 at Tue Aug 23 05:20:04 2022.

 ----------------------------------------------------------
 #P Geom=AllCheck Guess=TCheck SCRF=Check B3LYP/GTBas3 Freq
 ----------------------------------------------------------

 Structure from the checkpoint file:  "G4.Frag_579.chk"
 --------
 Frag_579
 --------
 Charge =  0 Multiplicity = 1

 SCF Done:  E(RB3LYP) =  -348.237769414     A.U. after    1 cycles

  Exact polarizability:  66.256   1.018  65.015  -1.169   0.219  57.404
 Approx polarizability:  85.934  -1.567  89.352  -1.400   0.961  87.712

                      1                      2                      3
                      A                      A                      A
 Frequencies --     68.6657               171.7239               197.4116
 Red. masses --      2.5545                 1.1180                 1.0575
 Frc consts  --      0.0071                 0.0194                 0.0243
 IR Inten    --      0.5162                55.5663                26.7031

                      4                      5                      6
                      A                      A                      A
 Frequencies --    214.8563               254.8665               269.9689
 Red. masses --      1.2379                 1.2035                 2.0327
 Frc consts  --      0.0337                 0.0461                 0.0873
 IR Inten    --      0.3740                 2.1466                42.8959

                      7                      8                      9
                      A                      A                      A
 Frequencies --    285.9272               288.9157               359.6779
 Red. masses --      1.4196                 2.0184                 2.0493
 Frc consts  --      0.0684                 0.0993                 0.1562
 IR Inten    --     82.7027                10.9589                 5.5731

                     10                     11                     12
                      A                      A                      A
 Frequencies --    376.5900               414.3745               488.0587
 Red. masses --      2.9154                 2.3997                 3.3089
 Frc consts  --      0.2436                 0.2428                 0.4644
 IR Inten    --      3.8675                11.4617                 8.9472

                     13                     14                     15
                      A                      A                      A
 Frequencies --    527.9006               580.2671               719.0965
 Red. masses --      3.4156                 2.8068                 3.2377
 Frc consts  --      0.5608                 0.5568                 0.9864
 IR Inten    --      6.5482                 7.0347                 2.9481

                     16                     17                     18
                      A                      A                      A
 Frequencies --    878.8488               925.6118               934.6264
 Red. masses --      2.4769                 1.1995                 1.9176
 Frc consts  --      1.1271                 0.6055                 0.9869
 IR Inten    --      6.2483                 0.9063                15.4303

                     19                     20                     21
                      A                      A                      A
 Frequencies --    954.1454               963.3555              1025.9597
 Red. masses --      2.0470                 1.4268                 1.8311
 Frc consts  --      1.0980                 0.7802                 1.1356
 IR Inten    --     35.9948                 2.1236                42.2052

                     22                     23                     24
                      A                      A                      A
 Frequencies --   1085.3820              1107.5466              1144.7886
 Red. masses --      1.9408                 1.6377                 1.8875
 Frc consts  --      1.3471                 1.1836                 1.4575
 IR Inten    --     56.3418                36.8084                35.2493

                     25                     26                     27
                      A                      A                      A
 Frequencies --   1186.6146              1225.8951              1287.8787
 Red. masses --      2.0152                 2.4756                 1.4711
 Frc consts  --      1.6718                 2.1920                 1.4376
 IR Inten    --     14.8724                35.1335                96.6944

                     28                     29                     30
                      A                      A                      A
 Frequencies --   1344.2992              1360.0218              1381.1916
 Red. masses --      1.3442                 1.6293                 1.3416
 Frc consts  --      1.4313                 1.7756                 1.5080
 IR Inten    --      2.7175                38.0957                20.9626

                     31                     32                     33
                      A                      A                      A
 Frequencies --   1396.7316              1413.1886              1424.7551
 Red. masses --      1.2679                 1.2726                 1.6048
 Frc consts  --      1.4574                 1.4974                 1.9193
 IR Inten    --     11.4177                22.4135                35.4167

                     34                     35                     36
                      A                      A                      A
 Frequencies --   1483.9674              1488.2529              1493.5483
 Red. masses --      1.0542                 1.0552                 1.0520
 Frc consts  --      1.3678                 1.3770                 1.3827
 IR Inten    --      1.1606                 2.6679                 0.2030

                     37                     38                     39
                      A                      A                      A
 Frequencies --   1498.6564              1512.0743              1519.7443
 Red. masses --      1.0498                 1.0486                 1.0528
 Frc consts  --      1.3892                 1.4126                 1.4327
 IR Inten    --      3.3549                 4.6625                 9.3239

                     40                     41                     42
                      A                      A                      A
 Frequencies --   3024.1623              3030.2905              3037.7817
 Red. masses --      1.0556                 1.0657                 1.0357
 Frc consts  --      5.6879                 5.7657                 5.6313
 IR Inten    --      7.8591                26.1881                22.3672

                     43                     44                     45
                      A                      A                      A
 Frequencies --   3052.2574              3090.2106              3106.3968
 Red. masses --      1.0358                 1.0957                 1.1009
 Frc consts  --      5.6853                 6.1647                 6.2588
 IR Inten    --      8.8696                23.7742                24.8400

                     46                     47                     48
                      A                      A                      A
 Frequencies --   3110.3948              3111.5014              3126.2642
 Red. masses --      1.1014                 1.1007                 1.1010
 Frc consts  --      6.2781                 6.2787                 6.3400
 IR Inten    --     22.6939                37.9640                23.7234

                     49                     50                     51
                      A                      A                      A
 Frequencies --   3140.0598              3813.6434              3825.8493
 Red. masses --      1.1022                 1.0653                 1.0651
 Frc consts  --      6.4028                 9.1290                 9.1854
 IR Inten    --     16.1132                20.6894                16.7187

 - Thermochemistry -
 -------------------
 Temperature   298.150 Kelvin.  Pressure   1.00000 Atm.
 Atom     1 has atomic number  6 and mass  12.00000

 Molecular mass:   104.08373 amu.
 Principal axes and moments of inertia in atomic units:
                           1         2         3
     Eigenvalues --   560.21411 790.98905 969.32081
           X            0.99770   0.06613  -0.01497
           Y           -0.06635   0.99769  -0.01427
           Z            0.01399   0.01523   0.99979
 This molecule is an asymmetric top.
 Rotational symmetry number  1.
 Warning -- assumption of classical behavior for rotation
           may cause significant error
 Rotational temperatures (Kelvin)      0.15461     0.10950     0.08936
 Rotational constants (GHZ):           3.22152     2.28163     1.86186
 Zero-point vibrational energy     440968.6 (Joules/Mol)
                                  105.39403 (Kcal/Mol)
 Warning -- explicit consideration of  14 degrees of freedom as
           vibrations may cause significant error
 Vibrational temperatures:     98.79   247.07   284.03   309.13   366.70
          (Kelvin)            388.42   411.38   415.68   517.50   541.83
                              596.19   702.21   759.53   834.87  1034.62
                             1264.47  1331.75  1344.72  1372.80  1386.05
                             1476.13  1561.62  1593.51  1647.09  1707.27
                             1763.79  1852.97  1934.14  1956.77  1987.22
                             2009.58  2033.26  2049.90  2135.10  2141.26
                             2148.88  2156.23  2175.53  2186.57  4351.09
                             4359.91  4370.68  4391.51  4446.12  4469.41
                             4475.16  4476.75  4497.99  4517.84  5486.98
                             5504.54

 Zero-point correction=                           0.167956 (Hartree/Particle)
 Thermal correction to Energy=                    0.177266
 Thermal correction to Enthalpy=                  0.178210
 Thermal correction to Gibbs Free Energy=         0.135094
 Sum of electronic and zero-point Energies=           -348.069813
 Sum of electronic and thermal Energies=              -348.060504
 Sum of electronic and thermal Enthalpies=            -348.059560
 Sum of electronic and thermal Free Energies=         -348.102676

                     E (Thermal)             CV                S
                      KCal/Mol        Cal/Mol-Kelvin    Cal/Mol-Kelvin
 Total                  111.236             34.328             90.745
 Electronic               0.000              0.000              0.000
 Translational            0.889              2.981             39.837
 Rotational               0.889              2.981             27.554
 Vibrational            109.458             28.367             23.354
 Vibration     1          0.598              1.969              4.191
 Vibration     2          0.626              1.877              2.417
 Vibration     3          0.637              1.844              2.157
 Vibration     4          0.645              1.818              2.002
 Vibration     5          0.665              1.755              1.697
 Vibration     6          0.674              1.728              1.596
 Vibration     7          0.684              1.700              1.498
 Vibration     8          0.685              1.694              1.480
 Vibration     9          0.734              1.555              1.123
 Vibration    10          0.747              1.520              1.053
 Vibration    11          0.778              1.439              0.911
 Vibration    12          0.844              1.277              0.689
 Vibration    13          0.883              1.188              0.592
 Vibration    14          0.937              1.074              0.485

 Optimization completed.
    -- Stationary point found.
 Normal termination of Gaussian 09 at Tue Aug 23 05:27:50 2022.

 -----------------------------------------------------------------
 #P Geom=AllCheck Guess=TCheck SCRF=Check CCSD(T,E4T,FrzG4)/GTBas1
 -----------------------------------------------------------------

 Structure from the checkpoint file:  "G4.Frag_579.chk"
 --------
 Frag_579
 --------
 Charge =  0 Multiplicity = 1

 SCF Done:  E(RHF) =  -346.042793122     A.U. after   11 cycles
 E2 =    -0.1021109740D+01 EUMP2 =    -0.34706390286177D+03
 CCSD(T)
 CCSD(T)= -0.34716056384D+03
 59\MP4SDQ=-347.1300528\CCSD=-347.1306255\CCSD(T)=-347.1605638\RMSD=6.0
 Normal termination of Gaussian 09 at Tue Aug 23 05:46:02 2022.

 ---------------------------------------------------------
 #P Geom=AllCheck Guess=TCheck SCRF=Check MP4=FrzG4/GTBas2
 ---------------------------------------------------------

 Structure from the checkpoint file:  "G4.Frag_579.chk"
 --------
 Frag_579
 --------
 Charge =  0 Multiplicity = 1

 SCF Done:  E(RHF) =  -346.051822377     A.U. after   11 cycles
 E2 =    -0.1036915429D+01 EUMP2 =    -0.34708873780550D+03
 Normal termination of Gaussian 09 at Tue Aug 23 06:12:22 2022.

 ---------------------------------------------------------
 #P Geom=AllCheck Guess=TCheck SCRF=Check MP4=FrzG4/GTBas3
 ---------------------------------------------------------

 Structure from the checkpoint file:  "G4.Frag_579.chk"
 --------
 Frag_579
 --------
 Charge =  0 Multiplicity = 1

 SCF Done:  E(RHF) =  -346.091297705     A.U. after   10 cycles
 E2 =    -0.1276866081D+01 EUMP2 =    -0.34736816378599D+03
 Normal termination of Gaussian 09 at Tue Aug 23 12:29:26 2022.

 -----------------------------------------------------------
 #P Geom=AllCheck Guess=TCheck SCRF=Check MP2=Full/GTLargeXP
 -----------------------------------------------------------

 Structure from the checkpoint file:  "G4.Frag_579.chk"
 --------
 Frag_579
 --------
 Charge =  0 Multiplicity = 1

 SCF Done:  E(RHF) =  -346.178794498     A.U. after   12 cycles
 E2 =    -0.1671045693D+01 EUMP2 =    -0.34784984019063D+03
 Normal termination of Gaussian 09 at Tue Aug 23 12:44:56 2022.
 SCF Done:  E(RHF) =  -346.206737144     A.U. after    8 cycles
 Normal termination of Gaussian 09 at Tue Aug 23 12:56:05 2022.

                         Standard orientation:
 ---------------------------------------------------------------------
 Center     Atomic      Atomic             Coordinates (Angstroms)
 Number     Number       Type             X           Y           Z
 ---------------------------------------------------------------------
      1          6           0       -1.647237   -1.158469   -0.100433
      2          6           0       -0.822821    0.079629   -0.481018
      3          6           0       -1.508025    1.354451    0.035910
      4          6           0        0.653481   -0.055730   -0.002147
      5          6           0        1.563293    1.053152   -0.532175
      6          8           0        0.717715   -0.126287    1.422322
      7          8           0        1.213363   -1.259540   -0.462428
      8          1           0       -1.266913   -2.060206   -0.588493
      9          1           0       -2.690375   -1.037204   -0.407603
     10          1           0       -1.629762   -1.316177    0.983062
     11          1           0       -0.774083    0.137893   -1.575743
     12          1           0       -1.616199    1.336631    1.127852
     13          1           0       -0.967662    2.264591   -0.239280
     14          1           0       -2.518164    1.437750   -0.376636
     15          1           0        1.256467    2.035687   -0.164511
     16          1           0        2.583057    0.855367   -0.196116
     17          1           0        1.550124    1.072667   -1.625346
     18          1           0        0.353573    0.686824    1.786612
     19          1           0        0.839169   -1.965409    0.076225
 ---------------------------------------------------------------------

 SCF Done:  E(RHF) =  -346.212897457     A.U. after    8 cycles

 The electronic state is 1-A.
 Alpha  occ. eigenvalues --  -20.55904 -20.55323 -11.33751 -11.23336 -11.22504
 Alpha  occ. eigenvalues --  -11.21548 -11.21421  -1.40956  -1.32690  -1.07902
 Alpha  occ. eigenvalues --   -0.99532  -0.93637  -0.85752  -0.78118  -0.71602
 Alpha  occ. eigenvalues --   -0.68121  -0.63538  -0.62391  -0.57633  -0.56000
 Alpha  occ. eigenvalues --   -0.54873  -0.54156  -0.53920  -0.53316  -0.50677
 Alpha  occ. eigenvalues --   -0.48957  -0.48173  -0.47227  -0.41962
 Alpha virt. eigenvalues --    0.03016   0.03912   0.04367   0.04691   0.06196
 Alpha virt. eigenvalues --    0.06652   0.06928   0.07098   0.07450   0.09258
 Alpha virt. eigenvalues --    0.09307   0.09583   0.10332   0.11031   0.11131

 Mulliken charges:
               1
     1  C   -0.608872
     2  C    0.019223
     3  C   -0.588718
     4  C    0.529049
     5  C   -0.586451
     6  O   -0.630662
     7  O   -0.612067
     8  H    0.171862
     9  H    0.168859
    10  H    0.188796
    11  H    0.155949
    12  H    0.156904
    13  H    0.173710
    14  H    0.176407
    15  H    0.166234
    16  H    0.194125
    17  H    0.178040
    18  H    0.370953
    19  H    0.376659
 Sum of Mulliken charges =  -0.00000

 Dipole moment (field-independent basis, Debye):
    X=             -1.8804    Y=              1.4862    Z=              0.1106  Tot=              2.3994
 Quadrupole moment (field-independent basis, Debye-Ang):
   XX=            -48.0574   YY=            -42.5706   ZZ=            -46.3350
   XY=              2.0897   XZ=             -0.1294   YZ=              0.4775

 Normal termination of Gaussian 09 at Tue Aug 23 18:25:23 2022.
