 Gaussian 09, Revision E.01,
 Gaussian 09:  ES64L-G09RevE.01 30-Nov-2015

 -----
 #P G4
 -----

 ---------
 Frag_1069
 ---------
 Symbolic Z-matrix:
 Charge =  0 Multiplicity = 1

 SCF Done:  E(RB3LYP) =  -380.715698174     A.U. after   12 cycles
 SCF Done:  E(RB3LYP) =  -380.722421579     A.U. after   11 cycles
 SCF Done:  E(RB3LYP) =  -380.723619158     A.U. after   10 cycles
 SCF Done:  E(RB3LYP) =  -380.725111482     A.U. after   11 cycles
 SCF Done:  E(RB3LYP) =  -380.725643663     A.U. after   10 cycles
 SCF Done:  E(RB3LYP) =  -380.725781832     A.U. after    9 cycles
 SCF Done:  E(RB3LYP) =  -380.725791085     A.U. after    8 cycles
 SCF Done:  E(RB3LYP) =  -380.725792186     A.U. after    7 cycles
 Optimization completed.
    -- Stationary point found.
 Normal termination of Gaussian 09 at Fri Aug 26 10:13:50 2022.

 ----------------------------------------------------------
 #P Geom=AllCheck Guess=TCheck SCRF=Check B3LYP/GTBas3 Freq
 ----------------------------------------------------------

 Structure from the checkpoint file:  "G4.Frag_1069.chk"
 ---------
 Frag_1069
 ---------
 Charge =  0 Multiplicity = 1

 SCF Done:  E(RB3LYP) =  -380.725792186     A.U. after    1 cycles

  Exact polarizability:  40.589  -0.000  42.632   1.601  -0.000  32.927
 Approx polarizability:  53.664  -0.000  59.364   0.569  -0.000  48.011

                      1                      2                      3
                      A                      A                      A
 Frequencies --     80.1725               158.2887               226.0643
 Red. masses --      5.0413                 1.1603                 3.3413
 Frc consts  --      0.0191                 0.0171                 0.1006
 IR Inten    --      5.8578                52.9074                 0.1074

                      4                      5                      6
                      A                      A                      A
 Frequencies --    307.1900               332.8016               354.1610
 Red. masses --      1.2731                 1.2067                 2.2519
 Frc consts  --      0.0708                 0.0787                 0.1664
 IR Inten    --      0.4583               103.7941                85.2662

                      7                      8                      9
                      A                      A                      A
 Frequencies --    402.2414               445.5152               512.4155
 Red. masses --      1.6540                 1.9714                 5.3801
 Frc consts  --      0.1577                 0.2305                 0.8323
 IR Inten    --     42.3917               149.9600                17.2359

                     10                     11                     12
                      A                      A                      A
 Frequencies --    537.2282               630.6439               992.0863
 Red. masses --      7.6261                 7.3763                 2.3139
 Frc consts  --      1.2968                 1.7284                 1.3418
 IR Inten    --      0.5953                 6.9818                27.8761

                     13                     14                     15
                      A                      A                      A
 Frequencies --   1057.6580              1079.3566              1082.7072
 Red. masses --      4.4655                 2.9470                 7.3962
 Frc consts  --      2.9432                 2.0229                 5.1083
 IR Inten    --     50.0969                23.5251               305.1378

                     16                     17                     18
                      A                      A                      A
 Frequencies --   1112.9633              1193.5232              1228.0270
 Red. masses --      3.1149                 1.0693                 1.2628
 Frc consts  --      2.2733                 0.8975                 1.1221
 IR Inten    --    208.4744                68.6693                21.1754

                     19                     20                     21
                      A                      A                      A
 Frequencies --   1273.5425              1338.2173              1399.1264
 Red. masses --      1.1340                 1.1783                 1.1625
 Frc consts  --      1.0836                 1.2433                 1.3408
 IR Inten    --     18.0176                93.8627                 1.9585

                     22                     23                     24
                      A                      A                      A
 Frequencies --   1418.2730              1442.6046              1480.3798
 Red. masses --      1.4979                 1.5171                 1.8501
 Frc consts  --      1.7752                 1.8602                 2.3889
 IR Inten    --     69.5930                 0.5531                50.4468

                     25                     26                     27
                      A                      A                      A
 Frequencies --   2911.4561              3004.1762              3807.6378
 Red. masses --      1.0806                 1.0854                 1.0651
 Frc consts  --      5.3969                 5.7715                 9.0980
 IR Inten    --     73.5001                60.9478                12.3086

                     28                     29                     30
                      A                      A                      A
 Frequencies --   3808.6658              3830.5661              3830.7792
 Red. masses --      1.0645                 1.0668                 1.0668
 Frc consts  --      9.0979                 9.2226                 9.2234
 IR Inten    --     68.9885                48.7130                13.4780

 - Thermochemistry -
 -------------------
 Temperature   298.150 Kelvin.  Pressure   1.00000 Atm.
 Atom     1 has atomic number  8 and mass  15.99491

 Molecular mass:    94.02661 amu.
 Principal axes and moments of inertia in atomic units:
                           1         2         3
     Eigenvalues --   367.00118 544.61121 856.33123
           X            0.99967   0.00000   0.02567
           Y           -0.00000   1.00000  -0.00000
           Z           -0.02567   0.00000   0.99967
 This molecule is an asymmetric top.
 Rotational symmetry number  1.
 Rotational temperatures (Kelvin)      0.23600     0.15904     0.10115
 Rotational constants (GHZ):           4.91754     3.31382     2.10753
 Zero-point vibrational energy     246900.1 (Joules/Mol)
                                   59.01053 (Kcal/Mol)
 Warning -- explicit consideration of  10 degrees of freedom as
           vibrations may cause significant error
 Vibrational temperatures:    115.35   227.74   325.26   441.98   478.83
          (Kelvin)            509.56   578.73   641.00   737.25   772.95
                              907.35  1427.39  1521.73  1552.95  1557.77
                             1601.30  1717.21  1766.85  1832.34  1925.39
                             2013.03  2040.58  2075.58  2129.93  4188.93
                             4322.33  5478.33  5479.81  5511.32  5511.63

 Zero-point correction=                           0.094039 (Hartree/Particle)
 Thermal correction to Energy=                    0.101301
 Thermal correction to Enthalpy=                  0.102245
 Thermal correction to Gibbs Free Energy=         0.063172
 Sum of electronic and zero-point Energies=           -380.631753
 Sum of electronic and thermal Energies=              -380.624492
 Sum of electronic and thermal Enthalpies=            -380.623547
 Sum of electronic and thermal Free Energies=         -380.662620

                     E (Thermal)             CV                S
                      KCal/Mol        Cal/Mol-Kelvin    Cal/Mol-Kelvin
 Total                   63.567             25.282             82.235
 Electronic               0.000              0.000              0.000
 Translational            0.889              2.981             39.534
 Rotational               0.889              2.981             26.640
 Vibrational             61.790             19.320             16.061
 Vibration     1          0.600              1.963              3.887
 Vibration     2          0.621              1.893              2.570
 Vibration     3          0.650              1.801              1.910
 Vibration     4          0.697              1.660              1.377
 Vibration     5          0.715              1.610              1.246
 Vibration     6          0.730              1.567              1.148
 Vibration     7          0.768              1.465              0.954
 Vibration     8          0.805              1.371              0.809
 Vibration     9          0.868              1.222              0.628
 Vibration    10          0.892              1.168              0.571

 Normal termination of Gaussian 09 at Fri Aug 26 10:14:17 2022.

 -----------------------------------------------------------------
 #P Geom=AllCheck Guess=TCheck SCRF=Check CCSD(T,E4T,FrzG4)/GTBas1
 -----------------------------------------------------------------

 Structure from the checkpoint file:  "G4.Frag_1069.chk"
 ---------
 Frag_1069
 ---------
 Charge =  0 Multiplicity = 1

 SCF Done:  E(RHF) =  -378.643505431     A.U. after   11 cycles
 E2 =    -0.9736270822D+00 EUMP2 =    -0.37961713251281D+03
 CCSD(T)
 CCSD(T)= -0.37967549300D+03
 \CCSD=-379.6518163\CCSD(T)=-379.675493\RMSD=6.650e-09\PG=C01 [X(C2H6O4
 Normal termination of Gaussian 09 at Fri Aug 26 10:16:12 2022.

 ---------------------------------------------------------
 #P Geom=AllCheck Guess=TCheck SCRF=Check MP4=FrzG4/GTBas2
 ---------------------------------------------------------

 Structure from the checkpoint file:  "G4.Frag_1069.chk"
 ---------
 Frag_1069
 ---------
 Charge =  0 Multiplicity = 1

 SCF Done:  E(RHF) =  -378.659536719     A.U. after   11 cycles
 E2 =    -0.9943043827D+00 EUMP2 =    -0.37965384110179D+03
 Normal termination of Gaussian 09 at Fri Aug 26 10:16:55 2022.

 ---------------------------------------------------------
 #P Geom=AllCheck Guess=TCheck SCRF=Check MP4=FrzG4/GTBas3
 ---------------------------------------------------------

 Structure from the checkpoint file:  "G4.Frag_1069.chk"
 ---------
 Frag_1069
 ---------
 Charge =  0 Multiplicity = 1

 SCF Done:  E(RHF) =  -378.699826144     A.U. after   11 cycles
 E2 =    -0.1212602978D+01 EUMP2 =    -0.37991242912165D+03
 Normal termination of Gaussian 09 at Fri Aug 26 10:20:15 2022.

 -----------------------------------------------------------
 #P Geom=AllCheck Guess=TCheck SCRF=Check MP2=Full/GTLargeXP
 -----------------------------------------------------------

 Structure from the checkpoint file:  "G4.Frag_1069.chk"
 ---------
 Frag_1069
 ---------
 Charge =  0 Multiplicity = 1

 SCF Done:  E(RHF) =  -378.814733893     A.U. after   11 cycles
 E2 =    -0.1577717133D+01 EUMP2 =    -0.38039245102590D+03
 Normal termination of Gaussian 09 at Fri Aug 26 10:22:01 2022.
 SCF Done:  E(RHF) =  -378.846348173     A.U. after    8 cycles
 Normal termination of Gaussian 09 at Fri Aug 26 10:23:24 2022.

                         Standard orientation:
 ---------------------------------------------------------------------
 Center     Atomic      Atomic             Coordinates (Angstroms)
 Number     Number       Type             X           Y           Z
 ---------------------------------------------------------------------
      1          8           0        1.444797   -1.114515   -0.119737
      2          6           0        0.724569    0.000009    0.312543
      3          8           0        1.444808    1.114512   -0.119773
      4          6           0       -0.685332    0.000006   -0.296473
      5          8           0       -1.314684   -1.176120    0.158750
      6          8           0       -1.314709    1.176106    0.158789
      7          1           0        0.880554   -1.877225    0.054772
      8          1           0        0.608742    0.000026    1.414549
      9          1           0        0.880573    1.877232    0.054717
     10          1           0       -0.596386    0.000024   -1.392975
     11          1           0       -2.045284   -1.398468   -0.425875
     12          1           0       -2.045314    1.398459   -0.425830
 ---------------------------------------------------------------------

 SCF Done:  E(RHF) =  -378.853457127     A.U. after    8 cycles

 The electronic state is 1-A.
 Alpha  occ. eigenvalues --  -20.58999 -20.58998 -20.56038 -20.56037 -11.35189
 Alpha  occ. eigenvalues --  -11.33707  -1.44279  -1.40422  -1.36643  -1.33435
 Alpha  occ. eigenvalues --   -0.98337  -0.84682  -0.77499  -0.74154  -0.71884
 Alpha  occ. eigenvalues --   -0.67623  -0.64251  -0.59748  -0.58989  -0.58565
 Alpha  occ. eigenvalues --   -0.51746  -0.51196  -0.49994  -0.49893  -0.42860
 Alpha virt. eigenvalues --    0.02193   0.04781   0.05226   0.05814   0.07365
 Alpha virt. eigenvalues --    0.07699   0.07946   0.10552   0.12311   0.12489
 Alpha virt. eigenvalues --    0.14211   0.14407   0.14442   0.15812   0.15954

 Mulliken charges:
               1
     1  O   -0.570686
     2  C    0.276596
     3  O   -0.570685
     4  C    0.201258
     5  O   -0.590306
     6  O   -0.590304
     7  H    0.387137
     8  H    0.147265
     9  H    0.387135
    10  H    0.175123
    11  H    0.373734
    12  H    0.373733
 Sum of Mulliken charges =  -0.00000

 Dipole moment (field-independent basis, Debye):
    X=             -4.5193    Y=              0.0001    Z=             -1.4651  Tot=              4.7509
 Quadrupole moment (field-independent basis, Debye-Ang):
   XX=            -37.1416   YY=            -31.6455   ZZ=            -34.9184
   XY=              0.0001   XZ=              7.1812   YZ=             -0.0001

 Normal termination of Gaussian 09 at Fri Aug 26 10:29:14 2022.
