 Gaussian 09, Revision E.01,
 Gaussian 09:  ES64L-G09RevE.01 30-Nov-2015

 -----
 #P G4
 -----

 ---------
 Frag_1148
 ---------
 Symbolic Z-matrix:
 Charge =  0 Multiplicity = 1

 SCF Done:  E(RB3LYP) =  -243.452331755     A.U. after   13 cycles
 SCF Done:  E(RB3LYP) =  -243.459155749     A.U. after   12 cycles
 SCF Done:  E(RB3LYP) =  -243.459423534     A.U. after   11 cycles
 SCF Done:  E(RB3LYP) =  -243.458501925     A.U. after   12 cycles
 SCF Done:  E(RB3LYP) =  -243.459545167     A.U. after   10 cycles
 SCF Done:  E(RB3LYP) =  -243.459571049     A.U. after    9 cycles
 SCF Done:  E(RB3LYP) =  -243.459563625     A.U. after    9 cycles
 SCF Done:  E(RB3LYP) =  -243.459573389     A.U. after    9 cycles
 Optimization completed.
    -- Stationary point found.
 Normal termination of Gaussian 09 at Wed Aug 24 14:13:05 2022.

 ----------------------------------------------------------
 #P Geom=AllCheck Guess=TCheck SCRF=Check B3LYP/GTBas3 Freq
 ----------------------------------------------------------

 Structure from the checkpoint file:  "G4.Frag_1148.chk"
 ---------
 Frag_1148
 ---------
 Charge =  0 Multiplicity = 1

 SCF Done:  E(RB3LYP) =  -243.459573390     A.U. after    1 cycles

  Exact polarizability:  49.962   0.002  35.028  -2.520  -0.001  32.750
 Approx polarizability:  76.894   0.010  48.380  -7.394  -0.002  48.932

                      1                      2                      3
                      A                      A                      A
 Frequencies --    202.8085               233.4138               253.5773
 Red. masses --      3.5743                 2.0804                 1.1667
 Frc consts  --      0.0866                 0.0668                 0.0442
 IR Inten    --      1.5564                18.4666                 0.5605

                      4                      5                      6
                      A                      A                      A
 Frequencies --    365.5280               420.3074               587.4551
 Red. masses --      1.5387                 2.7732                 6.9198
 Frc consts  --      0.1211                 0.2886                 1.4070
 IR Inten    --     79.1106                 6.7660                21.8837

                      7                      8                      9
                      A                      A                      A
 Frequencies --    597.4536               783.1848               813.2976
 Red. masses --      3.6182                 1.3225                 3.6130
 Frc consts  --      0.7609                 0.4779                 1.4080
 IR Inten    --      1.2796               389.2999                 4.1907

                     10                     11                     12
                      A                      A                      A
 Frequencies --    834.5404              1077.4007              1123.2726
 Red. masses --      2.0331                 2.9990                 1.9873
 Frc consts  --      0.8343                 2.0511                 1.4774
 IR Inten    --      3.2107                44.9098                43.4540

                     13                     14                     15
                      A                      A                      A
 Frequencies --   1138.1303              1221.1264              1385.8218
 Red. masses --      1.2665                 1.4556                 1.1192
 Frc consts  --      0.9666                 1.2789                 1.2664
 IR Inten    --     12.5766                14.8039                 3.0157

                     16                     17                     18
                      A                      A                      A
 Frequencies --   1430.7608              1647.8144              1663.4178
 Red. masses --      1.5543                 1.0964                 1.0869
 Frc consts  --      1.8746                 1.7540                 1.7719
 IR Inten    --     18.6003                 4.7690                36.7184

                     19                     20                     21
                      A                      A                      A
 Frequencies --   2370.9277              3051.8275              3491.8423
 Red. masses --     12.6671                 1.0834                 1.0490
 Frc consts  --     41.9530                 5.9451                 7.5356
 IR Inten    --      0.3282                 9.7664                 1.3831

                     22                     23                     24
                      A                      A                      A
 Frequencies --   3492.2542              3580.7412              3581.7670
 Red. masses --      1.0475                 1.0935                 1.0944
 Frc consts  --      7.5267                 8.2607                 8.2718
 IR Inten    --      1.0709                 4.8615                 0.0280

 - Thermochemistry -
 -------------------
 Temperature   298.150 Kelvin.  Pressure   1.00000 Atm.
 Atom     1 has atomic number  7 and mass  14.00307

 Molecular mass:    71.04835 amu.
 Principal axes and moments of inertia in atomic units:
                           1         2         3
     Eigenvalues --   211.04699 439.25151 599.37535
           X            0.99998  -0.00000   0.00658
           Y            0.00000   1.00000  -0.00000
           Z           -0.00658   0.00000   0.99998
 This molecule is an asymmetric top.
 Rotational symmetry number  1.
 Rotational temperatures (Kelvin)      0.41040     0.19719     0.14451
 Rotational constants (GHZ):           8.55137     4.10867     3.01104
 Zero-point vibrational energy     211432.0 (Joules/Mol)
                                   50.53346 (Kcal/Mol)
 Warning -- explicit consideration of   7 degrees of freedom as
           vibrations may cause significant error
 Vibrational temperatures:    291.80   335.83   364.84   525.91   604.73
          (Kelvin)            845.22   859.60  1126.83  1170.15  1200.72
                             1550.14  1616.14  1637.51  1756.93  1993.89
                             2058.54  2370.83  2393.28  3411.23  4390.89
                             5023.98  5024.57  5151.88  5153.36

 Zero-point correction=                           0.080530 (Hartree/Particle)
 Thermal correction to Energy=                    0.086207
 Thermal correction to Enthalpy=                  0.087151
 Thermal correction to Gibbs Free Energy=         0.052151
 Sum of electronic and zero-point Energies=           -243.379043
 Sum of electronic and thermal Energies=              -243.373366
 Sum of electronic and thermal Enthalpies=            -243.372422
 Sum of electronic and thermal Free Energies=         -243.407422

                     E (Thermal)             CV                S
                      KCal/Mol        Cal/Mol-Kelvin    Cal/Mol-Kelvin
 Total                   54.096             19.609             73.665
 Electronic               0.000              0.000              0.000
 Translational            0.889              2.981             38.699
 Rotational               0.889              2.981             25.522
 Vibrational             52.318             13.647              9.443
 Vibration     1          0.639              1.836              2.107
 Vibration     2          0.654              1.790              1.853
 Vibration     3          0.665              1.757              1.706
 Vibration     4          0.739              1.543              1.099
 Vibration     5          0.783              1.426              0.891
 Vibration     6          0.945              1.059              0.472
 Vibration     7          0.955              1.037              0.454

 Optimization completed.
    -- Stationary point found.
 Normal termination of Gaussian 09 at Wed Aug 24 14:14:07 2022.

 -----------------------------------------------------------------
 #P Geom=AllCheck Guess=TCheck SCRF=Check CCSD(T,E4T,FrzG4)/GTBas1
 -----------------------------------------------------------------

 Structure from the checkpoint file:  "G4.Frag_1148.chk"
 ---------
 Frag_1148
 ---------
 Charge =  0 Multiplicity = 1

 SCF Done:  E(RHF) =  -241.962997113     A.U. after   13 cycles
 E2 =    -0.7373424145D+00 EUMP2 =    -0.24270033952707D+03
 CCSD(T)
 CCSD(T)= -0.24275720801D+03
 CCSD(T)=-242.757208\RMSD=5.525e-09\PG=C01 [X(C2H5N3)]\\@
 Normal termination of Gaussian 09 at Wed Aug 24 14:15:31 2022.

 ---------------------------------------------------------
 #P Geom=AllCheck Guess=TCheck SCRF=Check MP4=FrzG4/GTBas2
 ---------------------------------------------------------

 Structure from the checkpoint file:  "G4.Frag_1148.chk"
 ---------
 Frag_1148
 ---------
 Charge =  0 Multiplicity = 1

 SCF Done:  E(RHF) =  -241.972619407     A.U. after   13 cycles
 E2 =    -0.7480741743D+00 EUMP2 =    -0.24272069358117D+03
 Normal termination of Gaussian 09 at Wed Aug 24 14:16:52 2022.

 ---------------------------------------------------------
 #P Geom=AllCheck Guess=TCheck SCRF=Check MP4=FrzG4/GTBas3
 ---------------------------------------------------------

 Structure from the checkpoint file:  "G4.Frag_1148.chk"
 ---------
 Frag_1148
 ---------
 Charge =  0 Multiplicity = 1

 SCF Done:  E(RHF) =  -241.995970457     A.U. after   12 cycles
 E2 =    -0.8832559643D+00 EUMP2 =    -0.24287922642103D+03
 Normal termination of Gaussian 09 at Wed Aug 24 14:46:56 2022.

 -----------------------------------------------------------
 #P Geom=AllCheck Guess=TCheck SCRF=Check MP2=Full/GTLargeXP
 -----------------------------------------------------------

 Structure from the checkpoint file:  "G4.Frag_1148.chk"
 ---------
 Frag_1148
 ---------
 Charge =  0 Multiplicity = 1

 SCF Done:  E(RHF) =  -242.059438053     A.U. after   11 cycles
 E2 =    -0.1157590318D+01 EUMP2 =    -0.24321702837131D+03
 Normal termination of Gaussian 09 at Wed Aug 24 14:48:53 2022.
 SCF Done:  E(RHF) =  -242.077644978     A.U. after    9 cycles
 Normal termination of Gaussian 09 at Wed Aug 24 14:51:32 2022.

                         Standard orientation:
 ---------------------------------------------------------------------
 Center     Atomic      Atomic             Coordinates (Angstroms)
 Number     Number       Type             X           Y           Z
 ---------------------------------------------------------------------
      1          7           0        2.187671   -0.000153   -0.124816
      2          6           0        1.057182   -0.000626    0.109736
      3          6           0       -0.396409   -0.000013    0.377800
      4          7           0       -0.940706    1.266289   -0.109037
      5          7           0       -0.941747   -1.265831   -0.109122
      6          1           0       -0.525394    0.000005    1.466852
      7          1           0       -0.859912    1.323260   -1.120292
      8          1           0       -1.926887    1.327678    0.124758
      9          1           0       -1.927978   -1.326429    0.124669
     10          1           0       -0.860986   -1.322812   -1.120380
 ---------------------------------------------------------------------

 SCF Done:  E(RHF) =  -242.081431509     A.U. after    8 cycles

 The electronic state is 1-A.
 Alpha  occ. eigenvalues --  -15.57797 -15.57794 -15.57179 -11.35053 -11.27243
 Alpha  occ. eigenvalues --   -1.27041  -1.21089  -1.16418  -0.95205  -0.76539
 Alpha  occ. eigenvalues --   -0.67782  -0.66408  -0.65530  -0.59121  -0.55171
 Alpha  occ. eigenvalues --   -0.49071  -0.47104  -0.46232  -0.41755
 Alpha virt. eigenvalues --    0.02544   0.04312   0.05054   0.05291   0.07369
 Alpha virt. eigenvalues --    0.07930   0.07995   0.09260   0.09515   0.12307
 Alpha virt. eigenvalues --    0.12421   0.12783   0.13164   0.14636   0.15113

 Mulliken charges:
               1
     1  N   -0.450163
     2  C    0.316255
     3  C    0.050254
     4  N   -0.647877
     5  N   -0.647932
     6  H    0.205254
     7  H    0.296408
     8  H    0.290700
     9  H    0.290696
    10  H    0.296405
 Sum of Mulliken charges =  -0.00000

 Dipole moment (field-independent basis, Debye):
    X=             -5.5638    Y=              0.0008    Z=             -0.5216  Tot=              5.5882
 Quadrupole moment (field-independent basis, Debye-Ang):
   XX=            -33.6669   YY=            -35.1050   ZZ=            -26.6696
   XY=             -0.0035   XZ=              1.0388   YZ=             -0.0004

 Normal termination of Gaussian 09 at Wed Aug 24 16:03:13 2022.
