 Gaussian 09, Revision E.01,
 Gaussian 09:  ES64L-G09RevE.01 30-Nov-2015

 -----
 #P G4
 -----

 ---------
 Frag_1035
 ---------
 Symbolic Z-matrix:
 Charge =  0 Multiplicity = 1

 SCF Done:  E(RB3LYP) =  -367.575383551     A.U. after   13 cycles
 SCF Done:  E(RB3LYP) =  -367.585482201     A.U. after   12 cycles
 SCF Done:  E(RB3LYP) =  -367.586709773     A.U. after   11 cycles
 SCF Done:  E(RB3LYP) =  -367.587145578     A.U. after   11 cycles
 SCF Done:  E(RB3LYP) =  -367.587285570     A.U. after   11 cycles
 SCF Done:  E(RB3LYP) =  -367.587319219     A.U. after    9 cycles
 SCF Done:  E(RB3LYP) =  -367.587323464     A.U. after    8 cycles
 SCF Done:  E(RB3LYP) =  -367.587321974     A.U. after    9 cycles
 SCF Done:  E(RB3LYP) =  -367.587324938     A.U. after    8 cycles
 Optimization completed.
    -- Stationary point found.
 Normal termination of Gaussian 09 at Fri Aug 26 00:20:53 2022.

 ----------------------------------------------------------
 #P Geom=AllCheck Guess=TCheck SCRF=Check B3LYP/GTBas3 Freq
 ----------------------------------------------------------

 Structure from the checkpoint file:  "G4.Frag_1035.chk"
 ---------
 Frag_1035
 ---------
 Charge =  0 Multiplicity = 1

 SCF Done:  E(RB3LYP) =  -367.587324938     A.U. after    1 cycles

  Exact polarizability:  83.869   0.000  76.736  -1.224  -0.000  75.764
 Approx polarizability: 116.020   0.000 108.063   3.061  -0.000 118.245

                      1                      2                      3
                      A                      A                      A
 Frequencies --     78.3943               175.5111               234.9053
 Red. masses --      2.3799                 1.0299                 1.1605
 Frc consts  --      0.0086                 0.0187                 0.0377
 IR Inten    --      2.9650                 0.0148                 0.4881

                      4                      5                      6
                      A                      A                      A
 Frequencies --    247.1691               263.7461               272.2652
 Red. masses --      1.0491                 1.2682                 1.1847
 Frc consts  --      0.0378                 0.0520                 0.0517
 IR Inten    --      1.8753                 0.3605                 1.3818

                      7                      8                      9
                      A                      A                      A
 Frequencies --    301.8061               319.2512               351.3609
 Red. masses --      2.5051                 1.9448                 2.2652
 Frc consts  --      0.1344                 0.1168                 0.1648
 IR Inten    --      4.9388                 0.3796                 1.6788

                     10                     11                     12
                      A                      A                      A
 Frequencies --    374.5878               390.4420               419.5618
 Red. masses --      3.2156                 2.5792                 2.1049
 Frc consts  --      0.2658                 0.2317                 0.2183
 IR Inten    --     14.8983                 2.2695                 2.9866

                     13                     14                     15
                      A                      A                      A
 Frequencies --    423.8124               478.1595               512.8967
 Red. masses --      2.7876                 2.7790                 2.3972
 Frc consts  --      0.2950                 0.3744                 0.3716
 IR Inten    --      5.1045                 5.8466                 5.4395

                     16                     17                     18
                      A                      A                      A
 Frequencies --    513.6961               622.4474               788.7108
 Red. masses --      3.7216                 3.1600                 3.0073
 Frc consts  --      0.5786                 0.7213                 1.1022
 IR Inten    --     10.3243                 2.7466                 0.9309

                     19                     20                     21
                      A                      A                      A
 Frequencies --    857.9411               926.3693               930.7188
 Red. masses --      3.3064                 1.9511                 1.5416
 Frc consts  --      1.4339                 0.9865                 0.7868
 IR Inten    --      4.3840                 0.0066                 0.5365

                     22                     23                     24
                      A                      A                      A
 Frequencies --    938.7589               964.7236               980.6272
 Red. masses --      1.6043                 1.2584                 4.3331
 Frc consts  --      0.8330                 0.6901                 2.4550
 IR Inten    --      0.0479                 1.9217                27.5320

                     25                     26                     27
                      A                      A                      A
 Frequencies --   1036.1781              1053.0550              1095.9915
 Red. masses --      1.3204                 1.4836                 1.2571
 Frc consts  --      0.8353                 0.9693                 0.8897
 IR Inten    --      0.8866                 1.1278                 1.9564

                     28                     29                     30
                      A                      A                      A
 Frequencies --   1186.7150              1200.6391              1204.3350
 Red. masses --      1.7033                 2.4042                 1.9739
 Frc consts  --      1.4133                 2.0420                 1.6868
 IR Inten    --     10.9050                 1.1069                41.5435

                     31                     32                     33
                      A                      A                      A
 Frequencies --   1250.7807              1272.6732              1281.6301
 Red. masses --      1.7934                 2.8589                 2.9158
 Frc consts  --      1.6530                 2.7283                 2.8219
 IR Inten    --      2.6379                 2.9792                 0.6115

                     34                     35                     36
                      A                      A                      A
 Frequencies --   1373.6726              1387.5207              1406.0914
 Red. masses --      1.2790                 1.2365                 1.1632
 Frc consts  --      1.4220                 1.4026                 1.3549
 IR Inten    --     14.7528                20.0507                 0.5946

                     37                     38                     39
                      A                      A                      A
 Frequencies --   1415.1434              1439.4129              1460.9662
 Red. masses --      1.2290                 1.1831                 1.0498
 Frc consts  --      1.4501                 1.4443                 1.3202
 IR Inten    --     16.5995                 1.0747                 1.1417

                     40                     41                     42
                      A                      A                      A
 Frequencies --   1467.9532              1482.1428              1489.8138
 Red. masses --      1.0493                 1.0526                 1.0502
 Frc consts  --      1.3322                 1.3624                 1.3733
 IR Inten    --      3.2696                 3.0449                 2.9731

                     43                     44                     45
                      A                      A                      A
 Frequencies --   1492.7871              1499.4277              1503.1688
 Red. masses --      1.0508                 1.0555                 1.0474
 Frc consts  --      1.3796                 1.3982                 1.3944
 IR Inten    --      4.2092                10.3214                 2.7152

                     46                     47                     48
                      A                      A                      A
 Frequencies --   1508.4961              1519.7580              1531.5262
 Red. masses --      1.0506                 1.0589                 1.0529
 Frc consts  --      1.4086                 1.4410                 1.4551
 IR Inten    --      0.9403                 9.2492                 6.5879

                     49                     50                     51
                      A                      A                      A
 Frequencies --   3040.3941              3042.6074              3048.3291
 Red. masses --      1.0362                 1.0353                 1.0371
 Frc consts  --      5.6434                 5.6469                 5.6782
 IR Inten    --      4.6406                29.0671                17.5099

                     52                     53                     54
                      A                      A                      A
 Frequencies --   3052.3621              3064.1248              3102.6884
 Red. masses --      1.0414                 1.0407                 1.0979
 Frc consts  --      5.7166                 5.7569                 6.2273
 IR Inten    --     10.5678                43.4646                 9.2450

                     55                     56                     57
                      A                      A                      A
 Frequencies --   3105.6104              3114.1721              3122.0860
 Red. masses --      1.1013                 1.0987                 1.1007
 Frc consts  --      6.2583                 6.2781                 6.3211
 IR Inten    --      8.4187                54.6042                35.0857

                     58                     59                     60
                      A                      A                      A
 Frequencies --   3144.3246              3147.5426              3154.9658
 Red. masses --      1.1017                 1.1015                 1.0971
 Frc consts  --      6.4176                 6.4295                 6.4343
 IR Inten    --      0.3515                 1.4076                 0.0000

                     61                     62                     63
                      A                      A                      A
 Frequencies --   3162.1787              3199.9391              3201.7231
 Red. masses --      1.0975                 1.1014                 1.1022
 Frc consts  --      6.4657                 6.6447                 6.6571
 IR Inten    --     21.1569                 6.6712                 5.3578

 - Thermochemistry -
 -------------------
 Temperature   298.150 Kelvin.  Pressure   1.00000 Atm.
 Atom     1 has atomic number  6 and mass  12.00000

 Molecular mass:   117.11536 amu.
 Principal axes and moments of inertia in atomic units:
                           1         2         3
     Eigenvalues --   733.647301012.875691026.57162
           X            0.99813  -0.00000  -0.06115
           Y            0.00000   1.00000  -0.00002
           Z            0.06115   0.00002   0.99813
 This molecule is an asymmetric top.
 Rotational symmetry number  1.
 Warning -- assumption of classical behavior for rotation
           may cause significant error
 Rotational temperatures (Kelvin)      0.11806     0.08551     0.08437
 Rotational constants (GHZ):           2.45996     1.78180     1.75803
 Zero-point vibrational energy     548073.8 (Joules/Mol)
                                  130.99279 (Kcal/Mol)
 Warning -- explicit consideration of  16 degrees of freedom as
           vibrations may cause significant error
 Vibrational temperatures:    112.79   252.52   337.98   355.62   379.47
          (Kelvin)            391.73   434.23   459.33   505.53   538.95
                              561.76   603.66   609.77   687.96   737.94
                              739.09   895.56  1134.78  1234.38  1332.84
                             1339.10  1350.66  1388.02  1410.90  1490.83
                             1515.11  1576.89  1707.42  1727.45  1732.77
                             1799.59  1831.09  1843.98  1976.41  1996.33
                             2023.05  2036.07  2070.99  2102.00  2112.05
                             2132.47  2143.51  2147.78  2157.34  2162.72
                             2170.39  2186.59  2203.52  4374.44  4377.63
                             4385.86  4391.66  4408.59  4464.07  4468.28
                             4480.59  4491.98  4523.98  4528.61  4539.29
                             4549.66  4603.99  4606.56

 Zero-point correction=                           0.208750 (Hartree/Particle)
 Thermal correction to Energy=                    0.218739
 Thermal correction to Enthalpy=                  0.219683
 Thermal correction to Gibbs Free Energy=         0.175434
 Sum of electronic and zero-point Energies=           -367.378575
 Sum of electronic and thermal Energies=              -367.368586
 Sum of electronic and thermal Enthalpies=            -367.367642
 Sum of electronic and thermal Free Energies=         -367.411891

                     E (Thermal)             CV                S
                      KCal/Mol        Cal/Mol-Kelvin    Cal/Mol-Kelvin
 Total                  137.261             39.047             93.130
 Electronic               0.000              0.000              0.000
 Translational            0.889              2.981             40.189
 Rotational               0.889              2.981             28.125
 Vibrational            135.483             33.085             24.816
 Vibration     1          0.600              1.964              3.931
 Vibration     2          0.627              1.873              2.376
 Vibration     3          0.655              1.787              1.841
 Vibration     4          0.661              1.767              1.751
 Vibration     5          0.670              1.739              1.637
 Vibration     6          0.675              1.724              1.582
 Vibration     7          0.694              1.670              1.407
 Vibration     8          0.705              1.637              1.314
 Vibration     9          0.728              1.572              1.160
 Vibration    10          0.746              1.524              1.061
 Vibration    11          0.758              1.491              0.998
 Vibration    12          0.782              1.428              0.893
 Vibration    13          0.786              1.418              0.879
 Vibration    14          0.835              1.299              0.715
 Vibration    15          0.868              1.221              0.627
 Vibration    16          0.869              1.220              0.625

 Normal termination of Gaussian 09 at Fri Aug 26 00:22:32 2022.

 -----------------------------------------------------------------
 #P Geom=AllCheck Guess=TCheck SCRF=Check CCSD(T,E4T,FrzG4)/GTBas1
 -----------------------------------------------------------------

 Structure from the checkpoint file:  "G4.Frag_1035.chk"
 ---------
 Frag_1035
 ---------
 Charge =  0 Multiplicity = 1

 SCF Done:  E(RHF) =  -365.140268703     A.U. after   12 cycles
 E2 =    -0.1154621493D+01 EUMP2 =    -0.36629489019616D+03
 CCSD(T)
 CCSD(T)= -0.36641513533D+03
 -366.3757544\CCSD(T)=-366.4151353\RMSD=7.488e-09\PG=C01 [X(C6H15N1O1)]
 Normal termination of Gaussian 09 at Fri Aug 26 00:33:26 2022.

 ---------------------------------------------------------
 #P Geom=AllCheck Guess=TCheck SCRF=Check MP4=FrzG4/GTBas2
 ---------------------------------------------------------

 Structure from the checkpoint file:  "G4.Frag_1035.chk"
 ---------
 Frag_1035
 ---------
 Charge =  0 Multiplicity = 1

 SCF Done:  E(RHF) =  -365.150020382     A.U. after   12 cycles
 E2 =    -0.1172173845D+01 EUMP2 =    -0.36632219422744D+03
 Normal termination of Gaussian 09 at Fri Aug 26 00:37:12 2022.

 ---------------------------------------------------------
 #P Geom=AllCheck Guess=TCheck SCRF=Check MP4=FrzG4/GTBas3
 ---------------------------------------------------------

 Structure from the checkpoint file:  "G4.Frag_1035.chk"
 ---------
 Frag_1035
 ---------
 Charge =  0 Multiplicity = 1

 SCF Done:  E(RHF) =  -365.183835949     A.U. after   11 cycles
 E2 =    -0.1436990093D+01 EUMP2 =    -0.36662082604191D+03
 Normal termination of Gaussian 09 at Fri Aug 26 01:09:05 2022.

 -----------------------------------------------------------
 #P Geom=AllCheck Guess=TCheck SCRF=Check MP2=Full/GTLargeXP
 -----------------------------------------------------------

 Structure from the checkpoint file:  "G4.Frag_1035.chk"
 ---------
 Frag_1035
 ---------
 Charge =  0 Multiplicity = 1

 SCF Done:  E(RHF) =  -365.270523656     A.U. after   13 cycles
 E2 =    -0.1878073778D+01 EUMP2 =    -0.36714859743471D+03
 Normal termination of Gaussian 09 at Fri Aug 26 01:17:11 2022.
 SCF Done:  E(RHF) =  -365.298944311     A.U. after    9 cycles
 Normal termination of Gaussian 09 at Fri Aug 26 01:20:45 2022.

                         Standard orientation:
 ---------------------------------------------------------------------
 Center     Atomic      Atomic             Coordinates (Angstroms)
 Number     Number       Type             X           Y           Z
 ---------------------------------------------------------------------
      1          6           0        1.249471    0.000278    1.513192
      2          6           0        0.798611   -0.000001    0.048314
      3          6           0        1.300714    1.250278   -0.683965
      4          6           0        1.300681   -1.250577   -0.683483
      5          7           0       -0.788213   -0.000001   -0.107319
      6          6           0       -1.398589    1.211060    0.539761
      7          6           0       -1.398616   -1.211015    0.539827
      8          8           0       -1.125446   -0.000025   -1.415597
      9          1           0        0.918848   -0.888495    2.057144
     10          1           0        2.344354    0.000346    1.536844
     11          1           0        0.918742    0.889202    2.056837
     12          1           0        2.371876    1.152856   -0.878820
     13          1           0        1.159383    2.163507   -0.098732
     14          1           0        0.763995    1.334077   -1.630674
     15          1           0        2.371853   -1.153273   -0.878345
     16          1           0        1.159297   -2.163580   -0.097910
     17          1           0        0.763977   -1.334716   -1.630169
     18          1           0       -2.468177    1.142628    0.346698
     19          1           0       -1.009590    2.092149    0.037389
     20          1           0       -1.204630    1.252856    1.614774
     21          1           0       -1.009602   -2.092141    0.037530
     22          1           0       -2.468197   -1.142594    0.346719
     23          1           0       -1.204701   -1.252741    1.614850
 ---------------------------------------------------------------------

 SCF Done:  E(RHF) =  -365.305091425     A.U. after    8 cycles

 The electronic state is 1-A.
 Alpha  occ. eigenvalues --  -20.45067 -15.68811 -11.28617 -11.25894 -11.25892
 Alpha  occ. eigenvalues --  -11.23283 -11.21145 -11.21143  -1.37359  -1.12206
 Alpha  occ. eigenvalues --   -1.06792  -0.98262  -0.94917  -0.92828  -0.87633
 Alpha  occ. eigenvalues --   -0.74841  -0.68395  -0.65558  -0.63793  -0.61687
 Alpha  occ. eigenvalues --   -0.61414  -0.57652  -0.55764  -0.54977  -0.54672
 Alpha  occ. eigenvalues --   -0.53548  -0.53029  -0.51568  -0.49834  -0.47572
 Alpha  occ. eigenvalues --   -0.47286  -0.36386  -0.36125
 Alpha virt. eigenvalues --    0.02535   0.03589   0.03640   0.04422   0.05279
 Alpha virt. eigenvalues --    0.06228   0.06503   0.06703   0.07014   0.08398
 Alpha virt. eigenvalues --    0.08815   0.09587   0.09597   0.09927   0.10206

 Mulliken charges:
               1
     1  C   -0.651248
     2  C    0.432602
     3  C   -0.679544
     4  C   -0.679558
     5  N    0.581599
     6  C   -0.584353
     7  C   -0.584354
     8  O   -0.743982
     9  H    0.177113
    10  H    0.191364
    11  H    0.177119
    12  H    0.181954
    13  H    0.162288
    14  H    0.249391
    15  H    0.181965
    16  H    0.162296
    17  H    0.249370
    18  H    0.205002
    19  H    0.208966
    20  H    0.174020
    21  H    0.208967
    22  H    0.205004
    23  H    0.174018
 Sum of Mulliken charges =  -0.00000

 Dipole moment (field-independent basis, Debye):
    X=              1.4876    Y=              0.0000    Z=              4.4681  Tot=              4.7093
 Quadrupole moment (field-independent basis, Debye-Ang):
   XX=            -51.9646   YY=            -49.9126   ZZ=            -58.2355
   XY=             -0.0002   XZ=             -6.1498   YZ=             -0.0001

 Normal termination of Gaussian 09 at Fri Aug 26 01:45:35 2022.
