 Gaussian 09, Revision E.01,
 Gaussian 09:  ES64L-G09RevE.01 30-Nov-2015

 -----
 #P G4
 -----

 --------
 Frag_464
 --------
 Symbolic Z-matrix:
 Charge =  0 Multiplicity = 1

 SCF Done:  E(RB3LYP) =  -327.133020305     A.U. after   14 cycles
 SCF Done:  E(RB3LYP) =  -327.142274453     A.U. after   12 cycles
 SCF Done:  E(RB3LYP) =  -327.142925470     A.U. after   12 cycles
 SCF Done:  E(RB3LYP) =  -327.143076951     A.U. after   11 cycles
 SCF Done:  E(RB3LYP) =  -327.143110330     A.U. after   11 cycles
 SCF Done:  E(RB3LYP) =  -327.143150500     A.U. after    9 cycles
 SCF Done:  E(RB3LYP) =  -327.143162805     A.U. after    9 cycles
 SCF Done:  E(RB3LYP) =  -327.143167616     A.U. after    9 cycles
 SCF Done:  E(RB3LYP) =  -327.143172220     A.U. after    9 cycles
 SCF Done:  E(RB3LYP) =  -327.143174131     A.U. after    9 cycles
 SCF Done:  E(RB3LYP) =  -327.144243105     A.U. after   11 cycles
 SCF Done:  E(RB3LYP) =  -327.144249511     A.U. after    9 cycles
 SCF Done:  E(RB3LYP) =  -327.144250001     A.U. after    7 cycles
 Optimization completed.
    -- Stationary point found.
 Normal termination of Gaussian 09 at Fri Aug 26 12:47:44 2022.

 ----------------------------------------------------------
 #P Geom=AllCheck Guess=TCheck SCRF=Check B3LYP/GTBas3 Freq
 ----------------------------------------------------------

 Structure from the checkpoint file:  "G4.Frag_464.chk"
 --------
 Frag_464
 --------
 Charge =  0 Multiplicity = 1

 SCF Done:  E(RB3LYP) =  -327.144250001     A.U. after    1 cycles

  Exact polarizability:  70.191  -1.978  68.672   0.215  -0.495  55.427
 Approx polarizability:  91.120  -7.481 105.059  -1.556   2.433  82.487

                      1                      2                      3
                      A                      A                      A
 Frequencies --     58.1171               145.0073               208.5943
 Red. masses --      3.5403                 1.0442                 1.1998
 Frc consts  --      0.0070                 0.0129                 0.0308
 IR Inten    --      3.1051                 0.2552                 0.5657

                      4                      5                      6
                      A                      A                      A
 Frequencies --    239.7002               269.5501               282.4441
 Red. masses --      1.2642                 2.5164                 1.7089
 Frc consts  --      0.0428                 0.1077                 0.0803
 IR Inten    --      0.3361                 3.8441                 1.6971

                      7                      8                      9
                      A                      A                      A
 Frequencies --    349.3835               358.3939               375.7541
 Red. masses --      1.1018                 2.4086                 3.2889
 Frc consts  --      0.0792                 0.1823                 0.2736
 IR Inten    --     90.6152                 3.3354                 3.3836

                     10                     11                     12
                      A                      A                      A
 Frequencies --    389.7934               500.9314               539.5388
 Red. masses --      2.6916                 2.8685                 3.2668
 Frc consts  --      0.2410                 0.4241                 0.5603
 IR Inten    --     10.2396                15.1609                 7.8690

                     13                     14                     15
                      A                      A                      A
 Frequencies --    604.2712               687.5991               857.2908
 Red. masses --      2.6812                 3.2639                 2.0391
 Frc consts  --      0.5768                 0.9092                 0.8830
 IR Inten    --      0.7261                 3.8509                15.2821

                     16                     17                     18
                      A                      A                      A
 Frequencies --    900.2827               939.9287               954.2060
 Red. masses --      1.5547                 1.5404                 2.0460
 Frc consts  --      0.7424                 0.8018                 1.0976
 IR Inten    --     11.1446                 0.5514                25.1352

                     19                     20                     21
                      A                      A                      A
 Frequencies --    992.0675              1016.6644              1078.5772
 Red. masses --      1.6861                 1.3500                 1.5583
 Frc consts  --      0.9777                 0.8222                 1.0680
 IR Inten    --     24.6212                 1.5797                22.7899

                     22                     23                     24
                      A                      A                      A
 Frequencies --   1086.9289              1130.6912              1203.8257
 Red. masses --      1.5409                 1.7044                 2.7045
 Frc consts  --      1.0726                 1.2838                 2.3092
 IR Inten    --     40.6161                46.6244                38.7049

                     25                     26                     27
                      A                      A                      A
 Frequencies --   1232.8498              1359.3194              1371.4737
 Red. masses --      2.0509                 1.5048                 1.5730
 Frc consts  --      1.8366                 1.6382                 1.7432
 IR Inten    --     31.3354                58.0120                28.0750

                     28                     29                     30
                      A                      A                      A
 Frequencies --   1396.4467              1402.0254              1416.0534
 Red. masses --      1.3855                 1.4767                 1.2397
 Frc consts  --      1.5918                 1.7102                 1.4646
 IR Inten    --     39.0564                 2.3337                 8.1500

                     31                     32                     33
                      A                      A                      A
 Frequencies --   1468.3853              1478.0382              1478.8096
 Red. masses --      1.0508                 1.0596                 1.0517
 Frc consts  --      1.3350                 1.3638                 1.3551
 IR Inten    --      6.5715                 3.2283                 3.3923

                     34                     35                     36
                      A                      A                      A
 Frequencies --   1490.8011              1496.6921              1507.3819
 Red. masses --      1.0637                 1.0601                 1.0639
 Frc consts  --      1.3929                 1.3991                 1.4243
 IR Inten    --     10.7402                 8.1544                 0.9345

                     37                     38                     39
                      A                      A                      A
 Frequencies --   1724.5174              3037.6705              3045.5978
 Red. masses --      8.7106                 1.0379                 1.0349
 Frc consts  --     15.2628                 5.6425                 5.6556
 IR Inten    --     50.0534                 7.3451                19.0500

                     40                     41                     42
                      A                      A                      A
 Frequencies --   3050.3469              3101.8296              3118.4153
 Red. masses --      1.0355                 1.0970                 1.1026
 Frc consts  --      5.6768                 6.2187                 6.3175
 IR Inten    --      8.5254                16.5125                15.1619

                     43                     44                     45
                      A                      A                      A
 Frequencies --   3122.3842              3130.1038              3134.0826
 Red. masses --      1.1017                 1.1013                 1.1016
 Frc consts  --      6.3285                 6.3574                 6.3750
 IR Inten    --     18.2816                18.8082                 4.4331

                     46                     47                     48
                      A                      A                      A
 Frequencies --   3136.3621              3416.7762              3801.3700
 Red. masses --      1.1006                 1.0742                 1.0661
 Frc consts  --      6.3787                 7.3888                 9.0769
 IR Inten    --     24.3936                 7.7681                15.5375

 - Thermochemistry -
 -------------------
 Temperature   298.150 Kelvin.  Pressure   1.00000 Atm.
 Atom     1 has atomic number  6 and mass  12.00000

 Molecular mass:   101.08406 amu.
 Principal axes and moments of inertia in atomic units:
                           1         2         3
     Eigenvalues --   553.56193 765.58378 940.04363
           X            0.99457   0.10181   0.02178
           Y           -0.10006   0.99250  -0.07022
           Z           -0.02877   0.06766   0.99729
 This molecule is an asymmetric top.
 Rotational symmetry number  1.
 Warning -- assumption of classical behavior for rotation
           may cause significant error
 Rotational temperatures (Kelvin)      0.15647     0.11313     0.09214
 Rotational constants (GHZ):           3.26023     2.35734     1.91985
 Zero-point vibrational energy     413233.7 (Joules/Mol)
                                   98.76522 (Kcal/Mol)
 Warning -- explicit consideration of  13 degrees of freedom as
           vibrations may cause significant error
 Vibrational temperatures:     83.62   208.63   300.12   344.87   387.82
          (Kelvin)            406.37   502.68   515.65   540.63   560.83
                              720.73   776.28   869.41   989.30  1233.45
                             1295.30  1352.35  1372.89  1427.36  1462.75
                             1551.83  1563.85  1626.81  1732.03  1773.79
                             1955.75  1973.24  2009.17  2017.20  2037.38
                             2112.68  2126.56  2127.67  2144.93  2153.40
                             2168.78  2481.19  4370.52  4381.93  4388.76
                             4462.84  4486.70  4492.41  4503.52  4509.24
                             4512.52  4915.97  5469.32

 Zero-point correction=                           0.157392 (Hartree/Particle)
 Thermal correction to Energy=                    0.166167
 Thermal correction to Enthalpy=                  0.167111
 Thermal correction to Gibbs Free Energy=         0.124841
 Sum of electronic and zero-point Energies=           -326.986858
 Sum of electronic and thermal Energies=              -326.978083
 Sum of electronic and thermal Enthalpies=            -326.977139
 Sum of electronic and thermal Free Energies=         -327.019409

                     E (Thermal)             CV                S
                      KCal/Mol        Cal/Mol-Kelvin    Cal/Mol-Kelvin
 Total                  104.271             32.293             88.966
 Electronic               0.000              0.000              0.000
 Translational            0.889              2.981             39.750
 Rotational               0.889              2.981             27.479
 Vibrational            102.494             26.332             21.736
 Vibration     1          0.596              1.974              4.520
 Vibration     2          0.616              1.908              2.737
 Vibration     3          0.642              1.828              2.056
 Vibration     4          0.657              1.780              1.805
 Vibration     5          0.674              1.729              1.599
 Vibration     6          0.681              1.706              1.519
 Vibration     7          0.727              1.577              1.169
 Vibration     8          0.733              1.558              1.129
 Vibration     9          0.747              1.522              1.056
 Vibration    10          0.758              1.492              1.001
 Vibration    11          0.856              1.248              0.656
 Vibration    12          0.895              1.163              0.566
 Vibration    13          0.963              1.023              0.442

 Normal termination of Gaussian 09 at Fri Aug 26 12:48:39 2022.

 -----------------------------------------------------------------
 #P Geom=AllCheck Guess=TCheck SCRF=Check CCSD(T,E4T,FrzG4)/GTBas1
 -----------------------------------------------------------------

 Structure from the checkpoint file:  "G4.Frag_464.chk"
 --------
 Frag_464
 --------
 Charge =  0 Multiplicity = 1

 SCF Done:  E(RHF) =  -325.034753204     A.U. after   13 cycles
 E2 =    -0.9961376960D+00 EUMP2 =    -0.32603089089990D+03
 CCSD(T)
 CCSD(T)= -0.32612883536D+03
 956454\CCSD(T)=-326.1288354\RMSD=5.604e-09\PG=C01 [X(C5H11N1O1)]\\@
 Normal termination of Gaussian 09 at Fri Aug 26 12:53:25 2022.

 ---------------------------------------------------------
 #P Geom=AllCheck Guess=TCheck SCRF=Check MP4=FrzG4/GTBas2
 ---------------------------------------------------------

 Structure from the checkpoint file:  "G4.Frag_464.chk"
 --------
 Frag_464
 --------
 Charge =  0 Multiplicity = 1

 SCF Done:  E(RHF) =  -325.044135813     A.U. after   13 cycles
 E2 =    -0.1010478404D+01 EUMP2 =    -0.32605461421698D+03
 Normal termination of Gaussian 09 at Fri Aug 26 12:54:52 2022.

 ---------------------------------------------------------
 #P Geom=AllCheck Guess=TCheck SCRF=Check MP4=FrzG4/GTBas3
 ---------------------------------------------------------

 Structure from the checkpoint file:  "G4.Frag_464.chk"
 --------
 Frag_464
 --------
 Charge =  0 Multiplicity = 1

 SCF Done:  E(RHF) =  -325.078174583     A.U. after   11 cycles
 E2 =    -0.1228488172D+01 EUMP2 =    -0.32630666275560D+03
 Normal termination of Gaussian 09 at Fri Aug 26 13:07:39 2022.

 -----------------------------------------------------------
 #P Geom=AllCheck Guess=TCheck SCRF=Check MP2=Full/GTLargeXP
 -----------------------------------------------------------

 Structure from the checkpoint file:  "G4.Frag_464.chk"
 --------
 Frag_464
 --------
 Charge =  0 Multiplicity = 1

 SCF Done:  E(RHF) =  -325.157498253     A.U. after   12 cycles
 E2 =    -0.1612860817D+01 EUMP2 =    -0.32677035907026D+03
 Normal termination of Gaussian 09 at Fri Aug 26 13:11:39 2022.
 SCF Done:  E(RHF) =  -325.183058265     A.U. after    8 cycles
 Normal termination of Gaussian 09 at Fri Aug 26 13:15:22 2022.

                         Standard orientation:
 ---------------------------------------------------------------------
 Center     Atomic      Atomic             Coordinates (Angstroms)
 Number     Number       Type             X           Y           Z
 ---------------------------------------------------------------------
      1          6           0       -1.867947   -0.867143   -0.068310
      2          6           0       -0.902315    0.292629    0.053067
      3          7           0       -1.240580    1.511995    0.189372
      4          6           0        0.593685   -0.060096   -0.022676
      5          6           0        0.978776   -1.020627    1.108803
      6          6           0        1.479293    1.186388    0.000288
      7          8           0        0.813125   -0.800958   -1.236450
      8          1           0       -1.538779   -1.562624   -0.843763
      9          1           0       -2.875239   -0.510467   -0.299371
     10          1           0       -1.915953   -1.428213    0.872133
     11          1           0       -2.260172    1.603828    0.206284
     12          1           0        2.044732   -1.254556    1.041249
     13          1           0        0.423503   -1.958651    1.035663
     14          1           0        0.780140   -0.567727    2.084394
     15          1           0        1.206561    1.873628   -0.805581
     16          1           0        1.366831    1.735348    0.937341
     17          1           0        2.524182    0.886440   -0.119991
     18          1           0        0.734297   -0.180216   -1.969395
 ---------------------------------------------------------------------

 SCF Done:  E(RHF) =  -325.188490404     A.U. after    8 cycles

 The electronic state is 1-A.
 Alpha  occ. eigenvalues --  -20.55858 -15.54463 -11.29424 -11.28459 -11.23033
 Alpha  occ. eigenvalues --  -11.21891 -11.21011  -1.36715  -1.21344  -1.04892
 Alpha  occ. eigenvalues --   -0.98868  -0.93681  -0.84635  -0.74632  -0.66133
 Alpha  occ. eigenvalues --   -0.64972  -0.62999  -0.61592  -0.58808  -0.56605
 Alpha  occ. eigenvalues --   -0.53773  -0.53645  -0.52740  -0.50787  -0.47552
 Alpha  occ. eigenvalues --   -0.46769  -0.42385  -0.40558
 Alpha virt. eigenvalues --    0.03170   0.03998   0.04287   0.05216   0.06172
 Alpha virt. eigenvalues --    0.06759   0.06861   0.07087   0.07328   0.09115
 Alpha virt. eigenvalues --    0.09447   0.09762   0.10293   0.10896   0.11504

 Mulliken charges:
               1
     1  C   -0.607196
     2  C    0.266355
     3  N   -0.645141
     4  C    0.477835
     5  C   -0.580616
     6  C   -0.597743
     7  O   -0.620122
     8  H    0.219652
     9  H    0.167487
    10  H    0.187258
    11  H    0.277551
    12  H    0.176213
    13  H    0.172006
    14  H    0.184468
    15  H    0.177427
    16  H    0.192764
    17  H    0.182347
    18  H    0.369455
 Sum of Mulliken charges =  -0.00000

 Dipole moment (field-independent basis, Debye):
    X=             -1.0103    Y=             -0.7065    Z=              0.0203  Tot=              1.2330
 Quadrupole moment (field-independent basis, Debye-Ang):
   XX=            -41.0894   YY=            -50.2644   ZZ=            -42.7564
   XY=              2.3467   XZ=              0.7601   YZ=             -3.0407

 Normal termination of Gaussian 09 at Fri Aug 26 13:28:43 2022.
