 Gaussian 09, Revision E.01,
 Gaussian 09:  ES64L-G09RevE.01 30-Nov-2015

 -----
 #P G4
 -----

 --------
 Frag_549
 --------
 Symbolic Z-matrix:
 Charge =  0 Multiplicity = 1

 SCF Done:  E(RB3LYP) =  -269.152951615     A.U. after   12 cycles
 SCF Done:  E(RB3LYP) =  -269.158449297     A.U. after   11 cycles
 SCF Done:  E(RB3LYP) =  -269.159109153     A.U. after   10 cycles
 SCF Done:  E(RB3LYP) =  -269.159273657     A.U. after   10 cycles
 SCF Done:  E(RB3LYP) =  -269.159328523     A.U. after   10 cycles
 SCF Done:  E(RB3LYP) =  -269.159359528     A.U. after    9 cycles
 SCF Done:  E(RB3LYP) =  -269.159373096     A.U. after    9 cycles
 SCF Done:  E(RB3LYP) =  -269.159378480     A.U. after    9 cycles
 SCF Done:  E(RB3LYP) =  -269.159379693     A.U. after    7 cycles
 SCF Done:  E(RB3LYP) =  -269.159379858     A.U. after    6 cycles
 SCF Done:  E(RB3LYP) =  -269.159379911     A.U. after    6 cycles
 Optimization completed.
    -- Stationary point found.
 Normal termination of Gaussian 09 at Fri Aug 26 12:02:55 2022.

 ----------------------------------------------------------
 #P Geom=AllCheck Guess=TCheck SCRF=Check B3LYP/GTBas3 Freq
 ----------------------------------------------------------

 Structure from the checkpoint file:  "G4.Frag_549.chk"
 --------
 Frag_549
 --------
 Charge =  0 Multiplicity = 1

 SCF Done:  E(RB3LYP) =  -269.159379911     A.U. after    1 cycles

  Exact polarizability:  67.018  -0.327  59.639   0.143   0.578  54.104
 Approx polarizability:  85.833   0.227  81.988  -0.584   0.056  78.998

                      1                      2                      3
                      A                      A                      A
 Frequencies --     82.7936               191.5522               199.3682
 Red. masses --      2.3161                 1.1469                 1.0608
 Frc consts  --      0.0094                 0.0248                 0.0248
 IR Inten    --      2.1702                 2.3768                28.7634

                      4                      5                      6
                      A                      A                      A
 Frequencies --    230.1594               248.0047               260.0032
 Red. masses --      1.5416                 1.0763                 1.5007
 Frc consts  --      0.0481                 0.0390                 0.0598
 IR Inten    --      2.2941                 9.8167                 4.9116

                      7                      8                      9
                      A                      A                      A
 Frequencies --    311.0335               367.1475               429.4344
 Red. masses --      2.2991                 2.4881                 2.1078
 Frc consts  --      0.1310                 0.1976                 0.2290
 IR Inten    --      1.1525                 2.0551                 0.7657

                     10                     11                     12
                      A                      A                      A
 Frequencies --    497.8623               591.4993               764.0132
 Red. masses --      2.8524                 2.8492                 2.4765
 Frc consts  --      0.4166                 0.5873                 0.8517
 IR Inten    --      7.1050                 7.3119                31.5920

                     13                     14                     15
                      A                      A                      A
 Frequencies --    844.1014               914.1885               981.1186
 Red. masses --      1.7328                 1.8321                 1.6792
 Frc consts  --      0.7274                 0.9021                 0.9523
 IR Inten    --     83.5573                 9.1428                10.7194

                     16                     17                     18
                      A                      A                      A
 Frequencies --   1025.6959              1068.7261              1084.2003
 Red. masses --      1.7712                 1.6722                 1.7684
 Frc consts  --      1.0979                 1.1253                 1.2248
 IR Inten    --     22.4154                12.2406                27.7195

                     19                     20                     21
                      A                      A                      A
 Frequencies --   1114.4546              1117.4532              1183.5105
 Red. masses --      1.9134                 1.2990                 1.4778
 Frc consts  --      1.4002                 0.9557                 1.2196
 IR Inten    --     24.3632                 7.0416                 9.6439

                     22                     23                     24
                      A                      A                      A
 Frequencies --   1250.0745              1255.1417              1312.6983
 Red. masses --      2.5065                 1.4867                 2.3858
 Frc consts  --      2.3077                 1.3799                 2.4223
 IR Inten    --     22.1777                 8.9480                34.2322

                     25                     26                     27
                      A                      A                      A
 Frequencies --   1373.4607              1396.5367              1428.0021
 Red. masses --      1.2753                 1.2552                 1.4507
 Frc consts  --      1.4175                 1.4423                 1.7430
 IR Inten    --     14.3748                 8.0753                28.7696

                     28                     29                     30
                      A                      A                      A
 Frequencies --   1436.8728              1469.3123              1476.3859
 Red. masses --      1.1525                 1.1682                 1.0509
 Frc consts  --      1.4020                 1.4859                 1.3496
 IR Inten    --      0.0649                 7.9836                 5.7615

                     31                     32                     33
                      A                      A                      A
 Frequencies --   1488.6070              1492.6929              1507.4575
 Red. masses --      1.0520                 1.0807                 1.0565
 Frc consts  --      1.3735                 1.4187                 1.4145
 IR Inten    --      6.3264                 3.7864                 2.8436

                     34                     35                     36
                      A                      A                      A
 Frequencies --   1508.4684              1520.4345              1653.7735
 Red. masses --      1.0591                 1.0532                 1.0934
 Frc consts  --      1.4198                 1.4345                 1.7620
 IR Inten    --      3.0056                 8.7477                33.6923

                     37                     38                     39
                      A                      A                      A
 Frequencies --   2922.9348              2948.1857              2983.0040
 Red. masses --      1.0605                 1.0828                 1.0516
 Frc consts  --      5.3381                 5.5451                 5.5131
 IR Inten    --     80.5422                65.3374                55.9616

                     40                     41                     42
                      A                      A                      A
 Frequencies --   3043.3650              3047.5550              3067.7276
 Red. masses --      1.0368                 1.0697                 1.0834
 Frc consts  --      5.6581                 5.8537                 6.0070
 IR Inten    --     17.1847                37.8350                34.0630

                     43                     44                     45
                      A                      A                      A
 Frequencies --   3091.4570              3106.4892              3114.0457
 Red. masses --      1.1024                 1.1004                 1.0983
 Frc consts  --      6.2075                 6.2567                 6.2750
 IR Inten    --     28.5775                39.3822                23.4768

                     46                     47                     48
                      A                      A                      A
 Frequencies --   3135.0315              3494.0275              3571.4314
 Red. masses --      1.1022                 1.0492                 1.0923
 Frc consts  --      6.3825                 7.5467                 8.2084
 IR Inten    --     18.3817                 0.2968                 0.1520

 - Thermochemistry -
 -------------------
 Temperature   298.150 Kelvin.  Pressure   1.00000 Atm.
 Atom     1 has atomic number  6 and mass  12.00000

 Molecular mass:    88.10005 amu.
 Principal axes and moments of inertia in atomic units:
                           1         2         3
     Eigenvalues --   389.57403 648.80790 760.36988
           X            0.99954  -0.02641   0.01488
           Y            0.02555   0.99815   0.05525
           Z           -0.01631  -0.05485   0.99836
 This molecule is an asymmetric top.
 Rotational symmetry number  1.
 Rotational temperatures (Kelvin)      0.22233     0.13350     0.11391
 Rotational constants (GHZ):           4.63260     2.78163     2.37350
 Zero-point vibrational energy     434253.4 (Joules/Mol)
                                  103.78904 (Kcal/Mol)
 Warning -- explicit consideration of  11 degrees of freedom as
           vibrations may cause significant error
 Vibrational temperatures:    119.12   275.60   286.85   331.15   356.82
          (Kelvin)            374.09   447.51   528.24   617.86   716.31
                              851.03  1099.24  1214.47  1315.31  1411.61
                             1475.75  1537.66  1559.92  1603.45  1607.76
                             1702.81  1798.58  1805.87  1888.68  1976.10
                             2009.30  2054.57  2067.34  2114.01  2124.19
                             2141.77  2147.65  2168.89  2170.35  2187.56
                             2379.41  4205.45  4241.78  4291.87  4378.72
                             4384.75  4413.77  4447.91  4469.54  4480.41
                             4510.61  5027.12  5138.49

 Zero-point correction=                           0.165398 (Hartree/Particle)
 Thermal correction to Energy=                    0.173537
 Thermal correction to Enthalpy=                  0.174481
 Thermal correction to Gibbs Free Energy=         0.133965
 Sum of electronic and zero-point Energies=           -268.993982
 Sum of electronic and thermal Energies=              -268.985843
 Sum of electronic and thermal Enthalpies=            -268.984898
 Sum of electronic and thermal Free Energies=         -269.025414

                     E (Thermal)             CV                S
                      KCal/Mol        Cal/Mol-Kelvin    Cal/Mol-Kelvin
 Total                  108.896             29.178             85.273
 Electronic               0.000              0.000              0.000
 Translational            0.889              2.981             39.340
 Rotational               0.889              2.981             26.755
 Vibrational            107.119             23.216             19.178
 Vibration     1          0.600              1.961              3.824
 Vibration     2          0.634              1.852              2.213
 Vibration     3          0.637              1.841              2.139
 Vibration     4          0.652              1.795              1.878
 Vibration     5          0.662              1.766              1.745
 Vibration     6          0.668              1.746              1.662
 Vibration     7          0.700              1.653              1.357
 Vibration     8          0.740              1.540              1.092
 Vibration     9          0.791              1.406              0.861
 Vibration    10          0.853              1.255              0.663
 Vibration    11          0.949              1.050              0.465

 Optimization completed.
    -- Stationary point found.
 Normal termination of Gaussian 09 at Fri Aug 26 12:03:39 2022.

 -----------------------------------------------------------------
 #P Geom=AllCheck Guess=TCheck SCRF=Check CCSD(T,E4T,FrzG4)/GTBas1
 -----------------------------------------------------------------

 Structure from the checkpoint file:  "G4.Frag_549.chk"
 --------
 Frag_549
 --------
 Charge =  0 Multiplicity = 1

 SCF Done:  E(RHF) =  -267.326096147     A.U. after   12 cycles
 E2 =    -0.8574666185D+00 EUMP2 =    -0.26818356276563D+03
 CCSD(T)
 CCSD(T)= -0.26827714900D+03
 Normal termination of Gaussian 09 at Fri Aug 26 12:06:25 2022.

 ---------------------------------------------------------
 #P Geom=AllCheck Guess=TCheck SCRF=Check MP4=FrzG4/GTBas2
 ---------------------------------------------------------

 Structure from the checkpoint file:  "G4.Frag_549.chk"
 --------
 Frag_549
 --------
 Charge =  0 Multiplicity = 1

 SCF Done:  E(RHF) =  -267.333240472     A.U. after   11 cycles
 E2 =    -0.8703128945D+00 EUMP2 =    -0.26820355336633D+03
 Normal termination of Gaussian 09 at Fri Aug 26 12:07:23 2022.

 ---------------------------------------------------------
 #P Geom=AllCheck Guess=TCheck SCRF=Check MP4=FrzG4/GTBas3
 ---------------------------------------------------------

 Structure from the checkpoint file:  "G4.Frag_549.chk"
 --------
 Frag_549
 --------
 Charge =  0 Multiplicity = 1

 SCF Done:  E(RHF) =  -267.363686328     A.U. after   10 cycles
 E2 =    -0.1067446374D+01 EUMP2 =    -0.26843113270127D+03
 Normal termination of Gaussian 09 at Fri Aug 26 12:12:56 2022.

 -----------------------------------------------------------
 #P Geom=AllCheck Guess=TCheck SCRF=Check MP2=Full/GTLargeXP
 -----------------------------------------------------------

 Structure from the checkpoint file:  "G4.Frag_549.chk"
 --------
 Frag_549
 --------
 Charge =  0 Multiplicity = 1

 SCF Done:  E(RHF) =  -267.426390692     A.U. after   12 cycles
 E2 =    -0.1396938472D+01 EUMP2 =    -0.26882332916408D+03
 Normal termination of Gaussian 09 at Fri Aug 26 12:15:42 2022.
 SCF Done:  E(RHF) =  -267.447122242     A.U. after    8 cycles
 Normal termination of Gaussian 09 at Fri Aug 26 12:18:35 2022.

                         Standard orientation:
 ---------------------------------------------------------------------
 Center     Atomic      Atomic             Coordinates (Angstroms)
 Number     Number       Type             X           Y           Z
 ---------------------------------------------------------------------
      1          6           0       -1.768835    0.695579   -0.524793
      2          6           0       -0.652240   -0.334568   -0.347446
      3          7           0       -0.899102   -1.091758    0.895732
      4          7           0        0.668850    0.285522   -0.366512
      5          6           0        1.745747   -0.681565   -0.498351
      6          6           0        0.928960    1.227723    0.715316
      7          1           0       -1.535281    1.361715   -1.358265
      8          1           0       -2.716617    0.191070   -0.739635
      9          1           0       -1.907813    1.290987    0.381668
     10          1           0       -0.663519   -0.990296   -1.234315
     11          1           0       -0.366760   -1.956462    0.893802
     12          1           0       -1.876619   -1.361623    0.948536
     13          1           0        2.685100   -0.159189   -0.709694
     14          1           0        1.913244   -1.298433    0.405134
     15          1           0        1.540151   -1.354416   -1.337919
     16          1           0        0.932463    0.759122    1.712088
     17          1           0        1.905319    1.694502    0.548334
     18          1           0        0.180306    2.023660    0.717370
 ---------------------------------------------------------------------

 SCF Done:  E(RHF) =  -267.451691870     A.U. after    8 cycles

 The electronic state is 1-A.
 Alpha  occ. eigenvalues --  -15.53639 -15.53555 -11.27869 -11.23901 -11.22942
 Alpha  occ. eigenvalues --  -11.21012  -1.23824  -1.14632  -0.98865  -0.94226
 Alpha  occ. eigenvalues --   -0.87678  -0.76365  -0.66312  -0.66146  -0.63224
 Alpha  occ. eigenvalues --   -0.59688  -0.58066  -0.54655  -0.53118  -0.51851
 Alpha  occ. eigenvalues --   -0.50900  -0.49405  -0.47910  -0.39615  -0.35186
 Alpha virt. eigenvalues --    0.03634   0.03936   0.04308   0.05182   0.05863
 Alpha virt. eigenvalues --    0.06740   0.07167   0.07228   0.08163   0.09431
 Alpha virt. eigenvalues --    0.09732   0.10297   0.11183   0.12103   0.13210

 Mulliken charges:
               1
     1  C   -0.579358
     2  C    0.123447
     3  N   -0.739969
     4  N    0.001259
     5  C   -0.527224
     6  C   -0.506178
     7  H    0.186773
     8  H    0.162305
     9  H    0.180846
    10  H    0.145799
    11  H    0.289215
    12  H    0.285462
    13  H    0.165543
    14  H    0.139693
    15  H    0.166515
    16  H    0.176735
    17  H    0.163810
    18  H    0.165328
 Sum of Mulliken charges =  -0.00000

 Dipole moment (field-independent basis, Debye):
    X=             -0.4527    Y=             -1.1427    Z=             -0.3621  Tot=              1.2813
 Quadrupole moment (field-independent basis, Debye-Ang):
   XX=            -37.4364   YY=            -37.4877   ZZ=            -43.5260
   XY=              0.7243   XZ=              0.7046   YZ=              0.9633

 Normal termination of Gaussian 09 at Fri Aug 26 12:28:31 2022.
