 Gaussian 09, Revision E.01,
 Gaussian 09:  ES64L-G09RevE.01 30-Nov-2015

 -----
 #P G4
 -----

 --------
 Frag_790
 --------
 Symbolic Z-matrix:
 Charge =  0 Multiplicity = 1

 SCF Done:  E(RB3LYP) =  -251.857518519     A.U. after   15 cycles
 SCF Done:  E(RB3LYP) =  -251.897722828     A.U. after   12 cycles
 SCF Done:  E(RB3LYP) =  -251.912251546     A.U. after   12 cycles
 SCF Done:  E(RB3LYP) =  -251.913560472     A.U. after   11 cycles
 SCF Done:  E(RB3LYP) =  -251.913997161     A.U. after   11 cycles
 SCF Done:  E(RB3LYP) =  -251.913975148     A.U. after   11 cycles
 SCF Done:  E(RB3LYP) =  -251.914129005     A.U. after    7 cycles
 SCF Done:  E(RB3LYP) =  -251.914442193     A.U. after   12 cycles
 SCF Done:  E(RB3LYP) =  -251.888860628     A.U. after   14 cycles
 SCF Done:  E(RB3LYP) =  -251.914885193     A.U. after   13 cycles
 SCF Done:  E(RB3LYP) =  -251.916582740     A.U. after   10 cycles
 SCF Done:  E(RB3LYP) =  -251.916584124     A.U. after    7 cycles
 SCF Done:  E(RB3LYP) =  -251.916584301     A.U. after    7 cycles
 Optimization completed.
    -- Stationary point found.
 Normal termination of Gaussian 09 at Tue Aug 30 12:29:02 2022.

 ----------------------------------------------------------
 #P Geom=AllCheck Guess=TCheck SCRF=Check B3LYP/GTBas3 Freq
 ----------------------------------------------------------

 Structure from the checkpoint file:  "G4.Frag_790.chk"
 --------
 Frag_790
 --------
 Charge =  0 Multiplicity = 1

 SCF Done:  E(RB3LYP) =  -251.916584301     A.U. after    1 cycles

  Exact polarizability:  70.946  -1.310  60.010   0.000   0.007  53.587
 Approx polarizability: 100.934  -6.353  86.091  -0.004   0.013  74.687

                      1                      2                      3
                      A                      A                      A
 Frequencies --     90.9595               199.2876               250.3266
 Red. masses --      3.2330                 1.0262                 1.1562
 Frc consts  --      0.0158                 0.0240                 0.0427
 IR Inten    --      4.5611                 0.0642                 1.0299

                      4                      5                      6
                      A                      A                      A
 Frequencies --    251.2218               281.1479               318.1784
 Red. masses --      1.0354                 2.1852                 1.9887
 Frc consts  --      0.0385                 0.1018                 0.1186
 IR Inten    --      0.5391                 3.8324                 5.7559

                      7                      8                      9
                      A                      A                      A
 Frequencies --    348.1831               389.2261               393.4969
 Red. masses --      2.4913                 2.2303                 1.9434
 Frc consts  --      0.1779                 0.1991                 0.1773
 IR Inten    --      2.4166                 0.5024                 6.3064

                     10                     11                     12
                      A                      A                      A
 Frequencies --    581.1178               743.2229               805.6750
 Red. masses --      3.5613                 3.2200                 1.5492
 Frc consts  --      0.7086                 1.0480                 0.5925
 IR Inten    --      7.2395                 9.6931                36.8263

                     13                     14                     15
                      A                      A                      A
 Frequencies --    889.5524               936.7144               946.6294
 Red. masses --      2.0258                 1.7091                 1.5999
 Frc consts  --      0.9445                 0.8836                 0.8447
 IR Inten    --     25.6853                 0.0742                 0.8502

                     16                     17                     18
                      A                      A                      A
 Frequencies --    962.7995              1043.1756              1044.5425
 Red. masses --      1.2053                 1.4069                 1.3983
 Frc consts  --      0.6583                 0.9021                 0.8989
 IR Inten    --      0.0000                 5.0927                 3.7436

                     19                     20                     21
                      A                      A                      A
 Frequencies --   1127.0985              1186.5001              1228.6762
 Red. masses --      1.2632                 1.3339                 2.6542
 Frc consts  --      0.9455                 1.1064                 2.3608
 IR Inten    --      8.3397                36.3667                 9.8964

                     22                     23                     24
                      A                      A                      A
 Frequencies --   1251.3732              1318.5963              1393.7002
 Red. masses --      2.2106                 2.1571                 1.2097
 Frc consts  --      2.0396                 2.2097                 1.3845
 IR Inten    --      3.1382                 7.4978                 2.9742

                     25                     26                     27
                      A                      A                      A
 Frequencies --   1399.5700              1410.6418              1435.7408
 Red. masses --      1.2398                 1.3348                 1.3072
 Frc consts  --      1.4309                 1.5649                 1.5876
 IR Inten    --      5.7655                15.0811                 9.9588

                     28                     29                     30
                      A                      A                      A
 Frequencies --   1475.9561              1482.1423              1484.4387
 Red. masses --      1.0476                 1.0438                 1.0465
 Frc consts  --      1.3446                 1.3510                 1.3586
 IR Inten    --      0.0276                 0.1107                 0.2548

                     31                     32                     33
                      A                      A                      A
 Frequencies --   1497.4696              1503.7722              1516.7169
 Red. masses --      1.0506                 1.0602                 1.0752
 Frc consts  --      1.3880                 1.4126                 1.4573
 IR Inten    --      3.8695                 4.0171                 8.7713

                     34                     35                     36
                      A                      A                      A
 Frequencies --   1732.5285              2973.0166              3024.4148
 Red. masses --      6.9665                 1.0849                 1.0343
 Frc consts  --     12.3205                 5.6496                 5.5743
 IR Inten    --     69.0996                59.9523                24.2595

                     37                     38                     39
                      A                      A                      A
 Frequencies --   3028.4616              3041.2869              3091.9252
 Red. masses --      1.0350                 1.0376                 1.1014
 Frc consts  --      5.5929                 5.6544                 6.2035
 IR Inten    --     29.6363                15.2476                 0.6981

                     40                     41                     42
                      A                      A                      A
 Frequencies --   3096.3878              3103.2361              3104.5744
 Red. masses --      1.1005                 1.1023                 1.1016
 Frc consts  --      6.2167                 6.2545                 6.2558
 IR Inten    --     54.1870                15.4183                11.8091

                     43                     44                     45
                      A                      A                      A
 Frequencies --   3112.1628              3125.1168              3443.9859
 Red. masses --      1.0993                 1.1012                 1.0758
 Frc consts  --      6.2735                 6.3367                 7.5179
 IR Inten    --     39.9257                22.2396                 2.0155

 - Thermochemistry -
 -------------------
 Temperature   298.150 Kelvin.  Pressure   1.00000 Atm.
 Atom     1 has atomic number  6 and mass  12.00000

 Molecular mass:    85.08915 amu.
 Principal axes and moments of inertia in atomic units:
                           1         2         3
     Eigenvalues --   407.73002 660.68115 670.70494
           X            0.99996   0.00895   0.00000
           Y           -0.00895   0.99996   0.00037
           Z            0.00000  -0.00037   1.00000
 This molecule is an asymmetric top.
 Rotational symmetry number  1.
 Rotational temperatures (Kelvin)      0.21243     0.13110     0.12914
 Rotational constants (GHZ):           4.42631     2.73164     2.69081
 Zero-point vibrational energy     401137.5 (Joules/Mol)
                                   95.87416 (Kcal/Mol)
 Warning -- explicit consideration of  10 degrees of freedom as
           vibrations may cause significant error
 Vibrational temperatures:    130.87   286.73   360.16   361.45   404.51
          (Kelvin)            457.79   500.96   560.01   566.15   836.10
                             1069.33  1159.19  1279.87  1347.72  1361.99
                             1385.25  1500.90  1502.86  1621.64  1707.11
                             1767.79  1800.44  1897.16  2005.22  2013.67
                             2029.60  2065.71  2123.57  2132.47  2135.77
                             2154.52  2163.59  2182.21  2492.72  4277.50
                             4351.45  4357.28  4375.73  4448.59  4455.01
                             4464.86  4466.78  4477.70  4496.34  4955.12

 Zero-point correction=                           0.152785 (Hartree/Particle)
 Thermal correction to Energy=                    0.160480
 Thermal correction to Enthalpy=                  0.161425
 Thermal correction to Gibbs Free Energy=         0.121939
 Sum of electronic and zero-point Energies=           -251.763799
 Sum of electronic and thermal Energies=              -251.756104
 Sum of electronic and thermal Enthalpies=            -251.755160
 Sum of electronic and thermal Free Energies=         -251.794645

                     E (Thermal)             CV                S
                      KCal/Mol        Cal/Mol-Kelvin    Cal/Mol-Kelvin
 Total                  100.703             28.011             83.104
 Electronic               0.000              0.000              0.000
 Translational            0.889              2.981             39.237
 Rotational               0.889              2.981             26.693
 Vibrational             98.926             22.050             17.173
 Vibration     1          0.602              1.956              3.639
 Vibration     2          0.637              1.841              2.140
 Vibration     3          0.663              1.762              1.728
 Vibration     4          0.663              1.761              1.722
 Vibration     5          0.681              1.709              1.527
 Vibration     6          0.705              1.639              1.319
 Vibration     7          0.726              1.579              1.174
 Vibration     8          0.757              1.493              1.003
 Vibration     9          0.761              1.484              0.987
 Vibration    10          0.938              1.072              0.483

 Optimization completed.
    -- Stationary point found.
 Normal termination of Gaussian 09 at Tue Aug 30 12:29:43 2022.

 -----------------------------------------------------------------
 #P Geom=AllCheck Guess=TCheck SCRF=Check CCSD(T,E4T,FrzG4)/GTBas1
 -----------------------------------------------------------------

 Structure from the checkpoint file:  "G4.Frag_790.chk"
 --------
 Frag_790
 --------
 Charge =  0 Multiplicity = 1

 SCF Done:  E(RHF) =  -250.176768062     A.U. after   12 cycles
 E2 =    -0.8181002254D+00 EUMP2 =    -0.25099486828702D+03
 CCSD(T)
 CCSD(T)= -0.25108806688D+03
 1.0580766\CCSD=-251.0592775\CCSD(T)=-251.0880669\RMSD=3.272e-09\PG=C01
 Normal termination of Gaussian 09 at Tue Aug 30 12:31:56 2022.

 ---------------------------------------------------------
 #P Geom=AllCheck Guess=TCheck SCRF=Check MP4=FrzG4/GTBas2
 ---------------------------------------------------------

 Structure from the checkpoint file:  "G4.Frag_790.chk"
 --------
 Frag_790
 --------
 Charge =  0 Multiplicity = 1

 SCF Done:  E(RHF) =  -250.182416085     A.U. after   12 cycles
 E2 =    -0.8277407291D+00 EUMP2 =    -0.25101015681395D+03
 Normal termination of Gaussian 09 at Tue Aug 30 12:32:41 2022.

 ---------------------------------------------------------
 #P Geom=AllCheck Guess=TCheck SCRF=Check MP4=FrzG4/GTBas3
 ---------------------------------------------------------

 Structure from the checkpoint file:  "G4.Frag_790.chk"
 --------
 Frag_790
 --------
 Charge =  0 Multiplicity = 1

 SCF Done:  E(RHF) =  -250.209476546     A.U. after   11 cycles
 E2 =    -0.1010365291D+01 EUMP2 =    -0.25121984183667D+03
 Normal termination of Gaussian 09 at Tue Aug 30 12:37:32 2022.

 -----------------------------------------------------------
 #P Geom=AllCheck Guess=TCheck SCRF=Check MP2=Full/GTLargeXP
 -----------------------------------------------------------

 Structure from the checkpoint file:  "G4.Frag_790.chk"
 --------
 Frag_790
 --------
 Charge =  0 Multiplicity = 1

 SCF Done:  E(RHF) =  -250.264792962     A.U. after   12 cycles
 E2 =    -0.1330122844D+01 EUMP2 =    -0.25159491580606D+03
 Normal termination of Gaussian 09 at Tue Aug 30 12:40:04 2022.
 SCF Done:  E(RHF) =  -250.284372324     A.U. after    8 cycles
 Normal termination of Gaussian 09 at Tue Aug 30 12:42:46 2022.

                         Standard orientation:
 ---------------------------------------------------------------------
 Center     Atomic      Atomic             Coordinates (Angstroms)
 Number     Number       Type             X           Y           Z
 ---------------------------------------------------------------------
      1          6           0        1.088763   -0.476735   -1.258908
      2          6           0        0.340252    0.013684    0.000004
      3          6           0        1.087749   -0.479289    1.258468
      4          6           0        0.244047    1.543892    0.001455
      5          6           0       -1.033029   -0.626717   -0.000944
      6          7           0       -2.112659    0.038919   -0.000180
      7          1           0        0.591412   -0.134636   -2.171968
      8          1           0        2.113755   -0.091336   -1.265484
      9          1           0        1.144094   -1.570645   -1.292527
     10          1           0        2.113048   -0.094656    1.266448
     11          1           0        1.142358   -1.573303    1.290335
     12          1           0        0.590117   -0.138434    2.171856
     13          1           0       -0.294288    1.904372   -0.878711
     14          1           0       -0.295842    1.902685    0.881354
     15          1           0        1.245735    1.986709    0.002754
     16          1           0       -1.004680   -1.729193   -0.002308
     17          1           0       -2.923789   -0.583000   -0.000942
 ---------------------------------------------------------------------

 SCF Done:  E(RHF) =  -250.288419242     A.U. after    7 cycles

 The electronic state is 1-A.
 Alpha  occ. eigenvalues --  -15.54669 -11.27774 -11.24217 -11.22034 -11.22032
 Alpha  occ. eigenvalues --  -11.20494  -1.21006  -1.09089  -0.93663  -0.93078
 Alpha  occ. eigenvalues --   -0.85523  -0.71825  -0.68469  -0.62490  -0.60006
 Alpha  occ. eigenvalues --   -0.59101  -0.54796  -0.53281  -0.51527  -0.49579
 Alpha  occ. eigenvalues --   -0.47801  -0.46759  -0.42468  -0.41210
 Alpha virt. eigenvalues --    0.03240   0.04199   0.04219   0.04503   0.06375
 Alpha virt. eigenvalues --    0.06828   0.07094   0.07417   0.07590   0.09696
 Alpha virt. eigenvalues --    0.09864   0.10046   0.10205   0.12164   0.12485

 Mulliken charges:
               1
     1  C   -0.569365
     2  C    0.395164
     3  C   -0.569386
     4  C   -0.587251
     5  C   -0.014569
     6  N   -0.648199
     7  H    0.175681
     8  H    0.167446
     9  H    0.160819
    10  H    0.167427
    11  H    0.160815
    12  H    0.175690
    13  H    0.181078
    14  H    0.181221
    15  H    0.165405
    16  H    0.170006
    17  H    0.288017
 Sum of Mulliken charges =  -0.00000

 Dipole moment (field-independent basis, Debye):
    X=              1.0571    Y=             -1.8002    Z=             -0.0020  Tot=              2.0877
 Quadrupole moment (field-independent basis, Debye-Ang):
   XX=            -40.2788   YY=            -39.2243   ZZ=            -40.4061
   XY=              4.0957   XZ=              0.0049   YZ=              0.0020

 Normal termination of Gaussian 09 at Tue Aug 30 12:51:24 2022.
