 Gaussian 09, Revision E.01,
 Gaussian 09:  ES64L-G09RevE.01 30-Nov-2015

 -----
 #P G4
 -----

 --------
 Frag_488
 --------
 Symbolic Z-matrix:
 Charge =  0 Multiplicity = 1

 SCF Done:  E(RB3LYP) =  -287.745807111     A.U. after   13 cycles
 SCF Done:  E(RB3LYP) =  -287.753587170     A.U. after   12 cycles
 SCF Done:  E(RB3LYP) =  -287.754492314     A.U. after   11 cycles
 SCF Done:  E(RB3LYP) =  -287.754836955     A.U. after   11 cycles
 SCF Done:  E(RB3LYP) =  -287.755021599     A.U. after   11 cycles
 SCF Done:  E(RB3LYP) =  -287.755237540     A.U. after   11 cycles
 SCF Done:  E(RB3LYP) =  -287.717022725     A.U. after   14 cycles
 SCF Done:  E(RB3LYP) =  -287.755612568     A.U. after   12 cycles
 SCF Done:  E(RB3LYP) =  -287.756283826     A.U. after   11 cycles
 SCF Done:  E(RB3LYP) =  -287.757810197     A.U. after   12 cycles
 SCF Done:  E(RB3LYP) =  -287.759977753     A.U. after    9 cycles
 SCF Done:  E(RB3LYP) =  -287.759978410     A.U. after    7 cycles
 SCF Done:  E(RB3LYP) =  -287.759978489     A.U. after    6 cycles
 Optimization completed.
    -- Stationary point found.
 Normal termination of Gaussian 09 at Sun Aug 21 05:21:56 2022.

 ----------------------------------------------------------
 #P Geom=AllCheck Guess=TCheck SCRF=Check B3LYP/GTBas3 Freq
 ----------------------------------------------------------

 Structure from the checkpoint file:  "G4.Frag_488.chk"
 --------
 Frag_488
 --------
 Charge =  0 Multiplicity = 1

 SCF Done:  E(RB3LYP) =  -287.759978489     A.U. after    1 cycles

  Exact polarizability:  62.936  -3.423  67.011  -0.084   1.478  41.443
 Approx polarizability:  80.530 -11.396 104.857  -1.855   4.993  64.184

                      1                      2                      3
                      A                      A                      A
 Frequencies --     96.0020               170.3794               256.1241
 Red. masses --      2.8825                 1.1022                 1.6441
 Frc consts  --      0.0157                 0.0189                 0.0635
 IR Inten    --      5.8400                 0.0388                11.1535

                      4                      5                      6
                      A                      A                      A
 Frequencies --    284.0540               309.7251               403.4839
 Red. masses --      2.2574                 1.8543                 2.2490
 Frc consts  --      0.1073                 0.1048                 0.2157
 IR Inten    --     10.5631                 4.9556                 1.6967

                      7                      8                      9
                      A                      A                      A
 Frequencies --    431.3428               482.5907               518.2308
 Red. masses --      1.2806                 2.1664                 2.4036
 Frc consts  --      0.1404                 0.2973                 0.3803
 IR Inten    --     38.8516                34.0895                31.3892

                     10                     11                     12
                      A                      A                      A
 Frequencies --    562.1007               730.4449               755.6889
 Red. masses --      2.4802                 2.3266                 1.6643
 Frc consts  --      0.4617                 0.7314                 0.5600
 IR Inten    --      6.7253                 9.8610                19.7261

                     13                     14                     15
                      A                      A                      A
 Frequencies --    845.2969               915.4107               997.8223
 Red. masses --      1.3681                 2.4125                 1.8365
 Frc consts  --      0.5760                 1.1911                 1.0774
 IR Inten    --     46.5024                 3.3203                 3.1822

                     16                     17                     18
                      A                      A                      A
 Frequencies --   1015.9013              1075.0144              1132.6147
 Red. masses --      1.5246                 1.5104                 1.6796
 Frc consts  --      0.9270                 1.0284                 1.2695
 IR Inten    --      1.6743                 2.0033                16.4103

                     19                     20                     21
                      A                      A                      A
 Frequencies --   1173.3721              1208.1996              1356.1738
 Red. masses --      2.5545                 1.8747                 3.4046
 Frc consts  --      2.0722                 1.6123                 3.6894
 IR Inten    --      5.0505                 3.6744                43.6932

                     22                     23                     24
                      A                      A                      A
 Frequencies --   1405.4530              1410.9736              1432.5415
 Red. masses --      1.1644                 1.2802                 1.2673
 Frc consts  --      1.3551                 1.5016                 1.5323
 IR Inten    --     12.4828                14.4773                 3.2789

                     25                     26                     27
                      A                      A                      A
 Frequencies --   1457.2165              1473.8085              1490.1596
 Red. masses --      1.1565                 1.0463                 1.0593
 Frc consts  --      1.4469                 1.3390                 1.3859
 IR Inten    --      1.7904                 5.6143                17.9918

                     28                     29                     30
                      A                      A                      A
 Frequencies --   1492.3025              1505.3572              1693.5947
 Red. masses --      1.0564                 1.0761                 5.0813
 Frc consts  --      1.3861                 1.4367                 8.5871
 IR Inten    --     13.3874                 1.8916                64.0307

                     31                     32                     33
                      A                      A                      A
 Frequencies --   2953.7815              3047.8759              3094.3455
 Red. masses --      1.0580                 1.0362                 1.0738
 Frc consts  --      5.4388                 5.6711                 6.0580
 IR Inten    --     58.3688                16.4207                18.1852

                     34                     35                     36
                      A                      A                      A
 Frequencies --   3104.5500              3136.9047              3144.3712
 Red. masses --      1.0991                 1.1019                 1.1032
 Frc consts  --      6.2417                 6.3885                 6.4263
 IR Inten    --     13.8040                13.9746                10.7260

                     37                     38                     39
                      A                      A                      A
 Frequencies --   3177.0466              3258.2845              3621.5411
 Red. masses --      1.0606                 1.1144                 1.0679
 Frc consts  --      6.3072                 6.9708                 8.2520
 IR Inten    --      1.4958                10.8965                 6.6384

 - Thermochemistry -
 -------------------
 Temperature   298.150 Kelvin.  Pressure   1.00000 Atm.
 Atom     1 has atomic number  6 and mass  12.00000

 Molecular mass:    87.06841 amu.
 Principal axes and moments of inertia in atomic units:
                           1         2         3
     Eigenvalues --   370.89729 529.96351 839.66135
           X            0.99280   0.11970   0.00521
           Y           -0.11970   0.99281   0.00062
           Z           -0.00510  -0.00124   0.99999
 This molecule is an asymmetric top.
 Rotational symmetry number  1.
 Rotational temperatures (Kelvin)      0.23353     0.16343     0.10315
 Rotational constants (GHZ):           4.86588     3.40541     2.14937
 Zero-point vibrational energy     338663.3 (Joules/Mol)
                                   80.94247 (Kcal/Mol)
 Warning -- explicit consideration of  10 degrees of freedom as
           vibrations may cause significant error
 Vibrational temperatures:    138.13   245.14   368.51   408.69   445.62
          (Kelvin)            580.52   620.61   694.34   745.62   808.74
                             1050.95  1087.27  1216.19  1317.07  1435.64
                             1461.65  1546.70  1629.58  1688.22  1738.33
                             1951.23  2022.13  2030.07  2061.11  2096.61
                             2120.48  2144.00  2147.09  2165.87  2436.70
                             4249.83  4385.21  4452.07  4466.75  4513.30
                             4524.04  4571.06  4687.94  5210.58

 Zero-point correction=                           0.128990 (Hartree/Particle)
 Thermal correction to Energy=                    0.136241
 Thermal correction to Enthalpy=                  0.137186
 Thermal correction to Gibbs Free Energy=         0.098495
 Sum of electronic and zero-point Energies=           -287.630988
 Sum of electronic and thermal Energies=              -287.623737
 Sum of electronic and thermal Enthalpies=            -287.622793
 Sum of electronic and thermal Free Energies=         -287.661484

                     E (Thermal)             CV                S
                      KCal/Mol        Cal/Mol-Kelvin    Cal/Mol-Kelvin
 Total                   85.493             26.513             81.432
 Electronic               0.000              0.000              0.000
 Translational            0.889              2.981             39.305
 Rotational               0.889              2.981             26.604
 Vibrational             83.715             20.551             15.523
 Vibration     1          0.603              1.952              3.534
 Vibration     2          0.625              1.879              2.431
 Vibration     3          0.666              1.752              1.688
 Vibration     4          0.682              1.703              1.509
 Vibration     5          0.699              1.655              1.364
 Vibration     6          0.769              1.463              0.950
 Vibration     7          0.792              1.402              0.854
 Vibration     8          0.839              1.289              0.703
 Vibration     9          0.873              1.210              0.614
 Vibration    10          0.918              1.113              0.520

 Optimization completed.
    -- Stationary point found.
 Normal termination of Gaussian 09 at Sun Aug 21 05:24:45 2022.

 -----------------------------------------------------------------
 #P Geom=AllCheck Guess=TCheck SCRF=Check CCSD(T,E4T,FrzG4)/GTBas1
 -----------------------------------------------------------------

 Structure from the checkpoint file:  "G4.Frag_488.chk"
 --------
 Frag_488
 --------
 Charge =  0 Multiplicity = 1

 SCF Done:  E(RHF) =  -285.921877150     A.U. after   12 cycles
 E2 =    -0.8629012327D+00 EUMP2 =    -0.28678477838254D+03
 CCSD(T)
 CCSD(T)= -0.28686933316D+03
 286.8399025\CCSD(T)=-286.8693332\RMSD=9.631e-09\PG=C01 [X(C4H9N1O1)]\\
 Normal termination of Gaussian 09 at Sun Aug 21 05:31:14 2022.

 ---------------------------------------------------------
 #P Geom=AllCheck Guess=TCheck SCRF=Check MP4=FrzG4/GTBas2
 ---------------------------------------------------------

 Structure from the checkpoint file:  "G4.Frag_488.chk"
 --------
 Frag_488
 --------
 Charge =  0 Multiplicity = 1

 SCF Done:  E(RHF) =  -285.930756729     A.U. after   12 cycles
 E2 =    -0.8750406712D+00 EUMP2 =    -0.28680579740004D+03
 Normal termination of Gaussian 09 at Sun Aug 21 05:37:49 2022.

 ---------------------------------------------------------
 #P Geom=AllCheck Guess=TCheck SCRF=Check MP4=FrzG4/GTBas3
 ---------------------------------------------------------

 Structure from the checkpoint file:  "G4.Frag_488.chk"
 --------
 Frag_488
 --------
 Charge =  0 Multiplicity = 1

 SCF Done:  E(RHF) =  -285.960277484     A.U. after   11 cycles
 E2 =    -0.1063010596D+01 EUMP2 =    -0.28702328808029D+03
 Normal termination of Gaussian 09 at Sun Aug 21 08:56:16 2022.

 -----------------------------------------------------------
 #P Geom=AllCheck Guess=TCheck SCRF=Check MP2=Full/GTLargeXP
 -----------------------------------------------------------

 Structure from the checkpoint file:  "G4.Frag_488.chk"
 --------
 Frag_488
 --------
 Charge =  0 Multiplicity = 1

 SCF Done:  E(RHF) =  -286.032180133     A.U. after   12 cycles
 E2 =    -0.1395000969D+01 EUMP2 =    -0.28742718110200D+03
 Normal termination of Gaussian 09 at Sun Aug 21 09:02:29 2022.
 SCF Done:  E(RHF) =  -286.055113643     A.U. after    9 cycles
 Normal termination of Gaussian 09 at Sun Aug 21 09:08:59 2022.

                         Standard orientation:
 ---------------------------------------------------------------------
 Center     Atomic      Atomic             Coordinates (Angstroms)
 Number     Number       Type             X           Y           Z
 ---------------------------------------------------------------------
      1          6           0       -0.993559    1.536170    0.236716
      2          6           0       -0.692366    0.260148   -0.040470
      3          6           0       -1.743215   -0.813292   -0.157093
      4          7           0        0.613823   -0.173604   -0.333144
      5          6           0        1.724213    0.733327   -0.132504
      6          8           0        0.908900   -1.442370    0.234611
      7          1           0       -2.028839    1.839126    0.328202
      8          1           0       -0.248256    2.312890    0.340185
      9          1           0       -2.739638   -0.372865   -0.090628
     10          1           0       -1.642913   -1.564106    0.631979
     11          1           0       -1.646967   -1.343364   -1.109724
     12          1           0        1.599922    1.603307   -0.781524
     13          1           0        1.812870    1.083947    0.910966
     14          1           0        2.639049    0.209745   -0.413432
     15          1           0        0.916366   -1.312611    1.199201
 ---------------------------------------------------------------------

 SCF Done:  E(RHF) =  -286.059967083     A.U. after    8 cycles

 The electronic state is 1-A.
 Alpha  occ. eigenvalues --  -20.59680 -15.61796 -11.27539 -11.25606 -11.22133
 Alpha  occ. eigenvalues --  -11.20968  -1.41979  -1.17258  -1.04376  -0.93716
 Alpha  occ. eigenvalues --   -0.91378  -0.76102  -0.69100  -0.66973  -0.64481
 Alpha  occ. eigenvalues --   -0.60302  -0.57183  -0.56606  -0.54526  -0.52820
 Alpha  occ. eigenvalues --   -0.52306  -0.48336  -0.43178  -0.32813
 Alpha virt. eigenvalues --    0.03791   0.03875   0.04839   0.05250   0.06514
 Alpha virt. eigenvalues --    0.06747   0.07080   0.07814   0.08329   0.09379
 Alpha virt. eigenvalues --    0.10524   0.10847   0.11189   0.12192   0.13371

 Mulliken charges:
               1
     1  C   -0.513953
     2  C    0.133849
     3  C   -0.486107
     4  N    0.057542
     5  C   -0.513979
     6  O   -0.496157
     7  H    0.184614
     8  H    0.178771
     9  H    0.169453
    10  H    0.169073
    11  H    0.191524
    12  H    0.195262
    13  H    0.155747
    14  H    0.213114
    15  H    0.361248
 Sum of Mulliken charges =  -0.00000

 Dipole moment (field-independent basis, Debye):
    X=              0.1671    Y=              0.8886    Z=              1.3959  Tot=              1.6631
 Quadrupole moment (field-independent basis, Debye-Ang):
   XX=            -35.5057   YY=            -39.5076   ZZ=            -38.2316
   XY=              2.6933   XZ=              1.3888   YZ=             -2.0804

 Normal termination of Gaussian 09 at Sun Aug 21 12:05:07 2022.
