 Gaussian 09, Revision E.01,
 Gaussian 09:  ES64L-G09RevE.01 30-Nov-2015

 -----
 #P G4
 -----

 --------
 Frag_478
 --------
 Symbolic Z-matrix:
 Charge =  0 Multiplicity = 1

 SCF Done:  E(RB3LYP) =  -247.266138555     A.U. after   14 cycles
 SCF Done:  E(RB3LYP) =  -247.283292460     A.U. after   12 cycles
 SCF Done:  E(RB3LYP) =  -247.284412812     A.U. after   12 cycles
 SCF Done:  E(RB3LYP) =  -247.284520297     A.U. after   11 cycles
 SCF Done:  E(RB3LYP) =  -247.284565272     A.U. after   11 cycles
 SCF Done:  E(RB3LYP) =  -247.284599690     A.U. after   10 cycles
 SCF Done:  E(RB3LYP) =  -247.284614961     A.U. after    8 cycles
 SCF Done:  E(RB3LYP) =  -247.284616858     A.U. after    9 cycles
 SCF Done:  E(RB3LYP) =  -247.284617071     A.U. after    7 cycles
 SCF Done:  E(RB3LYP) =  -247.284617136     A.U. after    7 cycles
 Optimization completed.
    -- Stationary point found.
 Normal termination of Gaussian 09 at Fri Aug 26 11:52:42 2022.

 ----------------------------------------------------------
 #P Geom=AllCheck Guess=TCheck SCRF=Check B3LYP/GTBas3 Freq
 ----------------------------------------------------------

 Structure from the checkpoint file:  "G4.Frag_478.chk"
 --------
 Frag_478
 --------
 Charge =  0 Multiplicity = 1

 SCF Done:  E(RB3LYP) =  -247.284617136     A.U. after    1 cycles

  Exact polarizability:  62.025  -8.959  44.790  -0.705   1.502  22.766
 Approx polarizability: 101.382 -22.209  69.243  -1.519   2.367  34.472

                      1                      2                      3
                      A                      A                      A
 Frequencies --    122.4956               278.5895               412.8597
 Red. masses --      2.3569                 2.9982                 1.2190
 Frc consts  --      0.0208                 0.1371                 0.1224
 IR Inten    --      5.1157                12.8693                74.2858

                      4                      5                      6
                      A                      A                      A
 Frequencies --    461.3494               532.2061               601.6092
 Red. masses --      1.7255                 3.5214                 2.8187
 Frc consts  --      0.2164                 0.5877                 0.6011
 IR Inten    --      2.4212                 1.3459                 1.1498

                      7                      8                      9
                      A                      A                      A
 Frequencies --    788.9384               844.1850               870.7007
 Red. masses --      2.9286                 3.8026                 1.1611
 Frc consts  --      1.0740                 1.5967                 0.5187
 IR Inten    --      3.9395                 8.0946                74.6622

                     10                     11                     12
                      A                      A                      A
 Frequencies --    965.0550              1030.6915              1044.7462
 Red. masses --      1.3663                 1.1053                 1.6949
 Frc consts  --      0.7497                 0.6918                 1.0900
 IR Inten    --     27.8921                18.2512                37.9110

                     13                     14                     15
                      A                      A                      A
 Frequencies --   1125.9606              1248.3470              1322.3216
 Red. masses --      1.3836                 1.3153                 1.3001
 Frc consts  --      1.0335                 1.2077                 1.3394
 IR Inten    --    134.2407                97.5610                15.7552

                     16                     17                     18
                      A                      A                      A
 Frequencies --   1410.2600              1455.7424              1678.2873
 Red. masses --      2.1603                 1.3542                 4.7327
 Frc consts  --      2.5314                 1.6908                 7.8540
 IR Inten    --    139.3449                28.0587                41.1929

                     19                     20                     21
                      A                      A                      A
 Frequencies --   1742.1957              3147.4586              3169.8816
 Red. masses --      6.5765                 1.0614                 1.0920
 Frc consts  --     11.7608                 6.1949                 6.4648
 IR Inten    --     82.0221                 4.2188                 2.7976

                     22                     23                     24
                      A                      A                      A
 Frequencies --   3232.6616              3505.6318              3826.4256
 Red. masses --      1.1131                 1.0750                 1.0654
 Frc consts  --      6.8531                 7.7838                 9.1904
 IR Inten    --      7.0655                 2.7281                32.9874

 - Thermochemistry -
 -------------------
 Temperature   298.150 Kelvin.  Pressure   1.00000 Atm.
 Atom     1 has atomic number  6 and mass  12.00000

 Molecular mass:    71.03711 amu.
 Principal axes and moments of inertia in atomic units:
                           1         2         3
     Eigenvalues --   178.93007 417.53992 588.98879
           X            0.99962  -0.02724  -0.00308
           Y            0.02726   0.99961   0.00638
           Z            0.00291  -0.00646   0.99997
 This molecule is an asymmetric top.
 Rotational symmetry number  1.
 Rotational temperatures (Kelvin)      0.48407     0.20744     0.14706
 Rotational constants (GHZ):          10.08629     4.32232     3.06414
 Zero-point vibrational energy     208261.5 (Joules/Mol)
                                   49.77569 (Kcal/Mol)
 Warning -- explicit consideration of   6 degrees of freedom as
           vibrations may cause significant error
 Vibrational temperatures:    176.24   400.83   594.01   663.78   765.72
          (Kelvin)            865.58  1135.10  1214.59  1252.74  1388.50
                             1482.93  1503.15  1620.00  1796.09  1902.52
                             2029.05  2094.49  2414.68  2506.63  4528.49
                             4560.75  4651.07  5043.82  5505.37

 Zero-point correction=                           0.079323 (Hartree/Particle)
 Thermal correction to Energy=                    0.084585
 Thermal correction to Enthalpy=                  0.085529
 Thermal correction to Gibbs Free Energy=         0.051191
 Sum of electronic and zero-point Energies=           -247.205295
 Sum of electronic and thermal Energies=              -247.200032
 Sum of electronic and thermal Enthalpies=            -247.199088
 Sum of electronic and thermal Free Energies=         -247.233426

                     E (Thermal)             CV                S
                      KCal/Mol        Cal/Mol-Kelvin    Cal/Mol-Kelvin
 Total                   53.078             18.306             72.272
 Electronic               0.000              0.000              0.000
 Translational            0.889              2.981             38.699
 Rotational               0.889              2.981             25.290
 Vibrational             51.300             12.345              8.283
 Vibration     1          0.610              1.930              3.061
 Vibration     2          0.679              1.713              1.542
 Vibration     3          0.777              1.442              0.917
 Vibration     4          0.819              1.336              0.762
 Vibration     5          0.887              1.179              0.582
 Vibration     6          0.960              1.028              0.447

 Optimization completed.
    -- Stationary point found.
 Normal termination of Gaussian 09 at Fri Aug 26 11:53:00 2022.

 -----------------------------------------------------------------
 #P Geom=AllCheck Guess=TCheck SCRF=Check CCSD(T,E4T,FrzG4)/GTBas1
 -----------------------------------------------------------------

 Structure from the checkpoint file:  "G4.Frag_478.chk"
 --------
 Frag_478
 --------
 Charge =  0 Multiplicity = 1

 SCF Done:  E(RHF) =  -245.780128876     A.U. after   13 cycles
 E2 =    -0.7158735785D+00 EUMP2 =    -0.24649600245415D+03
 CCSD(T)
 CCSD(T)= -0.24655757804D+03
 Normal termination of Gaussian 09 at Fri Aug 26 11:53:45 2022.

 ---------------------------------------------------------
 #P Geom=AllCheck Guess=TCheck SCRF=Check MP4=FrzG4/GTBas2
 ---------------------------------------------------------

 Structure from the checkpoint file:  "G4.Frag_478.chk"
 --------
 Frag_478
 --------
 Charge =  0 Multiplicity = 1

 SCF Done:  E(RHF) =  -245.789771518     A.U. after   13 cycles
 E2 =    -0.7260649622D+00 EUMP2 =    -0.24651583648035D+03
 Normal termination of Gaussian 09 at Fri Aug 26 11:53:58 2022.

 ---------------------------------------------------------
 #P Geom=AllCheck Guess=TCheck SCRF=Check MP4=FrzG4/GTBas3
 ---------------------------------------------------------

 Structure from the checkpoint file:  "G4.Frag_478.chk"
 --------
 Frag_478
 --------
 Charge =  0 Multiplicity = 1

 SCF Done:  E(RHF) =  -245.815319417     A.U. after   12 cycles
 E2 =    -0.8685272239D+00 EUMP2 =    -0.24668384664113D+03
 Normal termination of Gaussian 09 at Fri Aug 26 11:55:00 2022.

 -----------------------------------------------------------
 #P Geom=AllCheck Guess=TCheck SCRF=Check MP2=Full/GTLargeXP
 -----------------------------------------------------------

 Structure from the checkpoint file:  "G4.Frag_478.chk"
 --------
 Frag_478
 --------
 Charge =  0 Multiplicity = 1

 SCF Done:  E(RHF) =  -245.881143489     A.U. after   12 cycles
 E2 =    -0.1143818035D+01 EUMP2 =    -0.24702496152447D+03
 Normal termination of Gaussian 09 at Fri Aug 26 11:55:38 2022.
 SCF Done:  E(RHF) =  -245.900884058     A.U. after    8 cycles
 Normal termination of Gaussian 09 at Fri Aug 26 11:56:22 2022.

                         Standard orientation:
 ---------------------------------------------------------------------
 Center     Atomic      Atomic             Coordinates (Angstroms)
 Number     Number       Type             X           Y           Z
 ---------------------------------------------------------------------
      1          6           0       -1.917476   -0.028938    0.109360
      2          6           0       -0.765666   -0.652232   -0.136875
      3          6           0        0.582216   -0.046705   -0.024993
      4          7           0        1.669565   -0.690712    0.105141
      5          8           0        0.652116    1.308347   -0.030126
      6          1           0       -1.964839    1.007661    0.431150
      7          1           0       -2.868541   -0.542823    0.028431
      8          1           0       -0.767810   -1.703773   -0.411143
      9          1           0        1.481866   -1.691482    0.130777
     10          1           0       -0.179000    1.665883   -0.359146
 ---------------------------------------------------------------------

 SCF Done:  E(RHF) =  -245.905015876     A.U. after    8 cycles

 The electronic state is 1-A.
 Alpha  occ. eigenvalues --  -20.59661 -15.54018 -11.34820 -11.27110 -11.26883
 Alpha  occ. eigenvalues --   -1.42567  -1.20100  -1.08179  -0.87557  -0.81399
 Alpha  occ. eigenvalues --   -0.72868  -0.66470  -0.63650  -0.61598  -0.58485
 Alpha  occ. eigenvalues --   -0.54406  -0.44978  -0.43790  -0.38164
 Alpha virt. eigenvalues --    0.02985   0.03993   0.04952   0.05293   0.06915
 Alpha virt. eigenvalues --    0.07273   0.07489   0.08291   0.08958   0.09826
 Alpha virt. eigenvalues --    0.10260   0.12697   0.14326   0.14886   0.15522

 Mulliken charges:
               1
     1  C   -0.362360
     2  C   -0.238092
     3  C    0.445820
     4  N   -0.587752
     5  O   -0.512139
     6  H    0.189971
     7  H    0.212725
     8  H    0.196972
     9  H    0.277483
    10  H    0.377374
 Sum of Mulliken charges =  -0.00000

 Dipole moment (field-independent basis, Debye):
    X=             -4.5883    Y=             -0.7564    Z=             -0.6376  Tot=              4.6938
 Quadrupole moment (field-independent basis, Debye-Ang):
   XX=            -34.3652   YY=            -25.6745   ZZ=            -32.1283
   XY=             -2.6466   XZ=             -0.5175   YZ=             -0.2652

 Normal termination of Gaussian 09 at Fri Aug 26 12:00:55 2022.
