 Gaussian 09, Revision E.01,
 Gaussian 09:  ES64L-G09RevE.01 30-Nov-2015

 -----
 #P G4
 -----

 --------
 Frag_651
 --------
 Symbolic Z-matrix:
 Charge =  0 Multiplicity = 1

 SCF Done:  E(RB3LYP) =  -322.546369588     A.U. after   15 cycles
 SCF Done:  E(RB3LYP) =  -322.563981880     A.U. after   13 cycles
 SCF Done:  E(RB3LYP) =  -322.565676478     A.U. after   12 cycles
 SCF Done:  E(RB3LYP) =  -322.565897438     A.U. after   11 cycles
 SCF Done:  E(RB3LYP) =  -322.565904949     A.U. after    9 cycles
 SCF Done:  E(RB3LYP) =  -322.565903591     A.U. after    9 cycles
 SCF Done:  E(RB3LYP) =  -322.565905616     A.U. after    9 cycles
 Optimization completed.
    -- Stationary point found.
 Normal termination of Gaussian 09 at Fri Aug 19 11:02:19 2022.

 ----------------------------------------------------------
 #P Geom=AllCheck Guess=TCheck SCRF=Check B3LYP/GTBas3 Freq
 ----------------------------------------------------------

 Structure from the checkpoint file:  "G4.Frag_651.chk"
 --------
 Frag_651
 --------
 Charge =  0 Multiplicity = 1

 SCF Done:  E(RB3LYP) =  -322.565905616     A.U. after    1 cycles

  Exact polarizability:  50.744  -3.468  51.765  -0.001   0.000  27.861
 Approx polarizability:  62.957  -2.591  93.816  -0.000  -0.001  42.310

                      1                      2                      3
                      A                      A                      A
 Frequencies --     67.7860               113.5239               256.6170
 Red. masses --      2.8842                 1.2985                 3.6994
 Frc consts  --      0.0078                 0.0099                 0.1435
 IR Inten    --      5.0291                 0.0011                23.8859

                      4                      5                      6
                      A                      A                      A
 Frequencies --    311.2044               385.9470               415.7402
 Red. masses --      1.1936                 3.4819                 3.2610
 Frc consts  --      0.0681                 0.3056                 0.3321
 IR Inten    --    140.1527                 2.3032                71.1422

                      7                      8                      9
                      A                      A                      A
 Frequencies --    519.6329               557.3679               641.8248
 Red. masses --      6.1152                 3.2497                 1.1428
 Frc consts  --      0.9729                 0.5948                 0.2774
 IR Inten    --      3.4691                28.6202                 0.3234

                     10                     11                     12
                      A                      A                      A
 Frequencies --    719.2528               739.4720               970.5576
 Red. masses --      3.3070                 2.5639                 1.9716
 Frc consts  --      1.0080                 0.8260                 1.0942
 IR Inten    --      0.0734                 2.6193                11.2155

                     13                     14                     15
                      A                      A                      A
 Frequencies --   1034.2047              1092.8358              1189.2490
 Red. masses --      2.0333                 1.9746                 2.7590
 Frc consts  --      1.2813                 1.3895                 2.2991
 IR Inten    --      2.6571                 2.5973               106.6203

                     16                     17                     18
                      A                      A                      A
 Frequencies --   1363.9650              1391.1386              1450.3920
 Red. masses --      2.0486                 1.7507                 1.0545
 Frc consts  --      2.2455                 1.9962                 1.3070
 IR Inten    --     34.9545                13.8680                13.6939

                     19                     20                     21
                      A                      A                      A
 Frequencies --   1457.1540              1587.4729              1799.4527
 Red. masses --      1.0492                 1.3413                11.9638
 Frc consts  --      1.3126                 1.9915                22.8245
 IR Inten    --      7.7525               132.3287               373.7476

                     22                     23                     24
                      A                      A                      A
 Frequencies --   1813.3555              3051.2919              3112.0723
 Red. masses --      9.5598                 1.0354                 1.0967
 Frc consts  --     18.5211                 5.6796                 6.2579
 IR Inten    --      6.0291                 0.1093                 1.4249

                     25                     26                     27
                      A                      A                      A
 Frequencies --   3164.2676              3596.9966              3738.9909
 Red. masses --      1.1047                 1.0434                 1.1056
 Frc consts  --      6.5171                 7.9541                 9.1066
 IR Inten    --      7.7979                49.2389                73.2996

 - Thermochemistry -
 -------------------
 Temperature   298.150 Kelvin.  Pressure   1.00000 Atm.
 Atom     1 has atomic number  6 and mass  12.00000

 Molecular mass:    87.03203 amu.
 Principal axes and moments of inertia in atomic units:
                           1         2         3
     Eigenvalues --   331.94658 508.77056 829.73804
           X            0.98516  -0.17165  -0.00000
           Y            0.17165   0.98516   0.00000
           Z            0.00000  -0.00000   1.00000
 This molecule is an asymmetric top.
 Rotational symmetry number  1.
 Rotational temperatures (Kelvin)      0.26093     0.17024     0.10439
 Rotational constants (GHZ):           5.43684     3.54726     2.17507
 Zero-point vibrational energy     218568.3 (Joules/Mol)
                                   52.23908 (Kcal/Mol)
 Warning -- explicit consideration of   8 degrees of freedom as
           vibrations may cause significant error
 Vibrational temperatures:     97.53   163.34   369.21   447.75   555.29
          (Kelvin)            598.16   747.63   801.93   923.44  1034.84
                             1063.93  1396.41  1487.99  1572.35  1711.06
                             1962.44  2001.54  2086.79  2096.52  2284.02
                             2589.01  2609.01  4390.12  4477.57  4552.67
                             5175.27  5379.57

 Zero-point correction=                           0.083248 (Hartree/Particle)
 Thermal correction to Energy=                    0.089977
 Thermal correction to Enthalpy=                  0.090921
 Thermal correction to Gibbs Free Energy=         0.052635
 Sum of electronic and zero-point Energies=           -322.482657
 Sum of electronic and thermal Energies=              -322.475929
 Sum of electronic and thermal Enthalpies=            -322.474985
 Sum of electronic and thermal Free Energies=         -322.513270

                     E (Thermal)             CV                S
                      KCal/Mol        Cal/Mol-Kelvin    Cal/Mol-Kelvin
 Total                   56.461             22.792             80.579
 Electronic               0.000              0.000              0.000
 Translational            0.889              2.981             39.304
 Rotational               0.889              2.981             26.441
 Vibrational             54.684             16.831             14.834
 Vibration     1          0.598              1.970              4.217
 Vibration     2          0.607              1.938              3.208
 Vibration     3          0.666              1.752              1.685
 Vibration     4          0.700              1.652              1.356
 Vibration     5          0.755              1.500              1.016
 Vibration     6          0.779              1.436              0.907
 Vibration     7          0.875              1.207              0.611
 Vibration     8          0.913              1.124              0.529

 Optimization completed.
    -- Stationary point found.
 Normal termination of Gaussian 09 at Fri Aug 19 11:04:15 2022.

 -----------------------------------------------------------------
 #P Geom=AllCheck Guess=TCheck SCRF=Check CCSD(T,E4T,FrzG4)/GTBas1
 -----------------------------------------------------------------

 Structure from the checkpoint file:  "G4.Frag_651.chk"
 --------
 Frag_651
 --------
 Charge =  0 Multiplicity = 1

 SCF Done:  E(RHF) =  -320.704173801     A.U. after   13 cycles
 E2 =    -0.8935635344D+00 EUMP2 =    -0.32159773733523D+03
 CCSD(T)
 CCSD(T)= -0.32165858855D+03
 14\MP4SDQ=-321.6308663\CCSD=-321.627663\CCSD(T)=-321.6585886\RMSD=7.61
 Normal termination of Gaussian 09 at Fri Aug 19 11:09:19 2022.

 ---------------------------------------------------------
 #P Geom=AllCheck Guess=TCheck SCRF=Check MP4=FrzG4/GTBas2
 ---------------------------------------------------------

 Structure from the checkpoint file:  "G4.Frag_651.chk"
 --------
 Frag_651
 --------
 Charge =  0 Multiplicity = 1

 SCF Done:  E(RHF) =  -320.714269985     A.U. after   12 cycles
 E2 =    -0.9064600629D+00 EUMP2 =    -0.32162073004807D+03
 Normal termination of Gaussian 09 at Fri Aug 19 11:15:17 2022.

 ---------------------------------------------------------
 #P Geom=AllCheck Guess=TCheck SCRF=Check MP4=FrzG4/GTBas3
 ---------------------------------------------------------

 Structure from the checkpoint file:  "G4.Frag_651.chk"
 --------
 Frag_651
 --------
 Charge =  0 Multiplicity = 1

 SCF Done:  E(RHF) =  -320.740490300     A.U. after   12 cycles
 E2 =    -0.1086090908D+01 EUMP2 =    -0.32182658120786D+03
 Normal termination of Gaussian 09 at Fri Aug 19 12:53:18 2022.

 -----------------------------------------------------------
 #P Geom=AllCheck Guess=TCheck SCRF=Check MP2=Full/GTLargeXP
 -----------------------------------------------------------

 Structure from the checkpoint file:  "G4.Frag_651.chk"
 --------
 Frag_651
 --------
 Charge =  0 Multiplicity = 1

 SCF Done:  E(RHF) =  -320.826609266     A.U. after   12 cycles
 E2 =    -0.1424115580D+01 EUMP2 =    -0.32225072484604D+03
 Normal termination of Gaussian 09 at Fri Aug 19 12:57:23 2022.
 SCF Done:  E(RHF) =  -320.851578749     A.U. after    9 cycles
 Normal termination of Gaussian 09 at Fri Aug 19 13:01:41 2022.

                         Standard orientation:
 ---------------------------------------------------------------------
 Center     Atomic      Atomic             Coordinates (Angstroms)
 Number     Number       Type             X           Y           Z
 ---------------------------------------------------------------------
      1          6           0        1.809591   -0.682576   -0.000009
      2          6           0        0.683858    0.314488    0.000064
      3          8           0        0.830123    1.516027   -0.000020
      4          6           0       -0.741549   -0.292707   -0.000017
      5          7           0       -1.699981    0.659089    0.000001
      6          8           0       -0.921907   -1.495567   -0.000000
      7          1           0        1.723323   -1.336883   -0.873311
      8          1           0        1.723401   -1.336905    0.873283
      9          1           0        2.768152   -0.163804   -0.000046
     10          1           0       -2.671078    0.398060   -0.000015
     11          1           0       -1.421060    1.627001    0.000021
 ---------------------------------------------------------------------

 SCF Done:  E(RHF) =  -320.856771220     A.U. after    7 cycles

 The electronic state is 1-A.
 Alpha  occ. eigenvalues --  -20.58079 -20.54399 -15.59707 -11.37115 -11.35899
 Alpha  occ. eigenvalues --  -11.24311  -1.42805  -1.39786  -1.22945  -1.03211
 Alpha  occ. eigenvalues --   -0.89979  -0.77660  -0.74179  -0.69487  -0.64423
 Alpha  occ. eigenvalues --   -0.63010  -0.62826  -0.57422  -0.56509  -0.51862
 Alpha  occ. eigenvalues --   -0.51089  -0.43044  -0.41916
 Alpha virt. eigenvalues --    0.03831   0.04030   0.05129   0.05546   0.06909
 Alpha virt. eigenvalues --    0.07210   0.07419   0.07671   0.08463   0.08549
 Alpha virt. eigenvalues --    0.09838   0.11063   0.13103   0.13728   0.15120

 Mulliken charges:
               1
     1  C   -0.550582
     2  C    0.482997
     3  O   -0.533623
     4  C    0.521587
     5  N   -0.706404
     6  O   -0.596369
     7  H    0.215128
     8  H    0.215128
     9  H    0.211739
    10  H    0.368798
    11  H    0.371601
 Sum of Mulliken charges =  -0.00000

 Dipole moment (field-independent basis, Debye):
    X=             -0.3737    Y=              0.9511    Z=              0.0001  Tot=              1.0219
 Quadrupole moment (field-independent basis, Debye-Ang):
   XX=            -28.6809   YY=            -42.2208   ZZ=            -34.8142
   XY=             -8.0853   XZ=              0.0001   YZ=              0.0002

 Normal termination of Gaussian 09 at Fri Aug 19 14:48:08 2022.
