 Gaussian 09, Revision E.01,
 Gaussian 09:  ES64L-G09RevE.01 30-Nov-2015

 -----
 #P G4
 -----

 --------
 Frag_627
 --------
 Symbolic Z-matrix:
 Charge =  0 Multiplicity = 1

 SCF Done:  E(RB3LYP) =  -280.531019327     A.U. after   14 cycles
 SCF Done:  E(RB3LYP) =  -280.552854614     A.U. after   12 cycles
 SCF Done:  E(RB3LYP) =  -280.558772014     A.U. after   12 cycles
 SCF Done:  E(RB3LYP) =  -280.563019626     A.U. after   12 cycles
 SCF Done:  E(RB3LYP) =  -280.566995871     A.U. after   11 cycles
 SCF Done:  E(RB3LYP) =  -280.570351511     A.U. after   13 cycles
 SCF Done:  E(RB3LYP) =  -280.570658407     A.U. after   11 cycles
 SCF Done:  E(RB3LYP) =  -280.571108951     A.U. after   10 cycles
 SCF Done:  E(RB3LYP) =  -280.571233907     A.U. after   11 cycles
 SCF Done:  E(RB3LYP) =  -280.571289230     A.U. after   11 cycles
 SCF Done:  E(RB3LYP) =  -280.574530141     A.U. after    7 cycles
 SCF Done:  E(RB3LYP) =  -280.574530270     A.U. after    7 cycles
 SCF Done:  E(RB3LYP) =  -280.574530289     A.U. after    7 cycles
 Optimization completed.
    -- Stationary point found.
 Normal termination of Gaussian 09 at Thu Aug 25 21:51:04 2022.

 ----------------------------------------------------------
 #P Geom=AllCheck Guess=TCheck SCRF=Check B3LYP/GTBas3 Freq
 ----------------------------------------------------------

 Structure from the checkpoint file:  "G4.Frag_627.chk"
 --------
 Frag_627
 --------
 Charge =  0 Multiplicity = 1

 SCF Done:  E(RB3LYP) =  -280.574530289     A.U. after    1 cycles

  Exact polarizability:  51.785   4.329  36.066  -0.320   0.014  24.492
 Approx polarizability:  73.177   8.832  55.314  -0.497   1.243  36.482

                      1                      2                      3
                      A                      A                      A
 Frequencies --    139.1153               284.7806               340.9427
 Red. masses --      1.0959                 4.7115                 2.8563
 Frc consts  --      0.0125                 0.2251                 0.1956
 IR Inten    --     51.5835                 1.7025                12.2639

                      4                      5                      6
                      A                      A                      A
 Frequencies --    371.8200               465.7438               499.8022
 Red. masses --      1.2549                 1.2753                 2.0949
 Frc consts  --      0.1022                 0.1630                 0.3083
 IR Inten    --     74.9880                78.9024                23.3086

                      7                      8                      9
                      A                      A                      A
 Frequencies --    613.0117               660.3219               832.3177
 Red. masses --      4.6905                 2.9424                 1.8200
 Frc consts  --      1.0385                 0.7559                 0.7428
 IR Inten    --      3.6305                62.5457               176.7727

                     10                     11                     12
                      A                      A                      A
 Frequencies --    912.2745              1013.4269              1086.5026
 Red. masses --      5.3229                 4.1535                 1.3929
 Frc consts  --      2.6100                 2.5133                 0.9688
 IR Inten    --      8.0863                67.4135                29.8189

                     13                     14                     15
                      A                      A                      A
 Frequencies --   1173.4634              1267.5677              1300.7948
 Red. masses --      1.4236                 1.2804                 1.2571
 Frc consts  --      1.1550                 1.2121                 1.2533
 IR Inten    --     43.4371                65.3879                72.3304

                     16                     17                     18
                      A                      A                      A
 Frequencies --   1418.0184              1606.2465              1649.4240
 Red. masses --      4.4706                 1.1946                 1.1134
 Frc consts  --      5.2963                 1.8159                 1.7846
 IR Inten    --    172.3302                72.7120                 5.2286

                     19                     20                     21
                      A                      A                      A
 Frequencies --   1777.3488              3442.8885              3484.8968
 Red. masses --      4.4911                 1.0515                 1.0502
 Frc consts  --      8.3588                 7.3435                 7.5146
 IR Inten    --    283.3981                 0.4121                37.6982

                     22                     23                     24
                      A                      A                      A
 Frequencies --   3511.1696              3607.4223              3813.5098
 Red. masses --      1.0896                 1.0927                 1.0652
 Frc consts  --      7.9144                 8.3778                 9.1271
 IR Inten    --      1.2261                27.4216                49.3138

 - Thermochemistry -
 -------------------
 Temperature   298.150 Kelvin.  Pressure   1.00000 Atm.
 Atom     1 has atomic number  7 and mass  14.00307

 Molecular mass:    75.04326 amu.
 Principal axes and moments of inertia in atomic units:
                           1         2         3
     Eigenvalues --   174.31021 425.50877 587.27384
           X            0.99957   0.02923  -0.00185
           Y           -0.02926   0.99940  -0.01826
           Z            0.00131   0.01831   0.99983
 This molecule is an asymmetric top.
 Rotational symmetry number  1.
 Rotational temperatures (Kelvin)      0.49689     0.20355     0.14748
 Rotational constants (GHZ):          10.35362     4.24137     3.07308
 Zero-point vibrational energy     210978.3 (Joules/Mol)
                                   50.42501 (Kcal/Mol)
 Warning -- explicit consideration of   7 degrees of freedom as
           vibrations may cause significant error
 Vibrational temperatures:    200.16   409.74   490.54   534.97   670.10
          (Kelvin)            719.10   881.99   950.05  1197.52  1312.56
                             1458.09  1563.23  1688.35  1823.74  1871.55
                             2040.21  2311.03  2373.15  2557.21  4953.54
                             5013.98  5051.78  5190.27  5486.78

 Zero-point correction=                           0.080357 (Hartree/Particle)
 Thermal correction to Energy=                    0.085998
 Thermal correction to Enthalpy=                  0.086942
 Thermal correction to Gibbs Free Energy=         0.051999
 Sum of electronic and zero-point Energies=           -280.494173
 Sum of electronic and thermal Energies=              -280.488532
 Sum of electronic and thermal Enthalpies=            -280.487588
 Sum of electronic and thermal Free Energies=         -280.522532

                     E (Thermal)             CV                S
                      KCal/Mol        Cal/Mol-Kelvin    Cal/Mol-Kelvin
 Total                   53.964             19.684             73.544
 Electronic               0.000              0.000              0.000
 Translational            0.889              2.981             38.862
 Rotational               0.889              2.981             25.280
 Vibrational             52.187             13.722              9.402
 Vibration     1          0.615              1.914              2.816
 Vibration     2          0.683              1.702              1.505
 Vibration     3          0.720              1.594              1.208
 Vibration     4          0.744              1.530              1.072
 Vibration     5          0.823              1.326              0.750
 Vibration     6          0.855              1.250              0.659
 Vibration     7          0.972              1.004              0.428

 Normal termination of Gaussian 09 at Thu Aug 25 21:52:06 2022.

 -----------------------------------------------------------------
 #P Geom=AllCheck Guess=TCheck SCRF=Check CCSD(T,E4T,FrzG4)/GTBas1
 -----------------------------------------------------------------

 Structure from the checkpoint file:  "G4.Frag_627.chk"
 --------
 Frag_627
 --------
 Charge =  0 Multiplicity = 1

 SCF Done:  E(RHF) =  -278.932431723     A.U. after   13 cycles
 E2 =    -0.7926325402D+00 EUMP2 =    -0.27972506426355D+03
 CCSD(T)
 CCSD(T)= -0.27978021046D+03
 \CCSD(T)=-279.7802105\RMSD=4.439e-09\PG=C01 [X(C1H5N3O1)]\\@
 Normal termination of Gaussian 09 at Thu Aug 25 21:53:36 2022.

 ---------------------------------------------------------
 #P Geom=AllCheck Guess=TCheck SCRF=Check MP4=FrzG4/GTBas2
 ---------------------------------------------------------

 Structure from the checkpoint file:  "G4.Frag_627.chk"
 --------
 Frag_627
 --------
 Charge =  0 Multiplicity = 1

 SCF Done:  E(RHF) =  -278.943804550     A.U. after   13 cycles
 E2 =    -0.8073253213D+00 EUMP2 =    -0.27975112987145D+03
 Normal termination of Gaussian 09 at Thu Aug 25 21:55:02 2022.

 ---------------------------------------------------------
 #P Geom=AllCheck Guess=TCheck SCRF=Check MP4=FrzG4/GTBas3
 ---------------------------------------------------------

 Structure from the checkpoint file:  "G4.Frag_627.chk"
 --------
 Frag_627
 --------
 Charge =  0 Multiplicity = 1

 SCF Done:  E(RHF) =  -278.974314462     A.U. after   11 cycles
 E2 =    -0.9625556784D+00 EUMP2 =    -0.27993687014033D+03
 Normal termination of Gaussian 09 at Thu Aug 25 22:26:28 2022.

 -----------------------------------------------------------
 #P Geom=AllCheck Guess=TCheck SCRF=Check MP2=Full/GTLargeXP
 -----------------------------------------------------------

 Structure from the checkpoint file:  "G4.Frag_627.chk"
 --------
 Frag_627
 --------
 Charge =  0 Multiplicity = 1

 SCF Done:  E(RHF) =  -279.053408606     A.U. after   12 cycles
 E2 =    -0.1252942666D+01 EUMP2 =    -0.28030635127170D+03
 Normal termination of Gaussian 09 at Thu Aug 25 22:28:33 2022.
 SCF Done:  E(RHF) =  -279.075615035     A.U. after    9 cycles
 Normal termination of Gaussian 09 at Thu Aug 25 22:31:10 2022.

                         Standard orientation:
 ---------------------------------------------------------------------
 Center     Atomic      Atomic             Coordinates (Angstroms)
 Number     Number       Type             X           Y           Z
 ---------------------------------------------------------------------
      1          7           0       -1.821869    0.041295   -0.040907
      2          7           0       -0.637599   -0.804313    0.016942
      3          6           0        0.421671   -0.089564    0.004581
      4          7           0        0.497144    1.292250    0.076226
      5          8           0        1.610823   -0.735494   -0.042296
      6          1           0       -2.261761   -0.046335    0.875437
      7          1           0       -2.457444   -0.452940   -0.663984
      8          1           0        1.189629    1.698112   -0.540128
      9          1           0       -0.432695    1.678788   -0.069389
     10          1           0        2.281926   -0.160913    0.343118
 ---------------------------------------------------------------------

 SCF Done:  E(RHF) =  -279.080402600     A.U. after    8 cycles

 The electronic state is 1-A.
 Alpha  occ. eigenvalues --  -20.60128 -15.58257 -15.57352 -15.55152 -11.36609
 Alpha  occ. eigenvalues --   -1.43767  -1.27961  -1.20046  -1.05789  -0.81093
 Alpha  occ. eigenvalues --   -0.75072  -0.71395  -0.66184  -0.62337  -0.61159
 Alpha  occ. eigenvalues --   -0.57310  -0.53547  -0.47679  -0.39023  -0.36597
 Alpha virt. eigenvalues --    0.03642   0.04809   0.05534   0.05945   0.08454
 Alpha virt. eigenvalues --    0.09022   0.09435   0.10646   0.10954   0.12742
 Alpha virt. eigenvalues --    0.14015   0.14859   0.15594   0.16383   0.16854

 Mulliken charges:
               1
     1  N   -0.613678
     2  N   -0.421224
     3  C    0.612989
     4  N   -0.728335
     5  O   -0.524941
     6  H    0.305166
     7  H    0.314328
     8  H    0.311068
     9  H    0.359627
    10  H    0.385000
 Sum of Mulliken charges =  -0.00000

 Dipole moment (field-independent basis, Debye):
    X=              0.5968    Y=              2.9258    Z=             -0.1303  Tot=              2.9889
 Quadrupole moment (field-independent basis, Debye-Ang):
   XX=            -21.1386   YY=            -33.1712   ZZ=            -29.6212
   XY=              3.5414   XZ=             -0.2692   YZ=             -1.7197

 Normal termination of Gaussian 09 at Thu Aug 25 23:43:09 2022.
