 Gaussian 09, Revision E.01,
 Gaussian 09:  ES64L-G09RevE.01 30-Nov-2015

 -----
 #P G4
 -----

 --------
 Frag_485
 --------
 Symbolic Z-matrix:
 Charge =  0 Multiplicity = 1

 SCF Done:  E(RB3LYP) =  -312.320871360     A.U. after   12 cycles
 SCF Done:  E(RB3LYP) =  -312.324897467     A.U. after   10 cycles
 SCF Done:  E(RB3LYP) =  -312.325131363     A.U. after   10 cycles
 SCF Done:  E(RB3LYP) =  -312.325146802     A.U. after    9 cycles
 SCF Done:  E(RB3LYP) =  -312.325213677     A.U. after   10 cycles
 SCF Done:  E(RB3LYP) =  -312.325224264     A.U. after    8 cycles
 SCF Done:  E(RB3LYP) =  -312.325231715     A.U. after    9 cycles
 SCF Done:  E(RB3LYP) =  -312.325233986     A.U. after    7 cycles
 SCF Done:  E(RB3LYP) =  -312.325234493     A.U. after    7 cycles
 SCF Done:  E(RB3LYP) =  -312.325234431     A.U. after    6 cycles
 SCF Done:  E(RB3LYP) =  -312.325234338     A.U. after    6 cycles
 Optimization completed.
    -- Stationary point found.
 Normal termination of Gaussian 09 at Fri Aug 26 12:48:25 2022.

 ----------------------------------------------------------
 #P Geom=AllCheck Guess=TCheck SCRF=Check B3LYP/GTBas3 Freq
 ----------------------------------------------------------

 Structure from the checkpoint file:  "G4.Frag_485.chk"
 --------
 Frag_485
 --------
 Charge =  0 Multiplicity = 1

 SCF Done:  E(RB3LYP) =  -312.325234338     A.U. after    1 cycles

  Exact polarizability:  74.042  -1.322  70.794  -0.465  -0.965  65.107
 Approx polarizability:  97.834   0.182  98.940   0.992   0.039  95.547

                      1                      2                      3
                      A                      A                      A
 Frequencies --     52.9433               192.8360               231.8525
 Red. masses --      2.2414                 1.0539                 1.2174
 Frc consts  --      0.0037                 0.0231                 0.0386
 IR Inten    --      0.2187                 5.2734                 0.0900

                      4                      5                      6
                      A                      A                      A
 Frequencies --    240.9694               260.0238               268.3494
 Red. masses --      1.0808                 1.2030                 1.8484
 Frc consts  --      0.0370                 0.0479                 0.0784
 IR Inten    --      3.1516                 0.1492                40.5230

                      7                      8                      9
                      A                      A                      A
 Frequencies --    282.1604               303.7037               357.4113
 Red. masses --      2.1848                 1.3459                 2.1682
 Frc consts  --      0.1025                 0.0731                 0.1632
 IR Inten    --      0.1425                44.0621                 9.5980

                     10                     11                     12
                      A                      A                      A
 Frequencies --    372.0248               406.6284               454.5127
 Red. masses --      1.9507                 2.5797                 2.4663
 Frc consts  --      0.1591                 0.2513                 0.3002
 IR Inten    --      5.9377                 9.0575                 3.3724

                     13                     14                     15
                      A                      A                      A
 Frequencies --    480.5675               530.8852               693.8859
 Red. masses --      3.0686                 2.4288                 2.9035
 Frc consts  --      0.4175                 0.4033                 0.8237
 IR Inten    --      5.6367                 4.7060                 1.8258

                     16                     17                     18
                      A                      A                      A
 Frequencies --    859.2020               915.0799               925.2586
 Red. masses --      2.3959                 2.0810                 1.2520
 Frc consts  --      1.0421                 1.0267                 0.6315
 IR Inten    --      4.7218                 9.9471                 0.7473

                     19                     20                     21
                      A                      A                      A
 Frequencies --    928.6066               954.5102               973.7311
 Red. masses --      1.4755                 1.7243                 1.6295
 Frc consts  --      0.7496                 0.9256                 0.9103
 IR Inten    --      0.0943                16.5775                11.1822

                     22                     23                     24
                      A                      A                      A
 Frequencies --   1004.5574              1056.6393              1120.0200
 Red. masses --      1.3107                 1.5147                 2.1747
 Frc consts  --      0.7793                 0.9964                 1.6073
 IR Inten    --      0.1386                19.0519                10.8560

                     25                     26                     27
                      A                      A                      A
 Frequencies --   1146.3121              1187.3131              1207.4209
 Red. masses --      1.6031                 1.9845                 2.3686
 Frc consts  --      1.2411                 1.6483                 2.0345
 IR Inten    --     17.2202                30.8316                32.6553

                     28                     29                     30
                      A                      A                      A
 Frequencies --   1260.1631              1328.4857              1346.2589
 Red. masses --      2.7045                 1.4323                 1.3538
 Frc consts  --      2.5304                 1.4894                 1.4457
 IR Inten    --     11.1218                17.8562                 4.4713

                     31                     32                     33
                      A                      A                      A
 Frequencies --   1378.5517              1397.7652              1406.0848
 Red. masses --      1.3106                 1.2468                 1.5333
 Frc consts  --      1.4674                 1.4352                 1.7861
 IR Inten    --      9.8686                 6.8224                24.7532

                     34                     35                     36
                      A                      A                      A
 Frequencies --   1411.6029              1424.4968              1479.0798
 Red. masses --      1.2548                 1.2233                 1.0526
 Frc consts  --      1.4731                 1.4625                 1.3567
 IR Inten    --     13.8126                 3.0659                 1.3393

                     37                     38                     39
                      A                      A                      A
 Frequencies --   1484.2461              1489.3501              1502.1843
 Red. masses --      1.0503                 1.0497                 1.0533
 Frc consts  --      1.3632                 1.3719                 1.4004
 IR Inten    --      0.9917                 1.4014                 6.3227

                     40                     41                     42
                      A                      A                      A
 Frequencies --   1502.8287              1508.4630              1511.4117
 Red. masses --      1.0535                 1.0531                 1.0638
 Frc consts  --      1.4019                 1.4118                 1.4318
 IR Inten    --      1.7357                 3.5314                 1.5653

                     43                     44                     45
                      A                      A                      A
 Frequencies --   1517.9273              3016.0694              3030.4831
 Red. masses --      1.0439                 1.0825                 1.0363
 Frc consts  --      1.4171                 5.8017                 5.6072
 IR Inten    --      6.6325                15.2923                13.4774

                     46                     47                     48
                      A                      A                      A
 Frequencies --   3034.0205              3038.0587              3047.1724
 Red. masses --      1.0367                 1.0361                 1.0363
 Frc consts  --      5.6228                 5.6345                 5.6693
 IR Inten    --     17.3236                31.6160                 7.6950

                     49                     50                     51
                      A                      A                      A
 Frequencies --   3091.7319              3098.7483              3100.9537
 Red. masses --      1.1006                 1.0996                 1.1001
 Frc consts  --      6.1985                 6.2210                 6.2328
 IR Inten    --      4.7972                65.3183                29.3853

                     52                     53                     54
                      A                      A                      A
 Frequencies --   3103.2626              3112.7320              3115.4249
 Red. masses --      1.1001                 1.1007                 1.1012
 Frc consts  --      6.2420                 6.2834                 6.2973
 IR Inten    --     19.4027                17.8646                27.3179

                     55                     56                     57
                      A                      A                      A
 Frequencies --   3118.5834              3131.5504              3826.5434
 Red. masses --      1.1009                 1.1002                 1.0658
 Frc consts  --      6.3085                 6.3570                 9.1948
 IR Inten    --     32.2636                29.3030                 9.4623

 - Thermochemistry -
 -------------------
 Temperature   298.150 Kelvin.  Pressure   1.00000 Atm.
 Atom     1 has atomic number  6 and mass  12.00000

 Molecular mass:   102.10447 amu.
 Principal axes and moments of inertia in atomic units:
                           1         2         3
     Eigenvalues --   586.15475 826.83602 988.23891
           X            0.99831  -0.05649  -0.01366
           Y            0.05578   0.99731  -0.04757
           Z            0.01631   0.04673   0.99877
 This molecule is an asymmetric top.
 Rotational symmetry number  1.
 Warning -- assumption of classical behavior for rotation
           may cause significant error
 Rotational temperatures (Kelvin)      0.14777     0.10475     0.08764
 Rotational constants (GHZ):           3.07895     2.18271     1.82622
 Zero-point vibrational energy     503757.3 (Joules/Mol)
                                  120.40088 (Kcal/Mol)
 Warning -- explicit consideration of  14 degrees of freedom as
           vibrations may cause significant error
 Vibrational temperatures:     76.17   277.45   333.58   346.70   374.12
          (Kelvin)            386.09   405.97   436.96   514.23   535.26
                              585.05   653.94   691.43   763.82   998.35
                             1236.20  1316.59  1331.24  1336.06  1373.33
                             1400.98  1445.33  1520.27  1611.46  1649.29
                             1708.28  1737.21  1813.09  1911.39  1936.96
                             1983.43  2011.07  2023.04  2030.98  2049.53
                             2128.06  2135.50  2142.84  2161.31  2162.23
                             2170.34  2174.58  2183.96  4339.45  4360.18
                             4365.27  4371.08  4384.20  4448.31  4458.40
                             4461.58  4464.90  4478.52  4482.40  4486.94
                             4505.60  5505.54

 Zero-point correction=                           0.191871 (Hartree/Particle)
 Thermal correction to Energy=                    0.201267
 Thermal correction to Enthalpy=                  0.202211
 Thermal correction to Gibbs Free Energy=         0.158922
 Sum of electronic and zero-point Energies=           -312.133363
 Sum of electronic and thermal Energies=              -312.123968
 Sum of electronic and thermal Enthalpies=            -312.123024
 Sum of electronic and thermal Free Energies=         -312.166313

                     E (Thermal)             CV                S
                      KCal/Mol        Cal/Mol-Kelvin    Cal/Mol-Kelvin
 Total                  126.297             35.391             91.109
 Electronic               0.000              0.000              0.000
 Translational            0.889              2.981             39.780
 Rotational               0.889              2.981             27.662
 Vibrational            124.519             29.429             23.667
 Vibration     1          0.596              1.976              4.704
 Vibration     2          0.635              1.850              2.200
 Vibration     3          0.653              1.792              1.865
 Vibration     4          0.658              1.778              1.796
 Vibration     5          0.668              1.746              1.662
 Vibration     6          0.673              1.731              1.607
 Vibration     7          0.681              1.707              1.521
 Vibration     8          0.695              1.667              1.396
 Vibration     9          0.733              1.560              1.133
 Vibration    10          0.744              1.530              1.071
 Vibration    11          0.771              1.456              0.939
 Vibration    12          0.813              1.351              0.782
 Vibration    13          0.837              1.293              0.709
 Vibration    14          0.886              1.182              0.585

 Normal termination of Gaussian 09 at Fri Aug 26 12:49:31 2022.

 -----------------------------------------------------------------
 #P Geom=AllCheck Guess=TCheck SCRF=Check CCSD(T,E4T,FrzG4)/GTBas1
 -----------------------------------------------------------------

 Structure from the checkpoint file:  "G4.Frag_485.chk"
 --------
 Frag_485
 --------
 Charge =  0 Multiplicity = 1

 SCF Done:  E(RHF) =  -310.214685343     A.U. after   11 cycles
 E2 =    -0.9776694473D+00 EUMP2 =    -0.31119235479032D+03
 CCSD(T)
 CCSD(T)= -0.31130028810D+03
 \MP4SDTQ=-311.2985612\MP4SDQ=-311.2686024\CCSD=-311.2697758\CCSD(T)=-3
 Normal termination of Gaussian 09 at Fri Aug 26 12:54:44 2022.

 ---------------------------------------------------------
 #P Geom=AllCheck Guess=TCheck SCRF=Check MP4=FrzG4/GTBas2
 ---------------------------------------------------------

 Structure from the checkpoint file:  "G4.Frag_485.chk"
 --------
 Frag_485
 --------
 Charge =  0 Multiplicity = 1

 SCF Done:  E(RHF) =  -310.221080598     A.U. after   11 cycles
 E2 =    -0.9907520205D+00 EUMP2 =    -0.31121183261830D+03
 Normal termination of Gaussian 09 at Fri Aug 26 12:56:29 2022.

 ---------------------------------------------------------
 #P Geom=AllCheck Guess=TCheck SCRF=Check MP4=FrzG4/GTBas3
 ---------------------------------------------------------

 Structure from the checkpoint file:  "G4.Frag_485.chk"
 --------
 Frag_485
 --------
 Charge =  0 Multiplicity = 1

 SCF Done:  E(RHF) =  -310.257240456     A.U. after   10 cycles
 E2 =    -0.1225741484D+01 EUMP2 =    -0.31148298193962D+03
 Normal termination of Gaussian 09 at Fri Aug 26 13:13:44 2022.

 -----------------------------------------------------------
 #P Geom=AllCheck Guess=TCheck SCRF=Check MP2=Full/GTLargeXP
 -----------------------------------------------------------

 Structure from the checkpoint file:  "G4.Frag_485.chk"
 --------
 Frag_485
 --------
 Charge =  0 Multiplicity = 1

 SCF Done:  E(RHF) =  -310.328342604     A.U. after   11 cycles
 E2 =    -0.1608829731D+01 EUMP2 =    -0.31193717233550D+03
 Normal termination of Gaussian 09 at Fri Aug 26 13:18:37 2022.
 SCF Done:  E(RHF) =  -310.353263290     A.U. after    8 cycles
 Normal termination of Gaussian 09 at Fri Aug 26 13:23:43 2022.

                         Standard orientation:
 ---------------------------------------------------------------------
 Center     Atomic      Atomic             Coordinates (Angstroms)
 Number     Number       Type             X           Y           Z
 ---------------------------------------------------------------------
      1          6           0        1.545067    1.343867    0.103918
      2          6           0        0.849984    0.084719   -0.437677
      3          6           0        1.678177   -1.161549   -0.087130
      4          6           0       -0.648479   -0.041734   -0.022064
      5          6           0       -0.852391   -0.144609    1.497212
      6          6           0       -1.473356    1.119947   -0.586801
      7          8           0       -1.209222   -1.202926   -0.654797
      8          1           0        1.619753    1.325819    1.196841
      9          1           0        2.565324    1.409817   -0.288225
     10          1           0        1.025479    2.261913   -0.182763
     11          1           0        0.828021    0.156708   -1.533174
     12          1           0        1.240107   -2.073635   -0.503730
     13          1           0        1.787059   -1.292468    0.995295
     14          1           0        2.687047   -1.073251   -0.502749
     15          1           0       -0.315218   -1.001433    1.918959
     16          1           0       -1.916322   -0.275955    1.714191
     17          1           0       -0.506328    0.752715    2.018253
     18          1           0       -2.534979    0.937048   -0.399917
     19          1           0       -1.329774    1.200407   -1.668550
     20          1           0       -1.202381    2.072973   -0.126787
     21          1           0       -0.868022   -1.981104   -0.204006
 ---------------------------------------------------------------------

 SCF Done:  E(RHF) =  -310.358658239     A.U. after    8 cycles

 The electronic state is 1-A.
 Alpha  occ. eigenvalues --  -20.54487 -11.28294 -11.22628 -11.21486 -11.21484
 Alpha  occ. eigenvalues --  -11.21401 -11.20674  -1.35450  -1.08657  -1.01078
 Alpha  occ. eigenvalues --   -0.94096  -0.92630  -0.83895  -0.74503  -0.67946
 Alpha  occ. eigenvalues --   -0.62732  -0.61518  -0.61079  -0.56640  -0.55238
 Alpha  occ. eigenvalues --   -0.53796  -0.53207  -0.52918  -0.51298  -0.49990
 Alpha  occ. eigenvalues --   -0.48258  -0.47324  -0.44838  -0.41798
 Alpha virt. eigenvalues --    0.03069   0.03976   0.04158   0.04604   0.05943
 Alpha virt. eigenvalues --    0.06334   0.06732   0.06920   0.07243   0.09155
 Alpha virt. eigenvalues --    0.09226   0.09463   0.09818   0.09892   0.10228

 Mulliken charges:
               1
     1  C   -0.574455
     2  C    0.013312
     3  C   -0.608548
     4  C    0.429481
     5  C   -0.606576
     6  C   -0.590078
     7  O   -0.633561
     8  H    0.161874
     9  H    0.169763
    10  H    0.168812
    11  H    0.158483
    12  H    0.167830
    13  H    0.165121
    14  H    0.170121
    15  H    0.164672
    16  H    0.184838
    17  H    0.176260
    18  H    0.177731
    19  H    0.170613
    20  H    0.171685
    21  H    0.362623
 Sum of Mulliken charges =  -0.00000

 Dipole moment (field-independent basis, Debye):
    X=              1.1490    Y=              0.2072    Z=              1.2105  Tot=              1.6818
 Quadrupole moment (field-independent basis, Debye-Ang):
   XX=            -49.3335   YY=            -45.1911   ZZ=            -48.1142
   XY=             -1.4740   XZ=             -2.2575   YZ=             -1.8512

 Normal termination of Gaussian 09 at Fri Aug 26 13:40:16 2022.
