 Gaussian 09, Revision E.01,
 Gaussian 09:  ES64L-G09RevE.01 30-Nov-2015

 -----
 #P G4
 -----

 ---------
 Frag_1072
 ---------
 Symbolic Z-matrix:
 Charge =  0 Multiplicity = 1

 SCF Done:  E(RB3LYP) =  -415.794662115     A.U. after   12 cycles
 SCF Done:  E(RB3LYP) =  -415.803949053     A.U. after   11 cycles
 SCF Done:  E(RB3LYP) =  -415.805391106     A.U. after   11 cycles
 SCF Done:  E(RB3LYP) =  -415.805780551     A.U. after   10 cycles
 SCF Done:  E(RB3LYP) =  -415.804945020     A.U. after   10 cycles
 SCF Done:  E(RB3LYP) =  -415.805930924     A.U. after    8 cycles
 SCF Done:  E(RB3LYP) =  -415.806031989     A.U. after    9 cycles
 SCF Done:  E(RB3LYP) =  -415.806056706     A.U. after    8 cycles
 SCF Done:  E(RB3LYP) =  -415.806067781     A.U. after    9 cycles
 SCF Done:  E(RB3LYP) =  -415.806069932     A.U. after    7 cycles
 SCF Done:  E(RB3LYP) =  -415.806070357     A.U. after    6 cycles
 Optimization completed.
    -- Stationary point found.
 Normal termination of Gaussian 09 at Fri Aug 19 08:54:18 2022.

 ----------------------------------------------------------
 #P Geom=AllCheck Guess=TCheck SCRF=Check B3LYP/GTBas3 Freq
 ----------------------------------------------------------

 Structure from the checkpoint file:  "G4.Frag_1072.chk"
 ---------
 Frag_1072
 ---------
 Charge =  0 Multiplicity = 1

 SCF Done:  E(RB3LYP) =  -415.806070357     A.U. after    1 cycles

  Exact polarizability:  69.603   0.987  66.340  -1.132   0.123  63.993
 Approx polarizability:  94.679  -0.069  94.566  -0.258   0.313  95.419

                      1                      2                      3
                      A                      A                      A
 Frequencies --    118.6903               211.0333               232.3062
 Red. masses --      3.9179                 1.1359                 1.0434
 Frc consts  --      0.0325                 0.0298                 0.0332
 IR Inten    --      0.6817                28.5925                 5.1143

                      4                      5                      6
                      A                      A                      A
 Frequencies --    257.1575               272.6739               290.9223
 Red. masses --      2.8852                 2.5516                 1.2914
 Frc consts  --      0.1124                 0.1118                 0.0644
 IR Inten    --      6.7071                 4.3227                14.0863

                      7                      8                      9
                      A                      A                      A
 Frequencies --    332.0696               353.0547               365.3644
 Red. masses --      1.6493                 1.8130                 1.4849
 Frc consts  --      0.1072                 0.1331                 0.1168
 IR Inten    --     42.3962                10.9418                16.5287

                     10                     11                     12
                      A                      A                      A
 Frequencies --    371.1084               400.1930               430.9700
 Red. masses --      2.6469                 1.4970                 2.4616
 Frc consts  --      0.2148                 0.1413                 0.2694
 IR Inten    --      7.0336                31.3904                 9.4196

                     13                     14                     15
                      A                      A                      A
 Frequencies --    456.6347               498.6655               546.1806
 Red. masses --      1.7482                 1.9118                 3.3304
 Frc consts  --      0.2148                 0.2801                 0.5854
 IR Inten    --     86.3057                45.9153                14.2847

                     16                     17                     18
                      A                      A                      A
 Frequencies --    556.0023               586.2550               708.5553
 Red. masses --      2.9567                 2.6019                 3.4077
 Frc consts  --      0.5385                 0.5269                 1.0080
 IR Inten    --      4.4396                39.0532                16.6440

                     19                     20                     21
                      A                      A                      A
 Frequencies --    862.9399               866.8496               888.9269
 Red. masses --      2.6470                 1.6100                 1.5231
 Frc consts  --      1.1614                 0.7128                 0.7091
 IR Inten    --      8.3254               139.1403               157.4513

                     22                     23                     24
                      A                      A                      A
 Frequencies --    903.2711               942.3610               985.2979
 Red. masses --      1.8462                 1.4703                 1.4658
 Frc consts  --      0.8875                 0.7693                 0.8384
 IR Inten    --    100.8348                61.5164                34.3271

                     25                     26                     27
                      A                      A                      A
 Frequencies --    999.9487              1027.9858              1056.2114
 Red. masses --      1.9161                 1.7589                 1.8049
 Frc consts  --      1.1288                 1.0951                 1.1863
 IR Inten    --     88.9300                41.8558                62.3297

                     28                     29                     30
                      A                      A                      A
 Frequencies --   1077.1475              1112.1974              1192.1764
 Red. masses --      1.7954                 1.4628                 2.8973
 Frc consts  --      1.2274                 1.0661                 2.4262
 IR Inten    --     35.9938                15.6831                71.7648

                     31                     32                     33
                      A                      A                      A
 Frequencies --   1273.1807              1306.4366              1349.6302
 Red. masses --      1.7619                 1.6617                 1.8348
 Frc consts  --      1.6827                 1.6710                 1.9691
 IR Inten    --     22.1031                50.2092                48.7962

                     34                     35                     36
                      A                      A                      A
 Frequencies --   1368.1815              1392.0190              1411.8652
 Red. masses --      1.6881                 2.0981                 1.4470
 Frc consts  --      1.8618                 2.3953                 1.6994
 IR Inten    --     40.4205                 5.4184                19.3616

                     37                     38                     39
                      A                      A                      A
 Frequencies --   1486.5345              1501.0419              1628.7029
 Red. masses --      1.0571                 1.0561                 1.1129
 Frc consts  --      1.3763                 1.4019                 1.7394
 IR Inten    --      1.8027                 1.7785                55.9559

                     40                     41                     42
                      A                      A                      A
 Frequencies --   1638.0296              1646.5718              1659.3509
 Red. masses --      1.0974                 1.0981                 1.1057
 Frc consts  --      1.7349                 1.7542                 1.7938
 IR Inten    --     39.3396                61.6346                 5.3824

                     43                     44                     45
                      A                      A                      A
 Frequencies --   3051.3662              3115.3665              3149.5921
 Red. masses --      1.0363                 1.1006                 1.1013
 Frc consts  --      5.6850                 6.2934                 6.4366
 IR Inten    --     16.8041                22.9660                12.8095

                     46                     47                     48
                      A                      A                      A
 Frequencies --   3469.3444              3481.7442              3485.7994
 Red. masses --      1.0482                 1.0484                 1.0497
 Frc consts  --      7.4332                 7.4884                 7.5146
 IR Inten    --      0.6867                 1.4259                 0.0985

                     49                     50                     51
                      A                      A                      A
 Frequencies --   3491.0945              3556.9957              3559.9723
 Red. masses --      1.0481                 1.0920                 1.0910
 Frc consts  --      7.5261                 8.1405                 8.1462
 IR Inten    --     11.0942                 0.5759                 0.2380

                     52                     53                     54
                      A                      A                      A
 Frequencies --   3566.2125              3582.0337              3802.5815
 Red. masses --      1.0924                 1.0938                 1.0649
 Frc consts  --      8.1854                 8.2687                 9.0720
 IR Inten    --      3.0674                10.5806                21.5023

 - Thermochemistry -
 -------------------
 Temperature   298.150 Kelvin.  Pressure   1.00000 Atm.
 Atom     1 has atomic number  6 and mass  12.00000

 Molecular mass:   120.10111 amu.
 Principal axes and moments of inertia in atomic units:
                           1         2         3
     Eigenvalues --   720.41243 998.722541010.15091
           X            0.99875   0.03857  -0.03171
           Y           -0.04081   0.99649  -0.07315
           Z            0.02878   0.07435   0.99682
 This molecule is an asymmetric top.
 Rotational symmetry number  1.
 Warning -- assumption of classical behavior for rotation
           may cause significant error
 Rotational temperatures (Kelvin)      0.12023     0.08672     0.08574
 Rotational constants (GHZ):           2.50515     1.80705     1.78661
 Zero-point vibrational energy     465806.7 (Joules/Mol)
                                  111.33047 (Kcal/Mol)
 Warning -- explicit consideration of  17 degrees of freedom as
           vibrations may cause significant error
 Vibrational temperatures:    170.77   303.63   334.24   369.99   392.32
          (Kelvin)            418.57   477.77   507.97   525.68   533.94
                              575.79   620.07   656.99   717.47   785.83
                              799.96   843.49  1019.45  1241.58  1247.20
                             1278.97  1299.60  1355.85  1417.62  1438.70
                             1479.04  1519.65  1549.77  1600.20  1715.27
                             1831.82  1879.67  1941.81  1968.51  2002.80
                             2031.36  2138.79  2159.66  2343.34  2356.76
                             2369.05  2387.43  4390.23  4482.31  4531.55
                             4991.61  5009.45  5015.28  5022.90  5117.72
                             5122.00  5130.98  5153.74  5471.06

 Zero-point correction=                           0.177416 (Hartree/Particle)
 Thermal correction to Energy=                    0.187080
 Thermal correction to Enthalpy=                  0.188025
 Thermal correction to Gibbs Free Energy=         0.144692
 Sum of electronic and zero-point Energies=           -415.628654
 Sum of electronic and thermal Energies=              -415.618990
 Sum of electronic and thermal Enthalpies=            -415.618046
 Sum of electronic and thermal Free Energies=         -415.661379

                     E (Thermal)             CV                S
                      KCal/Mol        Cal/Mol-Kelvin    Cal/Mol-Kelvin
 Total                  117.395             38.419             91.202
 Electronic               0.000              0.000              0.000
 Translational            0.889              2.981             40.264
 Rotational               0.889              2.981             28.077
 Vibrational            115.617             32.458             22.861
 Vibration     1          0.609              1.934              3.122
 Vibration     2          0.643              1.824              2.035
 Vibration     3          0.653              1.792              1.861
 Vibration     4          0.667              1.751              1.681
 Vibration     5          0.676              1.724              1.579
 Vibration     6          0.687              1.691              1.469
 Vibration     7          0.714              1.611              1.250
 Vibration     8          0.729              1.569              1.153
 Vibration     9          0.739              1.544              1.099
 Vibration    10          0.743              1.532              1.075
 Vibration    11          0.766              1.470              0.962
 Vibration    12          0.792              1.403              0.855
 Vibration    13          0.815              1.346              0.776
 Vibration    14          0.854              1.253              0.661
 Vibration    15          0.901              1.148              0.552
 Vibration    16          0.911              1.127              0.532
 Vibration    17          0.943              1.061              0.474

 Normal termination of Gaussian 09 at Fri Aug 19 09:06:04 2022.

 -----------------------------------------------------------------
 #P Geom=AllCheck Guess=TCheck SCRF=Check CCSD(T,E4T,FrzG4)/GTBas1
 -----------------------------------------------------------------

 Structure from the checkpoint file:  "G4.Frag_1072.chk"
 ---------
 Frag_1072
 ---------
 Charge =  0 Multiplicity = 1

 SCF Done:  E(RHF) =  -413.227991985     A.U. after   12 cycles
 E2 =    -0.1239465591D+01 EUMP2 =    -0.41446745757582D+03
 CCSD(T)
 CCSD(T)= -0.41456928015D+03
 66\CCSD=-414.5333132\CCSD(T)=-414.5692801\RMSD=3.013e-09\PG=C01 [X(C3H
 Normal termination of Gaussian 09 at Fri Aug 19 09:41:41 2022.

 ---------------------------------------------------------
 #P Geom=AllCheck Guess=TCheck SCRF=Check MP4=FrzG4/GTBas2
 ---------------------------------------------------------

 Structure from the checkpoint file:  "G4.Frag_1072.chk"
 ---------
 Frag_1072
 ---------
 Charge =  0 Multiplicity = 1

 SCF Done:  E(RHF) =  -413.244719964     A.U. after   12 cycles
 E2 =    -0.1263571918D+01 EUMP2 =    -0.41450829188155D+03
 Normal termination of Gaussian 09 at Fri Aug 19 10:32:25 2022.

 ---------------------------------------------------------
 #P Geom=AllCheck Guess=TCheck SCRF=Check MP4=FrzG4/GTBas3
 ---------------------------------------------------------

 Structure from the checkpoint file:  "G4.Frag_1072.chk"
 ---------
 Frag_1072
 ---------
 Charge =  0 Multiplicity = 1

 SCF Done:  E(RHF) =  -413.291927557     A.U. after   11 cycles
 E2 =    -0.1525625036D+01 EUMP2 =    -0.41481755259278D+03
 Normal termination of Gaussian 09 at Sat Aug 20 00:58:23 2022.

 -----------------------------------------------------------
 #P Geom=AllCheck Guess=TCheck SCRF=Check MP2=Full/GTLargeXP
 -----------------------------------------------------------

 Structure from the checkpoint file:  "G4.Frag_1072.chk"
 ---------
 Frag_1072
 ---------
 Charge =  0 Multiplicity = 1

 SCF Done:  E(RHF) =  -413.402833231     A.U. after   12 cycles
 E2 =    -0.1985090367D+01 EUMP2 =    -0.41538792359805D+03
 Normal termination of Gaussian 09 at Sat Aug 20 01:45:24 2022.
 SCF Done:  E(RHF) =  -413.434503579     A.U. after    9 cycles
 Normal termination of Gaussian 09 at Sat Aug 20 02:02:53 2022.

                         Standard orientation:
 ---------------------------------------------------------------------
 Center     Atomic      Atomic             Coordinates (Angstroms)
 Number     Number       Type             X           Y           Z
 ---------------------------------------------------------------------
      1          6           0        1.419477    1.321797   -0.273264
      2          6           0        0.787569   -0.042125    0.028075
      3          7           0        1.145464   -0.448159    1.383135
      4          7           0        1.308594   -0.994196   -0.968829
      5          6           0       -0.782640    0.043535   -0.012059
      6          7           0       -1.235172    0.994517    0.977406
      7          7           0       -1.313885   -1.299957    0.205422
      8          8           0       -1.217825    0.483643   -1.297934
      9          1           0        2.505857    1.244049   -0.178046
     10          1           0        1.201709    1.629131   -1.300352
     11          1           0        1.048569    2.084990    0.411750
     12          1           0        0.680944   -1.329855    1.586728
     13          1           0        2.147699   -0.606878    1.429562
     14          1           0        1.000778   -1.934046   -0.734519
     15          1           0        0.919430   -0.771854   -1.882813
     16          1           0       -2.232818    0.900751    1.141582
     17          1           0       -0.736284    0.828004    1.846244
     18          1           0       -1.212765   -1.832045   -0.654967
     19          1           0       -2.315014   -1.231348    0.367528
     20          1           0       -1.146942    1.445279   -1.285683
 ---------------------------------------------------------------------

 SCF Done:  E(RHF) =  -413.441609801     A.U. after    8 cycles

 The electronic state is 1-A.
 Alpha  occ. eigenvalues --  -20.55771 -15.55026 -15.54491 -15.53648 -15.53644
 Alpha  occ. eigenvalues --  -11.34204 -11.28857 -11.20667  -1.38506  -1.24021
 Alpha  occ. eigenvalues --   -1.19381  -1.14329  -1.11902  -0.97860  -0.87816
 Alpha  occ. eigenvalues --   -0.76585  -0.71475  -0.70313  -0.66746  -0.65628
 Alpha  occ. eigenvalues --   -0.64825  -0.62197  -0.60809  -0.58510  -0.53796
 Alpha  occ. eigenvalues --   -0.52865  -0.51938  -0.50152  -0.46911  -0.43617
 Alpha  occ. eigenvalues --   -0.42193  -0.40599  -0.39068
 Alpha virt. eigenvalues --    0.03374   0.04255   0.04648   0.05018   0.06273
 Alpha virt. eigenvalues --    0.06945   0.07079   0.07550   0.07873   0.09819
 Alpha virt. eigenvalues --    0.10227   0.10952   0.11875   0.12105   0.12309

 Mulliken charges:
               1
     1  C   -0.595248
     2  C    0.474732
     3  N   -0.806098
     4  N   -0.782405
     5  C    0.527149
     6  N   -0.759363
     7  N   -0.753277
     8  O   -0.646877
     9  H    0.173462
    10  H    0.158796
    11  H    0.194487
    12  H    0.319138
    13  H    0.302572
    14  H    0.291301
    15  H    0.317486
    16  H    0.280083
    17  H    0.334593
    18  H    0.295831
    19  H    0.277359
    20  H    0.396277
 Sum of Mulliken charges =  -0.00000

 Dipole moment (field-independent basis, Debye):
    X=             -1.3681    Y=             -0.6380    Z=              0.1561  Tot=              1.5176
 Quadrupole moment (field-independent basis, Debye-Ang):
   XX=            -49.0267   YY=            -48.4216   ZZ=            -51.8214
   XY=              0.8939   XZ=             -0.6879   YZ=             -0.8803

 Normal termination of Gaussian 09 at Sat Aug 20 09:47:39 2022.
