 Gaussian 09, Revision E.01,
 Gaussian 09:  ES64L-G09RevE.01 30-Nov-2015

 -----
 #P G4
 -----

 --------
 Frag_817
 --------
 Symbolic Z-matrix:
 Charge =  0 Multiplicity = 1

 SCF Done:  E(RB3LYP) =  -279.328031852     A.U. after   16 cycles
 SCF Done:  E(RB3LYP) =  -279.345912207     A.U. after   14 cycles
 SCF Done:  E(RB3LYP) =  -279.348793267     A.U. after   16 cycles
 SCF Done:  E(RB3LYP) =  -279.351663330     A.U. after   14 cycles
 SCF Done:  E(RB3LYP) =  -279.352998302     A.U. after   14 cycles
 SCF Done:  E(RB3LYP) =  -279.352811830     A.U. after   14 cycles
 SCF Done:  E(RB3LYP) =  -279.353560523     A.U. after   11 cycles
 SCF Done:  E(RB3LYP) =  -279.353999116     A.U. after   14 cycles
 SCF Done:  E(RB3LYP) =  -279.354197382     A.U. after   13 cycles
 SCF Done:  E(RB3LYP) =  -279.355201876     A.U. after   16 cycles
 SCF Done:  E(RB3LYP) =  -279.368676481     A.U. after   12 cycles
 SCF Done:  E(RB3LYP) =  -279.368707857     A.U. after   11 cycles
 SCF Done:  E(RB3LYP) =  -279.368715868     A.U. after   11 cycles
 Optimization completed.
    -- Stationary point found.
 Normal termination of Gaussian 09 at Fri Aug 26 04:10:11 2022.

 ----------------------------------------------------------
 #P Geom=AllCheck Guess=TCheck SCRF=Check B3LYP/GTBas3 Freq
 ----------------------------------------------------------

 Structure from the checkpoint file:  "G4.Frag_817.chk"
 --------
 Frag_817
 --------
 Charge =  0 Multiplicity = 1

 SCF Done:  E(RB3LYP) =  -279.368715868     A.U. after    1 cycles

  Exact polarizability:  47.009   5.222  35.985   0.006   0.003  18.804
 Approx polarizability:  70.683  12.402  62.801   0.019   0.008  29.005

                      1                      2                      3
                      A                      A                      A
 Frequencies --    171.1180               331.8350               346.9386
 Red. masses --      4.2582                 1.2175                 4.1929
 Frc consts  --      0.0735                 0.0790                 0.2974
 IR Inten    --     14.5760               184.0848                20.1570

                      4                      5                      6
                      A                      A                      A
 Frequencies --    471.1279               595.9212               692.6865
 Red. masses --      3.9441                 1.3777                 2.2026
 Frc consts  --      0.5158                 0.2883                 0.6227
 IR Inten    --      8.4575                29.0569                42.9788

                      7                      8                      9
                      A                      A                      A
 Frequencies --    704.2690               752.2816              1079.3934
 Red. masses --      4.3657                 4.9967                 1.4662
 Frc consts  --      1.2758                 1.6661                 1.0065
 IR Inten    --     11.2013                10.4637                35.8369

                     10                     11                     12
                      A                      A                      A
 Frequencies --   1108.2930              1332.5513              1510.6405
 Red. masses --      1.9340                 3.4937                 1.2877
 Frc consts  --      1.3997                 3.6552                 1.7313
 IR Inten    --      1.6418               102.3752                83.5313

                     13                     14                     15
                      A                      A                      A
 Frequencies --   1603.7880              1682.2300              1864.8367
 Red. masses --      1.2563                 9.3602                10.7619
 Frc consts  --      1.9039                15.6064                22.0506
 IR Inten    --    121.0507                 0.7354               295.5727

                     16                     17                     18
                      A                      A                      A
 Frequencies --   3044.0418              3608.5528              3744.7028
 Red. masses --      1.0672                 1.0440                 1.1058
 Frc consts  --      5.8262                 8.0095                 9.1364
 IR Inten    --     22.4466                68.4718                70.5871

 - Thermochemistry -
 -------------------
 Temperature   298.150 Kelvin.  Pressure   1.00000 Atm.
 Atom     1 has atomic number  7 and mass  14.00307

 Molecular mass:    73.02761 amu.
 Principal axes and moments of inertia in atomic units:
                           1         2         3
     Eigenvalues --   164.92569 372.41291 537.33847
           X            0.99753   0.07018  -0.00003
           Y           -0.07018   0.99753  -0.00005
           Z            0.00003   0.00005   1.00000
 This molecule is an asymmetric top.
 Rotational symmetry number  1.
 Rotational temperatures (Kelvin)      0.52517     0.23257     0.16119
 Rotational constants (GHZ):          10.94275     4.84608     3.35867
 Zero-point vibrational energy     147411.1 (Joules/Mol)
                                   35.23209 (Kcal/Mol)
 Warning -- explicit consideration of   5 degrees of freedom as
           vibrations may cause significant error
 Vibrational temperatures:    246.20   477.44   499.17   677.85   857.40
          (Kelvin)            996.62  1013.28  1082.36  1553.00  1594.58
                             1917.24  2173.47  2307.49  2420.35  2683.08
                             4379.69  5191.90  5387.79

 Zero-point correction=                           0.056146 (Hartree/Particle)
 Thermal correction to Energy=                    0.061133
 Thermal correction to Enthalpy=                  0.062077
 Thermal correction to Gibbs Free Energy=         0.028402
 Sum of electronic and zero-point Energies=           -279.312570
 Sum of electronic and thermal Energies=              -279.307583
 Sum of electronic and thermal Enthalpies=            -279.306639
 Sum of electronic and thermal Free Energies=         -279.340314

                     E (Thermal)             CV                S
                      KCal/Mol        Cal/Mol-Kelvin    Cal/Mol-Kelvin
 Total                   38.362             16.672             70.875
 Electronic               0.000              0.000              0.000
 Translational            0.889              2.981             38.781
 Rotational               0.889              2.981             25.004
 Vibrational             36.584             10.710              7.090
 Vibration     1          0.626              1.878              2.423
 Vibration     2          0.714              1.612              1.251
 Vibration     3          0.725              1.581              1.180
 Vibration     4          0.828              1.314              0.734
 Vibration     5          0.954              1.040              0.457

 Normal termination of Gaussian 09 at Fri Aug 26 04:10:27 2022.

 -----------------------------------------------------------------
 #P Geom=AllCheck Guess=TCheck SCRF=Check CCSD(T,E4T,FrzG4)/GTBas1
 -----------------------------------------------------------------

 Structure from the checkpoint file:  "G4.Frag_817.chk"
 --------
 Frag_817
 --------
 Charge =  0 Multiplicity = 1

 SCF Done:  E(RHF) =  -277.777885230     A.U. after   14 cycles
 E2 =    -0.7841733608D+00 EUMP2 =    -0.27856205859124D+03
 CCSD(T)
 CCSD(T)= -0.27861306041D+03
 6175387\MP4SDQ=-278.5858812\CCSD=-278.5840467\CCSD(T)=-278.6130604\RMS
 Normal termination of Gaussian 09 at Fri Aug 26 04:11:08 2022.

 ---------------------------------------------------------
 #P Geom=AllCheck Guess=TCheck SCRF=Check MP4=FrzG4/GTBas2
 ---------------------------------------------------------

 Structure from the checkpoint file:  "G4.Frag_817.chk"
 --------
 Frag_817
 --------
 Charge =  0 Multiplicity = 1

 SCF Done:  E(RHF) =  -277.786946157     A.U. after   13 cycles
 E2 =    -0.7953304931D+00 EUMP2 =    -0.27858227665043D+03
 Normal termination of Gaussian 09 at Fri Aug 26 04:11:20 2022.

 ---------------------------------------------------------
 #P Geom=AllCheck Guess=TCheck SCRF=Check MP4=FrzG4/GTBas3
 ---------------------------------------------------------

 Structure from the checkpoint file:  "G4.Frag_817.chk"
 --------
 Frag_817
 --------
 Charge =  0 Multiplicity = 1

 SCF Done:  E(RHF) =  -277.811711308     A.U. after   12 cycles
 E2 =    -0.9369231457D+00 EUMP2 =    -0.27874863445362D+03
 Normal termination of Gaussian 09 at Fri Aug 26 04:12:09 2022.

 -----------------------------------------------------------
 #P Geom=AllCheck Guess=TCheck SCRF=Check MP2=Full/GTLargeXP
 -----------------------------------------------------------

 Structure from the checkpoint file:  "G4.Frag_817.chk"
 --------
 Frag_817
 --------
 Charge =  0 Multiplicity = 1

 SCF Done:  E(RHF) =  -277.887412194     A.U. after   12 cycles
 E2 =    -0.1221197891D+01 EUMP2 =    -0.27910861008492D+03
 Normal termination of Gaussian 09 at Fri Aug 26 04:12:41 2022.
 SCF Done:  E(RHF) =  -277.909061259     A.U. after    9 cycles
 Normal termination of Gaussian 09 at Fri Aug 26 04:13:15 2022.

                         Standard orientation:
 ---------------------------------------------------------------------
 Center     Atomic      Atomic             Coordinates (Angstroms)
 Number     Number       Type             X           Y           Z
 ---------------------------------------------------------------------
      1          7           0       -1.840460    0.189336   -0.000374
      2          7           0       -0.759266    0.781512    0.000739
      3          6           0        0.425958   -0.149117   -0.000334
      4          7           0        1.552431    0.578249    0.000203
      5          8           0        0.313097   -1.351408    0.000247
      6          1           0       -1.665026   -0.848408   -0.001217
      7          1           0        1.483580    1.582065   -0.001842
      8          1           0        2.451994    0.128623   -0.000882
 ---------------------------------------------------------------------

 SCF Done:  E(RHF) =  -277.913411084     A.U. after    8 cycles

 The electronic state is 1-A.
 Alpha  occ. eigenvalues --  -20.55633 -15.64699 -15.64537 -15.61637 -11.40034
 Alpha  occ. eigenvalues --   -1.44159  -1.36209  -1.25447  -0.96751  -0.82587
 Alpha  occ. eigenvalues --   -0.78616  -0.72788  -0.66414  -0.62971  -0.58517
 Alpha  occ. eigenvalues --   -0.51644  -0.49949  -0.45172  -0.41492
 Alpha virt. eigenvalues --    0.03187   0.05356   0.05671   0.05863   0.06950
 Alpha virt. eigenvalues --    0.08312   0.09088   0.10636   0.11114   0.11543
 Alpha virt. eigenvalues --    0.12220   0.12816   0.14970   0.15661   0.17104

 Mulliken charges:
               1
     1  N   -0.291298
     2  N   -0.133973
     3  C    0.681881
     4  N   -0.681372
     5  O   -0.624918
     6  H    0.317414
     7  H    0.362838
     8  H    0.369428
 Sum of Mulliken charges =  -0.00000

 Dipole moment (field-independent basis, Debye):
    X=              2.9098    Y=              1.3282    Z=             -0.0085  Tot=              3.1986
 Quadrupole moment (field-independent basis, Debye-Ang):
   XX=            -25.0817   YY=            -32.0337   ZZ=            -29.1196
   XY=              6.0175   XZ=             -0.0074   YZ=             -0.0067

 Normal termination of Gaussian 09 at Fri Aug 26 04:16:49 2022.
