 Gaussian 09, Revision E.01,
 Gaussian 09:  ES64L-G09RevE.01 30-Nov-2015

 -----
 #P G4
 -----

 --------
 Frag_921
 --------
 Symbolic Z-matrix:
 Charge =  0 Multiplicity = 1

 SCF Done:  E(RB3LYP) =  -209.118375310     A.U. after   13 cycles
 SCF Done:  E(RB3LYP) =  -209.166955649     A.U. after   12 cycles
 SCF Done:  E(RB3LYP) =  -209.193163220     A.U. after   12 cycles
 SCF Done:  E(RB3LYP) =  -209.195140600     A.U. after   11 cycles
 SCF Done:  E(RB3LYP) =  -209.195396551     A.U. after   11 cycles
 SCF Done:  E(RB3LYP) =  -209.195614362     A.U. after   11 cycles
 SCF Done:  E(RB3LYP) =  -209.195818073     A.U. after   13 cycles
 SCF Done:  E(RB3LYP) =  -209.196612571     A.U. after   11 cycles
 SCF Done:  E(RB3LYP) =  -209.197752616     A.U. after   11 cycles
 SCF Done:  E(RB3LYP) =  -209.198278915     A.U. after   12 cycles
 SCF Done:  E(RB3LYP) =  -209.198332573     A.U. after    9 cycles
 SCF Done:  E(RB3LYP) =  -209.198348241     A.U. after    9 cycles
 SCF Done:  E(RB3LYP) =  -209.198349173     A.U. after    8 cycles
 Optimization completed.
    -- Stationary point found.
 Normal termination of Gaussian 09 at Tue Aug 30 12:34:07 2022.

 ----------------------------------------------------------
 #P Geom=AllCheck Guess=TCheck SCRF=Check B3LYP/GTBas3 Freq
 ----------------------------------------------------------

 Structure from the checkpoint file:  "G4.Frag_921.chk"
 --------
 Frag_921
 --------
 Charge =  0 Multiplicity = 1

 SCF Done:  E(RB3LYP) =  -209.198349173     A.U. after    1 cycles

  Exact polarizability:  47.430  -1.202  32.470  -0.001   0.000  22.579
 Approx polarizability:  65.940  -6.861  49.251  -0.002   0.001  32.060

                      1                      2                      3
                      A                      A                      A
 Frequencies --    201.1882               287.7943               323.2628
 Red. masses --      1.2980                 2.3874                 3.0612
 Frc consts  --      0.0310                 0.1165                 0.1885
 IR Inten    --      2.0772                 5.2163                12.2380

                      4                      5                      6
                      A                      A                      A
 Frequencies --    590.0164               631.7587              1002.0173
 Red. masses --      3.5487                 1.3117                 1.4199
 Frc consts  --      0.7279                 0.3084                 0.8400
 IR Inten    --      7.3049               115.1546                 6.2031

                      7                      8                      9
                      A                      A                      A
 Frequencies --   1007.7737              1143.2326              1146.4427
 Red. masses --      3.1282                 1.3552                 1.6583
 Frc consts  --      1.8719                 1.0435                 1.2842
 IR Inten    --    101.1747                 0.1922                 6.3928

                     10                     11                     12
                      A                      A                      A
 Frequencies --   1196.4662              1349.4415              1398.1309
 Red. masses --      2.0975                 2.0325                 1.2110
 Frc consts  --      1.7691                 2.1807                 1.3947
 IR Inten    --    154.8055                 8.3252                14.7739

                     13                     14                     15
                      A                      A                      A
 Frequencies --   1451.7490              1482.7906              1506.4407
 Red. masses --      1.1933                 1.0426                 1.0547
 Frc consts  --      1.4818                 1.3505                 1.4102
 IR Inten    --     20.7229                 2.6980                 7.5684

                     16                     17                     18
                      A                      A                      A
 Frequencies --   1775.3179              2978.9727              3061.2183
 Red. masses --      7.2602                 1.0463                 1.0869
 Frc consts  --     13.4819                 5.4704                 6.0008
 IR Inten    --    300.0388                62.8646                45.5995

                     19                     20                     21
                      A                      A                      A
 Frequencies --   3076.1083              3078.6035              3744.7380
 Red. masses --      1.0904                 1.1016                 1.0635
 Frc consts  --      6.0794                 6.1516                 8.7869
 IR Inten    --     33.8421                25.2331                39.7266

 - Thermochemistry -
 -------------------
 Temperature   298.150 Kelvin.  Pressure   1.00000 Atm.
 Atom     1 has atomic number  6 and mass  12.00000

 Molecular mass:    59.03711 amu.
 Principal axes and moments of inertia in atomic units:
                           1         2         3
     Eigenvalues --    38.52874 413.60456 440.97856
           X            0.99985   0.01735   0.00000
           Y           -0.01735   0.99985  -0.00000
           Z           -0.00000   0.00000   1.00000
 This molecule is an asymmetric top.
 Rotational symmetry number  1.
 Rotational temperatures (Kelvin)      2.24803     0.20941     0.19641
 Rotational constants (GHZ):          46.84143     4.36345     4.09258
 Zero-point vibrational energy     193995.2 (Joules/Mol)
                                   46.36596 (Kcal/Mol)
 Warning -- explicit consideration of   4 degrees of freedom as
           vibrations may cause significant error
 Vibrational temperatures:    289.46   414.07   465.10   848.90   908.96
          (Kelvin)           1441.68  1449.96  1644.85  1649.47  1721.45
                             1941.54  2011.60  2088.74  2133.40  2167.43
                             2554.28  4286.07  4404.40  4425.83  4429.42
                             5387.84

 Zero-point correction=                           0.073889 (Hartree/Particle)
 Thermal correction to Energy=                    0.078582
 Thermal correction to Enthalpy=                  0.079526
 Thermal correction to Gibbs Free Energy=         0.047315
 Sum of electronic and zero-point Energies=           -209.124460
 Sum of electronic and thermal Energies=              -209.119767
 Sum of electronic and thermal Enthalpies=            -209.118823
 Sum of electronic and thermal Free Energies=         -209.151034

                     E (Thermal)             CV                S
                      KCal/Mol        Cal/Mol-Kelvin    Cal/Mol-Kelvin
 Total                   49.311             15.084             67.794
 Electronic               0.000              0.000              0.000
 Translational            0.889              2.981             38.147
 Rotational               0.889              2.981             23.467
 Vibrational             47.533              9.122              6.180
 Vibration     1          0.638              1.838              2.122
 Vibration     2          0.685              1.696              1.487
 Vibration     3          0.708              1.629              1.294
 Vibration     4          0.947              1.053              0.467

 Optimization completed.
    -- Stationary point found.
 Normal termination of Gaussian 09 at Tue Aug 30 12:34:20 2022.

 -----------------------------------------------------------------
 #P Geom=AllCheck Guess=TCheck SCRF=Check CCSD(T,E4T,FrzG4)/GTBas1
 -----------------------------------------------------------------

 Structure from the checkpoint file:  "G4.Frag_921.chk"
 --------
 Frag_921
 --------
 Charge =  0 Multiplicity = 1

 SCF Done:  E(RHF) =  -207.936177284     A.U. after   12 cycles
 E2 =    -0.5963533959D+00 EUMP2 =    -0.20853253067977D+03
 CCSD(T)
 CCSD(T)= -0.20858171769D+03
 624051\CCSD=-208.5624707\CCSD(T)=-208.5817177\RMSD=8.327e-09\PG=C01 [X
 Normal termination of Gaussian 09 at Tue Aug 30 12:34:41 2022.

 ---------------------------------------------------------
 #P Geom=AllCheck Guess=TCheck SCRF=Check MP4=FrzG4/GTBas2
 ---------------------------------------------------------

 Structure from the checkpoint file:  "G4.Frag_921.chk"
 --------
 Frag_921
 --------
 Charge =  0 Multiplicity = 1

 SCF Done:  E(RHF) =  -207.943064577     A.U. after   12 cycles
 E2 =    -0.6052592818D+00 EUMP2 =    -0.20854832385838D+03
 Normal termination of Gaussian 09 at Tue Aug 30 12:34:48 2022.

 ---------------------------------------------------------
 #P Geom=AllCheck Guess=TCheck SCRF=Check MP4=FrzG4/GTBas3
 ---------------------------------------------------------

 Structure from the checkpoint file:  "G4.Frag_921.chk"
 --------
 Frag_921
 --------
 Charge =  0 Multiplicity = 1

 SCF Done:  E(RHF) =  -207.963844128     A.U. after   12 cycles
 E2 =    -0.7300097333D+00 EUMP2 =    -0.20869385386091D+03
 Normal termination of Gaussian 09 at Tue Aug 30 12:35:15 2022.

 -----------------------------------------------------------
 #P Geom=AllCheck Guess=TCheck SCRF=Check MP2=Full/GTLargeXP
 -----------------------------------------------------------

 Structure from the checkpoint file:  "G4.Frag_921.chk"
 --------
 Frag_921
 --------
 Charge =  0 Multiplicity = 1

 SCF Done:  E(RHF) =  -208.020036271     A.U. after   11 cycles
 E2 =    -0.9564225566D+00 EUMP2 =    -0.20897645882779D+03
 Normal termination of Gaussian 09 at Tue Aug 30 12:35:32 2022.
 SCF Done:  E(RHF) =  -208.036853739     A.U. after    8 cycles
 Normal termination of Gaussian 09 at Tue Aug 30 12:35:56 2022.

                         Standard orientation:
 ---------------------------------------------------------------------
 Center     Atomic      Atomic             Coordinates (Angstroms)
 Number     Number       Type             X           Y           Z
 ---------------------------------------------------------------------
      1          6           0        1.774100    0.048260    0.000030
      2          7           0        0.420224   -0.468105   -0.000049
      3          6           0       -0.530146    0.358010   -0.000064
      4          8           0       -1.823717   -0.016082    0.000026
      5          1           0        1.831137    1.148187    0.000597
      6          1           0        2.311230   -0.323032    0.880081
      7          1           0        2.311302   -0.322296   -0.880429
      8          1           0       -0.443153    1.450125   -0.000035
      9          1           0       -1.826067   -0.985217    0.000132
 ---------------------------------------------------------------------

 SCF Done:  E(RHF) =  -208.040414815     A.U. after    7 cycles

 The electronic state is 1-A.
 Alpha  occ. eigenvalues --  -20.59735 -15.54889 -11.33706 -11.25201  -1.42607
 Alpha  occ. eigenvalues --   -1.21907  -0.94961  -0.84515  -0.68633  -0.68424
 Alpha  occ. eigenvalues --   -0.61502  -0.58367  -0.56928  -0.55143  -0.42256
 Alpha  occ. eigenvalues --   -0.39430
 Alpha virt. eigenvalues --    0.04146   0.04655   0.05327   0.05407   0.07045
 Alpha virt. eigenvalues --    0.07978   0.08026   0.12171   0.12800   0.13906
 Alpha virt. eigenvalues --    0.14850   0.15283   0.16518   0.17526   0.17815

 Mulliken charges:
               1
     1  C   -0.397875
     2  N   -0.425762
     3  C    0.271131
     4  O   -0.533710
     5  H    0.138994
     6  H    0.176936
     7  H    0.176930
     8  H    0.193555
     9  H    0.399801
 Sum of Mulliken charges =  -0.00000

 Dipole moment (field-independent basis, Debye):
    X=              0.6405    Y=              0.7591    Z=              0.0003  Tot=              0.9933
 Quadrupole moment (field-independent basis, Debye-Ang):
   XX=            -24.7857   YY=            -23.1941   ZZ=            -25.2788
   XY=              2.8511   XZ=             -0.0001   YZ=             -0.0004

 Normal termination of Gaussian 09 at Tue Aug 30 12:38:00 2022.
