 Gaussian 09, Revision E.01,
 Gaussian 09:  ES64L-G09RevE.01 30-Nov-2015

 -----
 #P G4
 -----

 --------
 Frag_964
 --------
 Symbolic Z-matrix:
 Charge =  0 Multiplicity = 1

 SCF Done:  E(RB3LYP) =  -265.758646023     A.U. after   12 cycles
 SCF Done:  E(RB3LYP) =  -265.765503012     A.U. after   11 cycles
 SCF Done:  E(RB3LYP) =  -265.766082927     A.U. after   10 cycles
 SCF Done:  E(RB3LYP) =  -265.766175731     A.U. after   10 cycles
 SCF Done:  E(RB3LYP) =  -265.766189116     A.U. after    8 cycles
 SCF Done:  E(RB3LYP) =  -265.766191557     A.U. after    7 cycles
 SCF Done:  E(RB3LYP) =  -265.766192462     A.U. after    7 cycles
 SCF Done:  E(RB3LYP) =  -265.766192637     A.U. after    7 cycles
 SCF Done:  E(RB3LYP) =  -265.766192698     A.U. after    6 cycles
 Optimization completed.
    -- Stationary point found.
 Normal termination of Gaussian 09 at Fri Aug 26 11:13:56 2022.

 ----------------------------------------------------------
 #P Geom=AllCheck Guess=TCheck SCRF=Check B3LYP/GTBas3 Freq
 ----------------------------------------------------------

 Structure from the checkpoint file:  "G4.Frag_964.chk"
 --------
 Frag_964
 --------
 Charge =  0 Multiplicity = 1

 SCF Done:  E(RB3LYP) =  -265.766192698     A.U. after    1 cycles

  Exact polarizability:  47.414  -1.159  41.457   0.494   0.646  39.048
 Approx polarizability:  58.962  -0.030  57.425  -0.349   1.260  57.629

                      1                      2                      3
                      A                      A                      A
 Frequencies --    134.3275               185.9908               272.1095
 Red. masses --      1.9879                 1.2436                 2.5316
 Frc consts  --      0.0211                 0.0253                 0.1104
 IR Inten    --      4.0032                 1.3841                 4.3240

                      4                      5                      6
                      A                      A                      A
 Frequencies --    308.9544               402.9004               454.5963
 Red. masses --      1.1062                 1.3703                 2.3079
 Frc consts  --      0.0622                 0.1311                 0.2810
 IR Inten    --     23.5760                48.7423                83.0006

                      7                      8                      9
                      A                      A                      A
 Frequencies --    512.3318               577.1019               829.4226
 Red. masses --      3.0229                 2.4656                 1.4796
 Frc consts  --      0.4675                 0.4838                 0.5997
 IR Inten    --     16.7040                10.1587               202.2831

                     10                     11                     12
                      A                      A                      A
 Frequencies --    857.1177               907.0927              1038.3658
 Red. masses --      1.8677                 1.7084                 4.8714
 Frc consts  --      0.8084                 0.8282                 3.0946
 IR Inten    --     47.7908                 8.9004               169.2117

                     13                     14                     15
                      A                      A                      A
 Frequencies --   1070.0869              1125.9363              1139.9809
 Red. masses --      1.9068                 1.5852                 1.4046
 Frc consts  --      1.2865                 1.1840                 1.0755
 IR Inten    --     13.4770                86.0203                13.9288

                     16                     17                     18
                      A                      A                      A
 Frequencies --   1202.9820              1239.2913              1303.6605
 Red. masses --      1.7802                 1.8785                 1.4837
 Frc consts  --      1.5178                 1.6999                 1.4857
 IR Inten    --     31.2780                15.3646                13.7393

                     19                     20                     21
                      A                      A                      A
 Frequencies --   1418.5638              1422.4105              1463.6627
 Red. masses --      1.1284                 1.3201                 1.2466
 Frc consts  --      1.3379                 1.5736                 1.5735
 IR Inten    --     25.0948                47.6957                38.1651

                     22                     23                     24
                      A                      A                      A
 Frequencies --   1478.6442              1495.0699              1521.7754
 Red. masses --      1.2511                 1.0954                 1.0599
 Frc consts  --      1.6117                 1.4426                 1.4462
 IR Inten    --     25.6137                 4.0369                13.4489

                     25                     26                     27
                      A                      A                      A
 Frequencies --   1641.6097              2961.5067              2968.3582
 Red. masses --      1.1093                 1.0624                 1.0796
 Frc consts  --      1.7612                 5.4897                 5.6044
 IR Inten    --     37.0802                42.0505               105.8146

                     28                     29                     30
                      A                      A                      A
 Frequencies --   3081.7397              3136.7400              3489.6764
 Red. masses --      1.0764                 1.1001                 1.0497
 Frc consts  --      6.0228                 6.3776                 7.5319
 IR Inten    --     34.9773                14.4728                 0.2633

                     31                     32                     33
                      A                      A                      A
 Frequencies --   3533.8640              3587.0509              3767.1356
 Red. masses --      1.0737                 1.0914                 1.0647
 Frc consts  --      7.8999                 8.2736                 8.9024
 IR Inten    --      1.2698                 2.5691                11.0472

 - Thermochemistry -
 -------------------
 Temperature   298.150 Kelvin.  Pressure   1.00000 Atm.
 Atom     1 has atomic number  6 and mass  12.00000

 Molecular mass:    76.06366 amu.
 Principal axes and moments of inertia in atomic units:
                           1         2         3
     Eigenvalues --   217.04725 471.66777 626.57766
           X            0.99935  -0.03227   0.01614
           Y            0.03232   0.99947  -0.00240
           Z           -0.01605   0.00292   0.99987
 This molecule is an asymmetric top.
 Rotational symmetry number  1.
 Rotational temperatures (Kelvin)      0.39906     0.18363     0.13823
 Rotational constants (GHZ):           8.31497     3.82630     2.88032
 Zero-point vibrational energy     302236.9 (Joules/Mol)
                                   72.23634 (Kcal/Mol)
 Warning -- explicit consideration of   8 degrees of freedom as
           vibrations may cause significant error
 Vibrational temperatures:    193.27   267.60   391.50   444.52   579.68
          (Kelvin)            654.06   737.13   830.32  1193.35  1233.20
                             1305.10  1493.97  1539.61  1619.97  1640.18
                             1730.82  1783.06  1875.67  2040.99  2046.53
                             2105.88  2127.44  2151.07  2189.49  2361.91
                             4260.94  4270.80  4433.93  4513.06  5020.86
                             5084.44  5160.96  5420.06

 Zero-point correction=                           0.115116 (Hartree/Particle)
 Thermal correction to Energy=                    0.121391
 Thermal correction to Enthalpy=                  0.122335
 Thermal correction to Gibbs Free Energy=         0.086008
 Sum of electronic and zero-point Energies=           -265.651077
 Sum of electronic and thermal Energies=              -265.644801
 Sum of electronic and thermal Enthalpies=            -265.643857
 Sum of electronic and thermal Free Energies=         -265.680185

                     E (Thermal)             CV                S
                      KCal/Mol        Cal/Mol-Kelvin    Cal/Mol-Kelvin
 Total                   76.174             22.128             76.458
 Electronic               0.000              0.000              0.000
 Translational            0.889              2.981             38.903
 Rotational               0.889              2.981             25.665
 Vibrational             74.397             16.167             11.891
 Vibration     1          0.613              1.919              2.883
 Vibration     2          0.632              1.859              2.267
 Vibration     3          0.675              1.725              1.583
 Vibration     4          0.698              1.657              1.368
 Vibration     5          0.768              1.464              0.952
 Vibration     6          0.813              1.351              0.782
 Vibration     7          0.867              1.223              0.628
 Vibration     8          0.934              1.081              0.491

 Optimization completed.
    -- Stationary point found.
 Normal termination of Gaussian 09 at Fri Aug 26 11:14:19 2022.

 -----------------------------------------------------------------
 #P Geom=AllCheck Guess=TCheck SCRF=Check CCSD(T,E4T,FrzG4)/GTBas1
 -----------------------------------------------------------------

 Structure from the checkpoint file:  "G4.Frag_964.chk"
 --------
 Frag_964
 --------
 Charge =  0 Multiplicity = 1

 SCF Done:  E(RHF) =  -264.131393978     A.U. after   12 cycles
 E2 =    -0.7690912932D+00 EUMP2 =    -0.26490048527091D+03
 CCSD(T)
 CCSD(T)= -0.26496639031D+03
 Normal termination of Gaussian 09 at Fri Aug 26 11:15:21 2022.

 ---------------------------------------------------------
 #P Geom=AllCheck Guess=TCheck SCRF=Check MP4=FrzG4/GTBas2
 ---------------------------------------------------------

 Structure from the checkpoint file:  "G4.Frag_964.chk"
 --------
 Frag_964
 --------
 Charge =  0 Multiplicity = 1

 SCF Done:  E(RHF) =  -264.141814369     A.U. after   11 cycles
 E2 =    -0.7836091883D+00 EUMP2 =    -0.26492542355692D+03
 Normal termination of Gaussian 09 at Fri Aug 26 11:15:39 2022.

 ---------------------------------------------------------
 #P Geom=AllCheck Guess=TCheck SCRF=Check MP4=FrzG4/GTBas3
 ---------------------------------------------------------

 Structure from the checkpoint file:  "G4.Frag_964.chk"
 --------
 Frag_964
 --------
 Charge =  0 Multiplicity = 1

 SCF Done:  E(RHF) =  -264.171013483     A.U. after   11 cycles
 E2 =    -0.9532521966D+00 EUMP2 =    -0.26512426567990D+03
 Normal termination of Gaussian 09 at Fri Aug 26 11:17:24 2022.

 -----------------------------------------------------------
 #P Geom=AllCheck Guess=TCheck SCRF=Check MP2=Full/GTLargeXP
 -----------------------------------------------------------

 Structure from the checkpoint file:  "G4.Frag_964.chk"
 --------
 Frag_964
 --------
 Charge =  0 Multiplicity = 1

 SCF Done:  E(RHF) =  -264.243924233     A.U. after   11 cycles
 E2 =    -0.1242143950D+01 EUMP2 =    -0.26548606818371D+03
 Normal termination of Gaussian 09 at Fri Aug 26 11:18:19 2022.
 SCF Done:  E(RHF) =  -264.264936836     A.U. after    8 cycles
 Normal termination of Gaussian 09 at Fri Aug 26 11:19:27 2022.

                         Standard orientation:
 ---------------------------------------------------------------------
 Center     Atomic      Atomic             Coordinates (Angstroms)
 Number     Number       Type             X           Y           Z
 ---------------------------------------------------------------------
      1          6           0        1.958815    0.016571    0.066545
      2          7           0        0.678950   -0.581159   -0.311602
      3          6           0       -0.486176   -0.006488    0.332410
      4          7           0       -0.606372    1.367049   -0.092762
      5          8           0       -1.596898   -0.840354    0.045399
      6          1           0        1.975473    1.063741   -0.239952
      7          1           0        2.161546   -0.018244    1.150555
      8          1           0        2.766058   -0.510680   -0.449733
      9          1           0        0.680466   -1.571313   -0.091239
     10          1           0       -0.435356   -0.005685    1.434608
     11          1           0       -1.455522    1.769674    0.289234
     12          1           0       -0.667036    1.401661   -1.107406
     13          1           0       -1.594324   -0.968050   -0.912436
 ---------------------------------------------------------------------

 SCF Done:  E(RHF) =  -264.269649414     A.U. after    8 cycles

 The electronic state is 1-A.
 Alpha  occ. eigenvalues --  -20.55733 -15.54945 -15.54444 -11.33471 -11.24309
 Alpha  occ. eigenvalues --   -1.38085  -1.21652  -1.15078  -0.92469  -0.84186
 Alpha  occ. eigenvalues --   -0.73073  -0.66978  -0.63159  -0.62874  -0.59538
 Alpha  occ. eigenvalues --   -0.56331  -0.53375  -0.51562  -0.48067  -0.41613
 Alpha  occ. eigenvalues --   -0.38827
 Alpha virt. eigenvalues --    0.04155   0.04703   0.04911   0.05182   0.07078
 Alpha virt. eigenvalues --    0.07553   0.07984   0.09846   0.10091   0.12386
 Alpha virt. eigenvalues --    0.12823   0.13929   0.14117   0.15798   0.15993

 Mulliken charges:
               1
     1  C   -0.434183
     2  N   -0.413563
     3  C    0.206063
     4  N   -0.685652
     5  O   -0.576957
     6  H    0.197075
     7  H    0.139598
     8  H    0.171250
     9  H    0.294215
    10  H    0.153422
    11  H    0.298623
    12  H    0.286864
    13  H    0.363246
 Sum of Mulliken charges =  -0.00000

 Dipole moment (field-independent basis, Debye):
    X=              0.4261    Y=             -0.0220    Z=             -0.5490  Tot=              0.6953
 Quadrupole moment (field-independent basis, Debye-Ang):
   XX=            -32.1379   YY=            -32.0686   ZZ=            -30.2526
   XY=             -4.0616   XZ=              2.7350   YZ=              0.0032

 Normal termination of Gaussian 09 at Fri Aug 26 11:23:59 2022.
