 Gaussian 09, Revision E.01,
 Gaussian 09:  ES64L-G09RevE.01 30-Nov-2015

 -----
 #P G4
 -----

 ---------
 Frag_1034
 ---------
 Symbolic Z-matrix:
 Charge =  0 Multiplicity = 1

 SCF Done:  E(RB3LYP) =  -227.310051135     A.U. after   16 cycles
 SCF Done:  E(RB3LYP) =  -227.329224350     A.U. after   14 cycles
 SCF Done:  E(RB3LYP) =  -227.331780398     A.U. after   13 cycles
 SCF Done:  E(RB3LYP) =  -227.331829361     A.U. after   12 cycles
 SCF Done:  E(RB3LYP) =  -227.332082190     A.U. after   11 cycles
 SCF Done:  E(RB3LYP) =  -227.332094476     A.U. after    9 cycles
 SCF Done:  E(RB3LYP) =  -227.332096845     A.U. after    8 cycles
 SCF Done:  E(RB3LYP) =  -227.332097381     A.U. after    7 cycles
 SCF Done:  E(RB3LYP) =  -227.332097474     A.U. after    7 cycles
 Optimization completed.
    -- Stationary point found.
 Normal termination of Gaussian 09 at Fri Aug 19 22:57:42 2022.

 ----------------------------------------------------------
 #P Geom=AllCheck Guess=TCheck SCRF=Check B3LYP/GTBas3 Freq
 ----------------------------------------------------------

 Structure from the checkpoint file:  "G4.Frag_1034.chk"
 ---------
 Frag_1034
 ---------
 Charge =  0 Multiplicity = 1

 SCF Done:  E(RB3LYP) =  -227.332097474     A.U. after    1 cycles

  Exact polarizability:  70.547  11.199  57.672   0.007   0.652  24.410
 Approx polarizability: 113.189  38.706 117.684   0.983   0.813  37.352

                      1                      2                      3
                      A                      A                      A
 Frequencies --    126.5054               323.8011               434.6926
 Red. masses --      2.1030                 2.5534                 1.3434
 Frc consts  --      0.0198                 0.1577                 0.1496
 IR Inten    --      0.6337                 5.7611                 2.4709

                      4                      5                      6
                      A                      A                      A
 Frequencies --    480.9527               527.8113               603.9566
 Red. masses --      1.6241                 2.6650                 2.4363
 Frc consts  --      0.2213                 0.4374                 0.5236
 IR Inten    --      6.0933                 5.6783                 4.3681

                      7                      8                      9
                      A                      A                      A
 Frequencies --    659.6724               751.7080               781.7653
 Red. masses --      1.1965                 1.3097                 2.1914
 Frc consts  --      0.3068                 0.4360                 0.7891
 IR Inten    --    127.1251                12.7925                 2.2612

                     10                     11                     12
                      A                      A                      A
 Frequencies --    829.8648               948.0427               992.0883
 Red. masses --      2.7101                 1.3846                 1.0731
 Frc consts  --      1.0997                 0.7332                 0.6223
 IR Inten    --      2.1218                23.5535                26.2606

                     13                     14                     15
                      A                      A                      A
 Frequencies --   1073.7673              1096.7560              1294.2079
 Red. masses --      1.6623                 1.9711                 1.8850
 Frc consts  --      1.1292                 1.3970                 1.8603
 IR Inten    --      9.0998                43.0285                27.1095

                     16                     17                     18
                      A                      A                      A
 Frequencies --   1318.2850              1411.4450              1426.6171
 Red. masses --      1.2581                 2.0749                 1.1896
 Frc consts  --      1.2882                 2.4355                 1.4265
 IR Inten    --     22.3258                96.1985                50.0745

                     19                     20                     21
                      A                      A                      A
 Frequencies --   1481.9805              1634.6354              1717.5603
 Red. masses --      1.1881                 3.0620                 4.6001
 Frc consts  --      1.5374                 4.8205                 7.9955
 IR Inten    --      3.8246                55.2000                12.4152

                     22                     23                     24
                      A                      A                      A
 Frequencies --   3175.5641              3207.9008              3222.0635
 Red. masses --      1.0596                 1.0536                 1.0920
 Frc consts  --      6.2955                 6.3880                 6.6793
 IR Inten    --      0.1219                 3.8467                 2.3519

                     25                     26                     27
                      A                      A                      A
 Frequencies --   3264.9989              3338.3184              3478.3363
 Red. masses --      1.1152                 1.1249                 1.0733
 Frc consts  --      7.0041                 7.3864                 7.6510
 IR Inten    --      1.1186                 0.1279                 0.6177

 - Thermochemistry -
 -------------------
 Temperature   298.150 Kelvin.  Pressure   1.00000 Atm.
 Atom     1 has atomic number  6 and mass  12.00000

 Molecular mass:    70.05310 amu.
 Principal axes and moments of inertia in atomic units:
                           1         2         3
     Eigenvalues --   174.85084 399.33339 565.16561
           X            0.99906   0.04323  -0.00135
           Y           -0.04322   0.99905   0.00549
           Z            0.00159  -0.00543   0.99998
 This molecule is an asymmetric top.
 Rotational symmetry number  1.
 Rotational temperatures (Kelvin)      0.49536     0.21690     0.15325
 Rotational constants (GHZ):          10.32160     4.51938     3.19330
 Zero-point vibrational energy     236880.3 (Joules/Mol)
                                   56.61576 (Kcal/Mol)
 Warning -- explicit consideration of   6 degrees of freedom as
           vibrations may cause significant error
 Vibrational temperatures:    182.01   465.88   625.42   691.98   759.40
          (Kelvin)            868.96   949.12  1081.54  1124.78  1193.99
                             1364.02  1427.39  1544.91  1577.99  1862.07
                             1896.72  2030.75  2052.58  2132.24  2351.87
                             2471.18  4568.92  4615.45  4635.82  4697.60
                             4803.09  5004.54

 Zero-point correction=                           0.090223 (Hartree/Particle)
 Thermal correction to Energy=                    0.095569
 Thermal correction to Enthalpy=                  0.096513
 Thermal correction to Gibbs Free Energy=         0.062216
 Sum of electronic and zero-point Energies=           -227.241875
 Sum of electronic and thermal Energies=              -227.236529
 Sum of electronic and thermal Enthalpies=            -227.235585
 Sum of electronic and thermal Free Energies=         -227.269882

                     E (Thermal)             CV                S
                      KCal/Mol        Cal/Mol-Kelvin    Cal/Mol-Kelvin
 Total                   59.970             19.400             72.184
 Electronic               0.000              0.000              0.000
 Translational            0.889              2.981             38.657
 Rotational               0.889              2.981             25.182
 Vibrational             58.193             13.438              8.345
 Vibration     1          0.611              1.927              2.999
 Vibration     2          0.708              1.628              1.291
 Vibration     3          0.795              1.395              0.843
 Vibration     4          0.837              1.292              0.708
 Vibration     5          0.883              1.188              0.592
 Vibration     6          0.962              1.023              0.443

 Optimization completed.
    -- Stationary point found.
 Normal termination of Gaussian 09 at Fri Aug 19 22:58:59 2022.

 -----------------------------------------------------------------
 #P Geom=AllCheck Guess=TCheck SCRF=Check CCSD(T,E4T,FrzG4)/GTBas1
 -----------------------------------------------------------------

 Structure from the checkpoint file:  "G4.Frag_1034.chk"
 ---------
 Frag_1034
 ---------
 Charge =  0 Multiplicity = 1

 SCF Done:  E(RHF) =  -225.839727489     A.U. after   14 cycles
 E2 =    -0.7271590308D+00 EUMP2 =    -0.22656688651955D+03
 CCSD(T)
 CCSD(T)= -0.22663491238D+03
 4\MP4SDQ=-226.6022542\CCSD=-226.6022636\CCSD(T)=-226.6349124\RMSD=6.62
 Normal termination of Gaussian 09 at Fri Aug 19 23:00:43 2022.

 ---------------------------------------------------------
 #P Geom=AllCheck Guess=TCheck SCRF=Check MP4=FrzG4/GTBas2
 ---------------------------------------------------------

 Structure from the checkpoint file:  "G4.Frag_1034.chk"
 ---------
 Frag_1034
 ---------
 Charge =  0 Multiplicity = 1

 SCF Done:  E(RHF) =  -225.850821478     A.U. after   14 cycles
 E2 =    -0.7361993165D+00 EUMP2 =    -0.22658702079407D+03
 Normal termination of Gaussian 09 at Fri Aug 19 23:02:12 2022.

 ---------------------------------------------------------
 #P Geom=AllCheck Guess=TCheck SCRF=Check MP4=FrzG4/GTBas3
 ---------------------------------------------------------

 Structure from the checkpoint file:  "G4.Frag_1034.chk"
 ---------
 Frag_1034
 ---------
 Charge =  0 Multiplicity = 1

 SCF Done:  E(RHF) =  -225.871048312     A.U. after   13 cycles
 E2 =    -0.8739369752D+00 EUMP2 =    -0.22674498528680D+03
 Normal termination of Gaussian 09 at Fri Aug 19 23:35:53 2022.

 -----------------------------------------------------------
 #P Geom=AllCheck Guess=TCheck SCRF=Check MP2=Full/GTLargeXP
 -----------------------------------------------------------

 Structure from the checkpoint file:  "G4.Frag_1034.chk"
 ---------
 Frag_1034
 ---------
 Charge =  0 Multiplicity = 1

 SCF Done:  E(RHF) =  -225.930282683     A.U. after   14 cycles
 E2 =    -0.1142965351D+01 EUMP2 =    -0.22707324803385D+03
 Normal termination of Gaussian 09 at Fri Aug 19 23:38:10 2022.
 SCF Done:  E(RHF) =  -225.947960788     A.U. after   10 cycles
 Normal termination of Gaussian 09 at Fri Aug 19 23:41:39 2022.

                         Standard orientation:
 ---------------------------------------------------------------------
 Center     Atomic      Atomic             Coordinates (Angstroms)
 Number     Number       Type             X           Y           Z
 ---------------------------------------------------------------------
      1          6           0        1.901684   -0.064176    0.127128
      2          6           0        0.734125   -0.624046   -0.149759
      3          7           0       -0.534310    0.067269   -0.041605
      4          6           0       -1.587720   -0.720656    0.097557
      5          7           0       -0.613258    1.375846   -0.034646
      6          1           0        1.989090    0.955681    0.480683
      7          1           0        2.813373   -0.638265    0.020082
      8          1           0        0.633632   -1.652343   -0.472110
      9          1           0       -2.553213   -0.251340    0.198079
     10          1           0       -1.436688   -1.782328    0.190838
     11          1           0        0.298251    1.720061   -0.333372
 ---------------------------------------------------------------------

 SCF Done:  E(RHF) =  -225.951555773     A.U. after    8 cycles

 The electronic state is 1-A.
 Alpha  occ. eigenvalues --  -15.71341 -15.52781 -11.30048 -11.26726 -11.26041
 Alpha  occ. eigenvalues --   -1.37242  -1.09162  -1.06448  -0.88876  -0.78247
 Alpha  occ. eigenvalues --   -0.72577  -0.68432  -0.62944  -0.60710  -0.57853
 Alpha  occ. eigenvalues --   -0.56549  -0.43089  -0.40237  -0.28682
 Alpha virt. eigenvalues --    0.03208   0.03777   0.04340   0.05058   0.06539
 Alpha virt. eigenvalues --    0.06775   0.07239   0.08111   0.09148   0.10049
 Alpha virt. eigenvalues --    0.10340   0.11180   0.13180   0.14464   0.14911

 Mulliken charges:
               1
     1  C   -0.380423
     2  C   -0.169241
     3  N    0.311708
     4  C   -0.394702
     5  N   -0.737999
     6  H    0.216651
     7  H    0.217601
     8  H    0.216965
     9  H    0.234624
    10  H    0.204861
    11  H    0.279956
 Sum of Mulliken charges =  -0.00000

 Dipole moment (field-independent basis, Debye):
    X=              2.2096    Y=             -3.1210    Z=             -0.1782  Tot=              3.8281
 Quadrupole moment (field-independent basis, Debye-Ang):
   XX=            -26.9318   YY=            -32.2113   ZZ=            -34.5365
   XY=              4.4095   XZ=             -0.3906   YZ=              0.1466

 CCSD(T)/G3Bas1=-226.6349124\MP2/GTBas2=-226.5870208\MP4/GTBas2=-226.65
 Normal termination of Gaussian 09 at Sat Aug 20 01:07:34 2022.
