 Gaussian 09, Revision E.01,
 Gaussian 09:  ES64L-G09RevE.01 30-Nov-2015

 -----
 #P G4
 -----

 ---------
 Frag_1156
 ---------
 Symbolic Z-matrix:
 Charge =  0 Multiplicity = 1

 SCF Done:  E(RB3LYP) =  -324.939731126     A.U. after   12 cycles
 SCF Done:  E(RB3LYP) =  -324.945489146     A.U. after   11 cycles
 SCF Done:  E(RB3LYP) =  -324.946128965     A.U. after   10 cycles
 SCF Done:  E(RB3LYP) =  -324.946545653     A.U. after   11 cycles
 SCF Done:  E(RB3LYP) =  -324.946662938     A.U. after   11 cycles
 SCF Done:  E(RB3LYP) =  -324.946701897     A.U. after    9 cycles
 SCF Done:  E(RB3LYP) =  -324.946719924     A.U. after   10 cycles
 SCF Done:  E(RB3LYP) =  -324.946721975     A.U. after    8 cycles
 SCF Done:  E(RB3LYP) =  -324.946722506     A.U. after    7 cycles
 SCF Done:  E(RB3LYP) =  -324.946722689     A.U. after    7 cycles
 SCF Done:  E(RB3LYP) =  -324.946722820     A.U. after    6 cycles
 SCF Done:  E(RB3LYP) =  -324.946722919     A.U. after    6 cycles
 Optimization completed.
    -- Stationary point found.
 Normal termination of Gaussian 09 at Fri Aug 19 23:13:50 2022.

 ----------------------------------------------------------
 #P Geom=AllCheck Guess=TCheck SCRF=Check B3LYP/GTBas3 Freq
 ----------------------------------------------------------

 Structure from the checkpoint file:  "G4.Frag_1156.chk"
 ---------
 Frag_1156
 ---------
 Charge =  0 Multiplicity = 1

 SCF Done:  E(RB3LYP) =  -324.946722919     A.U. after    1 cycles

  Exact polarizability:  51.940   1.332  49.637   0.031   1.706  46.295
 Approx polarizability:  68.116   1.883  68.773   0.701   0.279  67.117

                      1                      2                      3
                      A                      A                      A
 Frequencies --    105.2302               204.9561               228.2401
 Red. masses --      3.5066                 1.6130                 1.0483
 Frc consts  --      0.0229                 0.0399                 0.0322
 IR Inten    --      0.6872                 1.8153                 4.8300

                      4                      5                      6
                      A                      A                      A
 Frequencies --    268.7905               278.2331               308.9233
 Red. masses --      1.6095                 1.0954                 3.1863
 Frc consts  --      0.0685                 0.0500                 0.1792
 IR Inten    --     12.0028                68.4353                 6.7765

                      7                      8                      9
                      A                      A                      A
 Frequencies --    382.1256               391.9253               504.3774
 Red. masses --      1.6756                 1.5050                 2.5716
 Frc consts  --      0.1442                 0.1362                 0.3854
 IR Inten    --     41.1349                64.2647                29.5255

                     10                     11                     12
                      A                      A                      A
 Frequencies --    547.4266               657.7534               852.0000
 Red. masses --      5.0138                 3.8139                 3.6339
 Frc consts  --      0.8853                 0.9722                 1.5542
 IR Inten    --      2.9570                19.4561                10.2392

                     13                     14                     15
                      A                      A                      A
 Frequencies --    999.9775              1022.8199              1069.8169
 Red. masses --      3.5169                 2.4828                 1.5894
 Frc consts  --      2.0720                 1.5304                 1.0718
 IR Inten    --    123.4941                80.3904                35.3743

                     16                     17                     18
                      A                      A                      A
 Frequencies --   1087.6914              1117.9112              1189.3114
 Red. masses --      3.5387                 1.2741                 1.4966
 Frc consts  --      2.4666                 0.9381                 1.2472
 IR Inten    --    159.8465                 2.3450                 7.6251

                     19                     20                     21
                      A                      A                      A
 Frequencies --   1198.6013              1258.6281              1311.5815
 Red. masses --      1.7883                 1.5822                 2.3170
 Frc consts  --      1.5137                 1.4767                 2.3483
 IR Inten    --     56.8909                37.7508                38.4852

                     22                     23                     24
                      A                      A                      A
 Frequencies --   1350.6618              1409.6254              1434.0907
 Red. masses --      1.4521                 1.4096                 1.1835
 Frc consts  --      1.5607                 1.6503                 1.4341
 IR Inten    --     75.7197                61.0787                19.5476

                     25                     26                     27
                      A                      A                      A
 Frequencies --   1441.2639              1478.1507              1480.9702
 Red. masses --      1.1736                 1.1908                 1.0470
 Frc consts  --      1.4364                 1.5329                 1.3530
 IR Inten    --     33.0385                20.6357                 8.7814

                     28                     29                     30
                      A                      A                      A
 Frequencies --   1501.3064              1507.0339              1522.3471
 Red. masses --      1.0722                 1.0486                 1.0581
 Frc consts  --      1.4239                 1.4031                 1.4448
 IR Inten    --      7.1381                 3.8405                15.4696

                     31                     32                     33
                      A                      A                      A
 Frequencies --   2967.0981              2973.0423              3012.2659
 Red. masses --      1.0536                 1.0546                 1.0855
 Frc consts  --      5.4652                 5.4923                 5.8034
 IR Inten    --     36.8052                78.5039                54.1818

                     34                     35                     36
                      A                      A                      A
 Frequencies --   3065.6810              3073.6068              3105.1121
 Red. masses --      1.0793                 1.0779                 1.1026
 Frc consts  --      5.9764                 5.9995                 6.2637
 IR Inten    --     32.4532                28.3137                27.8059

                     37                     38                     39
                      A                      A                      A
 Frequencies --   3120.3247              3799.9984              3811.1040
 Red. masses --      1.1014                 1.0652                 1.0645
 Frc consts  --      6.3180                 9.0624                 9.1099
 IR Inten    --     17.8714                26.5565                31.4341

 - Thermochemistry -
 -------------------
 Temperature   298.150 Kelvin.  Pressure   1.00000 Atm.
 Atom     1 has atomic number  6 and mass  12.00000

 Molecular mass:    91.06333 amu.
 Principal axes and moments of inertia in atomic units:
                           1         2         3
     Eigenvalues --   365.67739 634.75436 711.36171
           X            0.99979   0.02061  -0.00194
           Y           -0.01997   0.98500   0.17137
           Z            0.00544  -0.17130   0.98520
 This molecule is an asymmetric top.
 Rotational symmetry number  1.
 Rotational temperatures (Kelvin)      0.23686     0.13645     0.12176
 Rotational constants (GHZ):           4.93534     2.84321     2.53702
 Zero-point vibrational energy     341175.0 (Joules/Mol)
                                   81.54278 (Kcal/Mol)
 Warning -- explicit consideration of  10 degrees of freedom as
           vibrations may cause significant error
 Vibrational temperatures:    151.40   294.89   328.39   386.73   400.31
          (Kelvin)            444.47   549.79   563.89   725.69   787.62
                              946.36  1225.84  1438.74  1471.61  1539.23
                             1564.94  1608.42  1711.15  1724.52  1810.88
                             1887.07  1943.30  2028.13  2063.33  2073.65
                             2126.73  2130.78  2160.04  2168.28  2190.32
                             4268.99  4277.54  4333.97  4410.83  4422.23
                             4467.56  4489.45  5467.34  5483.32

 Zero-point correction=                           0.129947 (Hartree/Particle)
 Thermal correction to Energy=                    0.137405
 Thermal correction to Enthalpy=                  0.138349
 Thermal correction to Gibbs Free Energy=         0.099250
 Sum of electronic and zero-point Energies=           -324.816776
 Sum of electronic and thermal Energies=              -324.809318
 Sum of electronic and thermal Enthalpies=            -324.808374
 Sum of electronic and thermal Free Energies=         -324.847473

                     E (Thermal)             CV                S
                      KCal/Mol        Cal/Mol-Kelvin    Cal/Mol-Kelvin
 Total                   86.223             26.616             82.291
 Electronic               0.000              0.000              0.000
 Translational            0.889              2.981             39.439
 Rotational               0.889              2.981             26.604
 Vibrational             84.445             20.654             16.248
 Vibration     1          0.605              1.945              3.355
 Vibration     2          0.640              1.833              2.088
 Vibration     3          0.651              1.798              1.893
 Vibration     4          0.673              1.731              1.604
 Vibration     5          0.679              1.714              1.545
 Vibration     6          0.698              1.657              1.368
 Vibration     7          0.752              1.508              1.031
 Vibration     8          0.759              1.487              0.993
 Vibration     9          0.860              1.240              0.647
 Vibration    10          0.903              1.145              0.550

 Optimization completed.
    -- Stationary point found.
 Normal termination of Gaussian 09 at Fri Aug 19 23:16:39 2022.

 -----------------------------------------------------------------
 #P Geom=AllCheck Guess=TCheck SCRF=Check CCSD(T,E4T,FrzG4)/GTBas1
 -----------------------------------------------------------------

 Structure from the checkpoint file:  "G4.Frag_1156.chk"
 ---------
 Frag_1156
 ---------
 Charge =  0 Multiplicity = 1

 SCF Done:  E(RHF) =  -322.990758038     A.U. after   11 cycles
 E2 =    -0.9155087822D+00 EUMP2 =    -0.32390626681972D+03
 CCSD(T)
 CCSD(T)= -0.32398209053D+03
 3.9565307\CCSD(T)=-323.9820905\RMSD=9.458e-09\PG=C01 [X(C3H9N1O2)]\\@
 Normal termination of Gaussian 09 at Fri Aug 19 23:22:43 2022.

 ---------------------------------------------------------
 #P Geom=AllCheck Guess=TCheck SCRF=Check MP4=FrzG4/GTBas2
 ---------------------------------------------------------

 Structure from the checkpoint file:  "G4.Frag_1156.chk"
 ---------
 Frag_1156
 ---------
 Charge =  0 Multiplicity = 1

 SCF Done:  E(RHF) =  -323.000817034     A.U. after   11 cycles
 E2 =    -0.9317857355D+00 EUMP2 =    -0.32393260276978D+03
 Normal termination of Gaussian 09 at Fri Aug 19 23:31:45 2022.

 ---------------------------------------------------------
 #P Geom=AllCheck Guess=TCheck SCRF=Check MP4=FrzG4/GTBas3
 ---------------------------------------------------------

 Structure from the checkpoint file:  "G4.Frag_1156.chk"
 ---------
 Frag_1156
 ---------
 Charge =  0 Multiplicity = 1

 SCF Done:  E(RHF) =  -323.035082979     A.U. after   11 cycles
 E2 =    -0.1139920977D+01 EUMP2 =    -0.32417500395663D+03
 Normal termination of Gaussian 09 at Sat Aug 20 02:50:16 2022.

 -----------------------------------------------------------
 #P Geom=AllCheck Guess=TCheck SCRF=Check MP2=Full/GTLargeXP
 -----------------------------------------------------------

 Structure from the checkpoint file:  "G4.Frag_1156.chk"
 ---------
 Frag_1156
 ---------
 Charge =  0 Multiplicity = 1

 SCF Done:  E(RHF) =  -323.122476139     A.U. after   11 cycles
 E2 =    -0.1486475578D+01 EUMP2 =    -0.32460895171744D+03
 Normal termination of Gaussian 09 at Sat Aug 20 03:00:01 2022.
 SCF Done:  E(RHF) =  -323.148354343     A.U. after    8 cycles
 Normal termination of Gaussian 09 at Sat Aug 20 03:06:00 2022.

                         Standard orientation:
 ---------------------------------------------------------------------
 Center     Atomic      Atomic             Coordinates (Angstroms)
 Number     Number       Type             X           Y           Z
 ---------------------------------------------------------------------
      1          6           0       -0.858458    1.287541    0.553488
      2          7           0       -0.645265    0.188904   -0.384055
      3          6           0       -1.725194   -0.787876   -0.329791
      4          6           0        0.666308   -0.419336   -0.279862
      5          8           0        1.650827    0.502252   -0.679200
      6          8           0        1.031004   -0.873528    0.996042
      7          1           0       -0.972428    0.946706    1.596094
      8          1           0       -1.765708    1.831499    0.274123
      9          1           0       -0.014845    1.980216    0.503929
     10          1           0       -2.672228   -0.295836   -0.572619
     11          1           0       -1.827573   -1.263189    0.659985
     12          1           0       -1.553505   -1.574616   -1.070910
     13          1           0        0.657431   -1.313400   -0.919273
     14          1           0        1.284849    0.978132   -1.433643
     15          1           0        1.430275   -0.123597    1.452955
 ---------------------------------------------------------------------

 SCF Done:  E(RHF) =  -323.154160540     A.U. after    8 cycles

 The electronic state is 1-A.
 Alpha  occ. eigenvalues --  -20.56757 -20.56059 -15.55642 -11.36154 -11.24929
 Alpha  occ. eigenvalues --  -11.24906  -1.42561  -1.33619  -1.22199  -0.96158
 Alpha  occ. eigenvalues --   -0.93170  -0.82203  -0.73479  -0.69616  -0.67883
 Alpha  occ. eigenvalues --   -0.62829  -0.60513  -0.57405  -0.54753  -0.54578
 Alpha  occ. eigenvalues --   -0.52865  -0.51959  -0.50089  -0.45819  -0.37825
 Alpha virt. eigenvalues --    0.03635   0.04022   0.04670   0.05033   0.06494
 Alpha virt. eigenvalues --    0.06915   0.07420   0.07547   0.08511   0.09812
 Alpha virt. eigenvalues --    0.13055   0.13138   0.13354   0.14205   0.14809

 Mulliken charges:
               1
     1  C   -0.538530
     2  N   -0.010893
     3  C   -0.521377
     4  C    0.326924
     5  O   -0.601980
     6  O   -0.609411
     7  H    0.157523
     8  H    0.175688
     9  H    0.190875
    10  H    0.169156
    11  H    0.169128
    12  H    0.163711
    13  H    0.161471
    14  H    0.388416
    15  H    0.379300
 Sum of Mulliken charges =  -0.00000

 Dipole moment (field-independent basis, Debye):
    X=             -1.5555    Y=              1.2013    Z=             -0.4888  Tot=              2.0252
 Quadrupole moment (field-independent basis, Debye-Ang):
   XX=            -40.0744   YY=            -37.5169   ZZ=            -35.7849
   XY=              1.6977   XZ=              0.0315   YZ=              2.2869

 Normal termination of Gaussian 09 at Sat Aug 20 06:02:14 2022.
