 Gaussian 09, Revision E.01,
 Gaussian 09:  ES64L-G09RevE.01 30-Nov-2015

 -----
 #P G4
 -----

 --------
 Frag_620
 --------
 Symbolic Z-matrix:
 Charge =  0 Multiplicity = 1

 SCF Done:  E(RB3LYP) =  -340.979337523     A.U. after   12 cycles
 SCF Done:  E(RB3LYP) =  -340.986604001     A.U. after   11 cycles
 SCF Done:  E(RB3LYP) =  -340.988162801     A.U. after   10 cycles
 SCF Done:  E(RB3LYP) =  -340.990624326     A.U. after   11 cycles
 SCF Done:  E(RB3LYP) =  -340.991159407     A.U. after   10 cycles
 SCF Done:  E(RB3LYP) =  -340.991848560     A.U. after   10 cycles
 SCF Done:  E(RB3LYP) =  -340.992943402     A.U. after   11 cycles
 SCF Done:  E(RB3LYP) =  -340.994063316     A.U. after   10 cycles
 SCF Done:  E(RB3LYP) =  -340.995683022     A.U. after   11 cycles
 SCF Done:  E(RB3LYP) =  -340.995926086     A.U. after   10 cycles
 SCF Done:  E(RB3LYP) =  -340.996087995     A.U. after    7 cycles
 SCF Done:  E(RB3LYP) =  -340.996087950     A.U. after    7 cycles
 SCF Done:  E(RB3LYP) =  -340.996087941     A.U. after    6 cycles
 Optimization completed.
    -- Stationary point found.
 Normal termination of Gaussian 09 at Sun Aug 21 08:34:31 2022.

 ----------------------------------------------------------
 #P Geom=AllCheck Guess=TCheck SCRF=Check B3LYP/GTBas3 Freq
 ----------------------------------------------------------

 Structure from the checkpoint file:  "G4.Frag_620.chk"
 --------
 Frag_620
 --------
 Charge =  0 Multiplicity = 1

 SCF Done:  E(RB3LYP) =  -340.996087941     A.U. after    1 cycles

  Exact polarizability:  45.784   1.682  45.053  -1.444  -0.050  45.202
 Approx polarizability:  61.996   3.021  62.308  -2.103   0.840  66.319

                      1                      2                      3
                      A                      A                      A
 Frequencies --    148.6151               208.0181               223.9024
 Red. masses --      3.5540                 1.1053                 1.5640
 Frc consts  --      0.0462                 0.0282                 0.0462
 IR Inten    --      6.0564                17.9387                33.8975

                      4                      5                      6
                      A                      A                      A
 Frequencies --    250.2659               370.1875               376.2637
 Red. masses --      1.8177                 1.7186                 2.4912
 Frc consts  --      0.0671                 0.1388                 0.2078
 IR Inten    --     16.0132                36.6743                12.6280

                      7                      8                      9
                      A                      A                      A
 Frequencies --    430.3565               473.9021               507.6428
 Red. masses --      1.7848                 2.4919                 1.5418
 Frc consts  --      0.1948                 0.3297                 0.2341
 IR Inten    --     29.2294                32.3937                71.2142

                     10                     11                     12
                      A                      A                      A
 Frequencies --    557.7930               615.2984               797.0337
 Red. masses --      1.8472                 4.0714                 2.5151
 Frc consts  --      0.3386                 0.9082                 0.9414
 IR Inten    --     37.8686                 7.0704               123.5228

                     13                     14                     15
                      A                      A                      A
 Frequencies --    821.2519               882.7308               949.6455
 Red. masses --      1.9832                 1.4651                 1.6292
 Frc consts  --      0.7881                 0.6726                 0.8656
 IR Inten    --     53.2500               162.3738                55.2524

                     16                     17                     18
                      A                      A                      A
 Frequencies --   1008.3152              1065.6214              1091.0249
 Red. masses --      2.3098                 1.9526                 2.8236
 Frc consts  --      1.3836                 1.3064                 1.9803
 IR Inten    --     80.2000                40.0537                46.8614

                     19                     20                     21
                      A                      A                      A
 Frequencies --   1121.8604              1200.5947              1306.6057
 Red. masses --      2.0709                 1.1416                 1.6216
 Frc consts  --      1.5357                 0.9696                 1.6311
 IR Inten    --    101.2811                24.3644                23.5920

                     22                     23                     24
                      A                      A                      A
 Frequencies --   1336.7652              1380.9357              1386.8010
 Red. masses --      1.8197                 1.5657                 1.5111
 Frc consts  --      1.9158                 1.7592                 1.7123
 IR Inten    --     26.4660                64.5514                48.5938

                     25                     26                     27
                      A                      A                      A
 Frequencies --   1438.2485              1493.2698              1616.1664
 Red. masses --      1.3231                 1.0894                 1.1103
 Frc consts  --      1.6126                 1.4313                 1.7087
 IR Inten    --     38.5358                 1.6737                66.7824

                     28                     29                     30
                      A                      A                      A
 Frequencies --   1644.3950              2987.8711              3076.4114
 Red. masses --      1.1305                 1.0670                 1.0967
 Frc consts  --      1.8011                 5.6123                 6.1152
 IR Inten    --     32.2730                57.7308                32.4699

                     31                     32                     33
                      A                      A                      A
 Frequencies --   3486.0619              3514.2661              3578.6711
 Red. masses --      1.0505                 1.0490                 1.0906
 Frc consts  --      7.5214                 7.6331                 8.2296
 IR Inten    --      1.1048                 4.0504                 3.0164

                     34                     35                     36
                      A                      A                      A
 Frequencies --   3622.8399              3773.6373              3794.8340
 Red. masses --      1.0939                 1.0649                 1.0649
 Frc consts  --      8.4595                 8.9350                 9.0354
 IR Inten    --     12.6326                34.8076                39.8384

 - Thermochemistry -
 -------------------
 Temperature   298.150 Kelvin.  Pressure   1.00000 Atm.
 Atom     1 has atomic number  7 and mass  14.00307

 Molecular mass:    92.05858 amu.
 Principal axes and moments of inertia in atomic units:
                           1         2         3
     Eigenvalues --   363.16096 649.56226 657.72276
           X            0.99973   0.00196  -0.02332
           Y           -0.00960   0.94323  -0.33200
           Z            0.02135   0.33214   0.94299
 This molecule is an asymmetric top.
 Rotational symmetry number  1.
 Rotational temperatures (Kelvin)      0.23850     0.13334     0.13169
 Rotational constants (GHZ):           4.96954     2.77840     2.74392
 Zero-point vibrational energy     314247.6 (Joules/Mol)
                                   75.10699 (Kcal/Mol)
 Warning -- explicit consideration of  11 degrees of freedom as
           vibrations may cause significant error
 Vibrational temperatures:    213.82   299.29   322.15   360.08   532.62
          (Kelvin)            541.36   619.19   681.84   730.38   802.54
                              885.28  1146.75  1181.60  1270.05  1366.33
                             1450.74  1533.19  1569.74  1614.10  1727.39
                             1879.91  1923.30  1986.86  1995.29  2069.32
                             2148.48  2325.30  2365.91  4298.87  4426.26
                             5015.66  5056.24  5148.90  5212.45  5429.42
                             5459.91

 Zero-point correction=                           0.119691 (Hartree/Particle)
 Thermal correction to Energy=                    0.126918
 Thermal correction to Enthalpy=                  0.127862
 Thermal correction to Gibbs Free Energy=         0.089448
 Sum of electronic and zero-point Energies=           -340.876397
 Sum of electronic and thermal Energies=              -340.869170
 Sum of electronic and thermal Enthalpies=            -340.868226
 Sum of electronic and thermal Free Energies=         -340.906640

                     E (Thermal)             CV                S
                      KCal/Mol        Cal/Mol-Kelvin    Cal/Mol-Kelvin
 Total                   79.642             26.811             80.849
 Electronic               0.000              0.000              0.000
 Translational            0.889              2.981             39.471
 Rotational               0.889              2.981             26.542
 Vibrational             77.865             20.850             14.835
 Vibration     1          0.618              1.904              2.690
 Vibration     2          0.641              1.828              2.061
 Vibration     3          0.649              1.805              1.927
 Vibration     4          0.663              1.762              1.729
 Vibration     5          0.742              1.533              1.079
 Vibration     6          0.747              1.521              1.054
 Vibration     7          0.792              1.404              0.857
 Vibration     8          0.831              1.308              0.727
 Vibration     9          0.863              1.233              0.639
 Vibration    10          0.913              1.123              0.528
 Vibration    11          0.975              1.000              0.424

 Optimization completed.
    -- Stationary point found.
 Normal termination of Gaussian 09 at Sun Aug 21 08:36:58 2022.

 -----------------------------------------------------------------
 #P Geom=AllCheck Guess=TCheck SCRF=Check CCSD(T,E4T,FrzG4)/GTBas1
 -----------------------------------------------------------------

 Structure from the checkpoint file:  "G4.Frag_620.chk"
 --------
 Frag_620
 --------
 Charge =  0 Multiplicity = 1

 SCF Done:  E(RHF) =  -338.990632130     A.U. after   12 cycles
 E2 =    -0.9504288027D+00 EUMP2 =    -0.33994106093282D+03
 CCSD(T)
 CCSD(T)= -0.34001108580D+03
 Q=-339.9857902\CCSD=-339.9860204\CCSD(T)=-340.0110858\RMSD=3.181e-09\P
 Normal termination of Gaussian 09 at Sun Aug 21 08:42:58 2022.

 ---------------------------------------------------------
 #P Geom=AllCheck Guess=TCheck SCRF=Check MP4=FrzG4/GTBas2
 ---------------------------------------------------------

 Structure from the checkpoint file:  "G4.Frag_620.chk"
 --------
 Frag_620
 --------
 Charge =  0 Multiplicity = 1

 SCF Done:  E(RHF) =  -339.005725975     A.U. after   12 cycles
 E2 =    -0.9697093911D+00 EUMP2 =    -0.33997543536571D+03
 Normal termination of Gaussian 09 at Sun Aug 21 08:51:26 2022.

 ---------------------------------------------------------
 #P Geom=AllCheck Guess=TCheck SCRF=Check MP4=FrzG4/GTBas3
 ---------------------------------------------------------

 Structure from the checkpoint file:  "G4.Frag_620.chk"
 --------
 Frag_620
 --------
 Charge =  0 Multiplicity = 1

 SCF Done:  E(RHF) =  -339.043135748     A.U. after   11 cycles
 E2 =    -0.1175396393D+01 EUMP2 =    -0.34021853214066D+03
 Normal termination of Gaussian 09 at Sun Aug 21 10:33:44 2022.

 -----------------------------------------------------------
 #P Geom=AllCheck Guess=TCheck SCRF=Check MP2=Full/GTLargeXP
 -----------------------------------------------------------

 Structure from the checkpoint file:  "G4.Frag_620.chk"
 --------
 Frag_620
 --------
 Charge =  0 Multiplicity = 1

 SCF Done:  E(RHF) =  -339.140879290     A.U. after   11 cycles
 E2 =    -0.1528658166D+01 EUMP2 =    -0.34066953745652D+03
 Normal termination of Gaussian 09 at Sun Aug 21 10:39:31 2022.
 SCF Done:  E(RHF) =  -339.167881976     A.U. after    8 cycles
 Normal termination of Gaussian 09 at Sun Aug 21 10:44:58 2022.

                         Standard orientation:
 ---------------------------------------------------------------------
 Center     Atomic      Atomic             Coordinates (Angstroms)
 Number     Number       Type             X           Y           Z
 ---------------------------------------------------------------------
      1          7           0        1.662135    0.652526   -0.370340
      2          6           0        0.419821   -0.013135    0.007620
      3          7           0        0.465738   -1.383396   -0.464167
      4          8           0        0.320934   -0.012329    1.425332
      5          6           0       -0.850011    0.727909   -0.452111
      6          8           0       -2.013915    0.005464   -0.098814
      7          1           0        1.618281    0.967709   -1.336691
      8          1           0        1.767956    1.478251    0.210472
      9          1           0        1.119302   -1.483617   -1.229948
     10          1           0       -0.460071   -1.689748   -0.745497
     11          1           0        0.810985   -0.793971    1.708123
     12          1           0       -0.847299    1.739180   -0.016725
     13          1           0       -0.849556    0.820972   -1.543366
     14          1           0       -1.929719   -0.156409    0.849985
 ---------------------------------------------------------------------

 SCF Done:  E(RHF) =  -339.173990640     A.U. after    8 cycles

 The electronic state is 1-A.
 Alpha  occ. eigenvalues --  -20.56188 -20.56039 -15.55597 -15.54767 -11.34832
 Alpha  occ. eigenvalues --  -11.28035  -1.39784  -1.35978  -1.21362  -1.14269
 Alpha  occ. eigenvalues --   -0.96185  -0.81999  -0.73506  -0.70073  -0.69126
 Alpha  occ. eigenvalues --   -0.64854  -0.63643  -0.59742  -0.58019  -0.54819
 Alpha  occ. eigenvalues --   -0.52169  -0.48828  -0.47504  -0.43496  -0.39503
 Alpha virt. eigenvalues --    0.03609   0.04904   0.04987   0.05179   0.07140
 Alpha virt. eigenvalues --    0.07454   0.07565   0.09100   0.09447   0.12389
 Alpha virt. eigenvalues --    0.12660   0.13250   0.13730   0.14664   0.15356

 Mulliken charges:
               1
     1  N   -0.751887
     2  C    0.525071
     3  N   -0.756917
     4  O   -0.635818
     5  C   -0.118048
     6  O   -0.593600
     7  H    0.289151
     8  H    0.319239
     9  H    0.305309
    10  H    0.320191
    11  H    0.397715
    12  H    0.151337
    13  H    0.156064
    14  H    0.392193
 Sum of Mulliken charges =  -0.00000

 Dipole moment (field-independent basis, Debye):
    X=              0.8389    Y=              0.8003    Z=             -1.1965  Tot=              1.6661
 Quadrupole moment (field-independent basis, Debye-Ang):
   XX=            -43.6088   YY=            -34.8275   ZZ=            -33.3193
   XY=              1.8275   XZ=             -2.6626   YZ=             -1.1665

 Normal termination of Gaussian 09 at Sun Aug 21 13:29:21 2022.
