 Gaussian 09, Revision E.01,
 Gaussian 09:  ES64L-G09RevE.01 30-Nov-2015

 -----
 #P G4
 -----

 --------
 Frag_497
 --------
 Symbolic Z-matrix:
 Charge =  0 Multiplicity = 1

 SCF Done:  E(RB3LYP) =  -173.188352117     A.U. after   13 cycles
 SCF Done:  E(RB3LYP) =  -173.243055112     A.U. after   12 cycles
 SCF Done:  E(RB3LYP) =  -173.265091559     A.U. after   12 cycles
 SCF Done:  E(RB3LYP) =  -173.272794195     A.U. after   11 cycles
 SCF Done:  E(RB3LYP) =  -173.273229151     A.U. after   10 cycles
 SCF Done:  E(RB3LYP) =  -173.273329112     A.U. after   10 cycles
 SCF Done:  E(RB3LYP) =  -173.274138891     A.U. after   12 cycles
 SCF Done:  E(RB3LYP) =  -173.274526976     A.U. after   12 cycles
 SCF Done:  E(RB3LYP) =  -173.276608738     A.U. after   12 cycles
 SCF Done:  E(RB3LYP) =  -173.277695090     A.U. after   11 cycles
 SCF Done:  E(RB3LYP) =  -173.279820042     A.U. after   10 cycles
 SCF Done:  E(RB3LYP) =  -173.279824475     A.U. after    8 cycles
 SCF Done:  E(RB3LYP) =  -173.279824546     A.U. after    7 cycles
 Optimization completed.
    -- Stationary point found.
 Normal termination of Gaussian 09 at Tue Aug 30 10:47:52 2022.

 ----------------------------------------------------------
 #P Geom=AllCheck Guess=TCheck SCRF=Check B3LYP/GTBas3 Freq
 ----------------------------------------------------------

 Structure from the checkpoint file:  "G4.Frag_497.chk"
 --------
 Frag_497
 --------
 Charge =  0 Multiplicity = 1

 SCF Done:  E(RB3LYP) =  -173.279824546     A.U. after    1 cycles

  Exact polarizability:  57.937   3.097  38.054   0.000  -0.000  30.270
 Approx polarizability:  72.882   9.839  58.657   0.002   0.001  43.385

                      1                      2                      3
                      A                      A                      A
 Frequencies --    175.8229               237.2749               267.2917
 Red. masses --      1.0553                 1.4840                 2.0534
 Frc consts  --      0.0192                 0.0492                 0.0864
 IR Inten    --      0.9878                 6.5966                 1.4897

                      4                      5                      6
                      A                      A                      A
 Frequencies --    313.1090               541.3820               874.3294
 Red. masses --      2.4597                 2.8507                 1.1299
 Frc consts  --      0.1421                 0.4923                 0.5089
 IR Inten    --      6.0702                 1.6526                 3.2284

                      7                      8                      9
                      A                      A                      A
 Frequencies --    885.7905              1058.7902              1095.3104
 Red. masses --      1.8810                 3.9864                 1.5973
 Frc consts  --      0.8696                 2.6330                 1.1291
 IR Inten    --      9.2925                12.8315                 0.1864

                     10                     11                     12
                      A                      A                      A
 Frequencies --   1114.6539              1143.9736              1183.7088
 Red. masses --      1.5484                 1.4200                 1.8150
 Frc consts  --      1.1335                 1.0949                 1.4984
 IR Inten    --      1.2579                 0.0101                 9.5494

                     13                     14                     15
                      A                      A                      A
 Frequencies --   1381.4388              1408.3510              1440.1569
 Red. masses --      1.2126                 1.3679                 1.1867
 Frc consts  --      1.3634                 1.5985                 1.4502
 IR Inten    --      2.9567                13.8734                10.8972

                     16                     17                     18
                      A                      A                      A
 Frequencies --   1474.6863              1479.0788              1479.9447
 Red. masses --      1.0509                 1.0431                 1.0458
 Frc consts  --      1.3465                 1.3444                 1.3496
 IR Inten    --      6.2072                 7.4754                 1.5529

                     19                     20                     21
                      A                      A                      A
 Frequencies --   1497.7300              1769.8818              2957.4756
 Red. masses --      1.0583                 7.8326                 1.0810
 Frc consts  --      1.3987                14.4558                 5.5708
 IR Inten    --     16.1708                66.5398                39.2340

                     22                     23                     24
                      A                      A                      A
 Frequencies --   2969.1060              3027.9225              3061.9481
 Red. masses --      1.0499                 1.0384                 1.0853
 Frc consts  --      5.4533                 5.6094                 5.9948
 IR Inten    --     93.5668                14.5991                34.0225

                     25                     26                     27
                      A                      A                      A
 Frequencies --   3078.4157              3080.4506              3142.5617
 Red. masses --      1.0983                 1.1006                 1.0999
 Frc consts  --      6.1323                 6.1536                 6.3998
 IR Inten    --     17.8890                19.3636                11.4487

 - Thermochemistry -
 -------------------
 Temperature   298.150 Kelvin.  Pressure   1.00000 Atm.
 Atom     1 has atomic number  6 and mass  12.00000

 Molecular mass:    57.05785 amu.
 Principal axes and moments of inertia in atomic units:
                           1         2         3
     Eigenvalues --    46.56133 443.21501 467.51584
           X            0.99996  -0.00927  -0.00000
           Y            0.00927   0.99996  -0.00004
           Z            0.00000   0.00004   1.00000
 This molecule is an asymmetric top.
 Rotational symmetry number  1.
 Rotational temperatures (Kelvin)      1.86021     0.19542     0.18526
 Rotational constants (GHZ):          38.76052     4.07193     3.86028
 Zero-point vibrational energy     252056.7 (Joules/Mol)
                                   60.24299 (Kcal/Mol)
 Warning -- explicit consideration of   5 degrees of freedom as
           vibrations may cause significant error
 Vibrational temperatures:    252.97   341.39   384.57   450.49   778.93
          (Kelvin)           1257.96  1274.45  1523.36  1575.91  1603.74
                             1645.92  1703.09  1987.58  2026.30  2072.06
                             2121.74  2128.06  2129.31  2154.90  2546.46
                             4255.14  4271.88  4356.50  4405.45  4429.15
                             4432.08  4521.44

 Zero-point correction=                           0.096003 (Hartree/Particle)
 Thermal correction to Energy=                    0.101280
 Thermal correction to Enthalpy=                  0.102224
 Thermal correction to Gibbs Free Energy=         0.068848
 Sum of electronic and zero-point Energies=           -173.183821
 Sum of electronic and thermal Energies=              -173.178545
 Sum of electronic and thermal Enthalpies=            -173.177601
 Sum of electronic and thermal Free Energies=         -173.210977

                     E (Thermal)             CV                S
                      KCal/Mol        Cal/Mol-Kelvin    Cal/Mol-Kelvin
 Total                   63.554             17.198             70.246
 Electronic               0.000              0.000              0.000
 Translational            0.889              2.981             38.046
 Rotational               0.889              2.981             23.782
 Vibrational             61.777             11.237              8.418
 Vibration     1          0.628              1.872              2.372
 Vibration     2          0.656              1.784              1.823
 Vibration     3          0.672              1.733              1.614
 Vibration     4          0.701              1.649              1.346
 Vibration     5          0.896              1.159              0.562

 Optimization completed.
    -- Stationary point found.
 Normal termination of Gaussian 09 at Tue Aug 30 10:48:06 2022.

 -----------------------------------------------------------------
 #P Geom=AllCheck Guess=TCheck SCRF=Check CCSD(T,E4T,FrzG4)/GTBas1
 -----------------------------------------------------------------

 Structure from the checkpoint file:  "G4.Frag_497.chk"
 --------
 Frag_497
 --------
 Charge =  0 Multiplicity = 1

 SCF Done:  E(RHF) =  -172.104717121     A.U. after   12 cycles
 E2 =    -0.5491198702D+00 EUMP2 =    -0.17265383699095D+03
 CCSD(T)
 CCSD(T)= -0.17271615700D+03
 473\MP4SDQ=-172.6959818\CCSD=-172.696898\CCSD(T)=-172.716157\RMSD=2.87
 Normal termination of Gaussian 09 at Tue Aug 30 10:48:29 2022.

 ---------------------------------------------------------
 #P Geom=AllCheck Guess=TCheck SCRF=Check MP4=FrzG4/GTBas2
 ---------------------------------------------------------

 Structure from the checkpoint file:  "G4.Frag_497.chk"
 --------
 Frag_497
 --------
 Charge =  0 Multiplicity = 1

 SCF Done:  E(RHF) =  -172.109069495     A.U. after   12 cycles
 E2 =    -0.5554789450D+00 EUMP2 =    -0.17266454844034D+03
 Normal termination of Gaussian 09 at Tue Aug 30 10:48:37 2022.

 ---------------------------------------------------------
 #P Geom=AllCheck Guess=TCheck SCRF=Check MP4=FrzG4/GTBas3
 ---------------------------------------------------------

 Structure from the checkpoint file:  "G4.Frag_497.chk"
 --------
 Frag_497
 --------
 Charge =  0 Multiplicity = 1

 SCF Done:  E(RHF) =  -172.126363830     A.U. after   11 cycles
 E2 =    -0.6742852854D+00 EUMP2 =    -0.17280064911551D+03
 Normal termination of Gaussian 09 at Tue Aug 30 10:49:11 2022.

 -----------------------------------------------------------
 #P Geom=AllCheck Guess=TCheck SCRF=Check MP2=Full/GTLargeXP
 -----------------------------------------------------------

 Structure from the checkpoint file:  "G4.Frag_497.chk"
 --------
 Frag_497
 --------
 Charge =  0 Multiplicity = 1

 SCF Done:  E(RHF) =  -172.166262217     A.U. after   11 cycles
 E2 =    -0.8889620676D+00 EUMP2 =    -0.17305522428458D+03
 Normal termination of Gaussian 09 at Tue Aug 30 10:49:35 2022.
 SCF Done:  E(RHF) =  -172.179751618     A.U. after    9 cycles
 Normal termination of Gaussian 09 at Tue Aug 30 10:50:09 2022.

                         Standard orientation:
 ---------------------------------------------------------------------
 Center     Atomic      Atomic             Coordinates (Angstroms)
 Number     Number       Type             X           Y           Z
 ---------------------------------------------------------------------
      1          6           0        1.896019   -0.085787    0.000016
      2          6           0        0.462197    0.350843    0.000029
      3          7           0       -0.497988   -0.472857   -0.000062
      4          6           0       -1.847811    0.053950    0.000030
      5          1           0        2.419046    0.309894    0.879192
      6          1           0        2.418789    0.309023   -0.879696
      7          1           0        1.961765   -1.175115    0.000535
      8          1           0        0.289686    1.441683   -0.000163
      9          1           0       -2.383535   -0.322464    0.879099
     10          1           0       -2.383571   -0.322185   -0.879164
     11          1           0       -1.898699    1.155128    0.000181
 ---------------------------------------------------------------------

 SCF Done:  E(RHF) =  -172.182561753     A.U. after    7 cycles

 The electronic state is 1-A.
 Alpha  occ. eigenvalues --  -15.55089 -11.27405 -11.24315 -11.22448  -1.22569
 Alpha  occ. eigenvalues --   -1.00998  -0.91275  -0.76002  -0.64939  -0.61256
 Alpha  occ. eigenvalues --   -0.59326  -0.56365  -0.53923  -0.51450  -0.40140
 Alpha  occ. eigenvalues --   -0.40126
 Alpha virt. eigenvalues --    0.03913   0.04456   0.05201   0.05309   0.06897
 Alpha virt. eigenvalues --    0.07154   0.07492   0.09273   0.09335   0.10438
 Alpha virt. eigenvalues --    0.13040   0.14232   0.14643   0.16239   0.16776

 Mulliken charges:
               1
     1  C   -0.484138
     2  C    0.021477
     3  N   -0.341594
     4  C   -0.402707
     5  H    0.177784
     6  H    0.177794
     7  H    0.201397
     8  H    0.151639
     9  H    0.179042
    10  H    0.179030
    11  H    0.140277
 Sum of Mulliken charges =  -0.00000

 Dipole moment (field-independent basis, Debye):
    X=              0.4712    Y=              1.6957    Z=             -0.0000  Tot=              1.7599
 Quadrupole moment (field-independent basis, Debye-Ang):
   XX=            -23.1172   YY=            -27.3200   ZZ=            -26.4403
   XY=             -0.0780   XZ=             -0.0002   YZ=             -0.0004

 Normal termination of Gaussian 09 at Tue Aug 30 10:53:13 2022.
