 Gaussian 09, Revision E.01,
 Gaussian 09:  ES64L-G09RevE.01 30-Nov-2015

 -----
 #P G4
 -----

 --------
 Frag_506
 --------
 Symbolic Z-matrix:
 Charge =  0 Multiplicity = 1

 SCF Done:  E(RB3LYP) =  -322.442605186     A.U. after   14 cycles
 SCF Done:  E(RB3LYP) =  -322.529596181     A.U. after   13 cycles
 SCF Done:  E(RB3LYP) =  -322.514504343     A.U. after   13 cycles
 SCF Done:  E(RB3LYP) =  -322.545214567     A.U. after   11 cycles
 SCF Done:  E(RB3LYP) =  -322.547567287     A.U. after   12 cycles
 SCF Done:  E(RB3LYP) =  -322.547734331     A.U. after   12 cycles
 SCF Done:  E(RB3LYP) =  -322.547344766     A.U. after   12 cycles
 SCF Done:  E(RB3LYP) =  -322.548049950     A.U. after    9 cycles
 SCF Done:  E(RB3LYP) =  -322.548194785     A.U. after   10 cycles
 SCF Done:  E(RB3LYP) =  -322.548206539     A.U. after    9 cycles
 SCF Done:  E(RB3LYP) =  -322.548209609     A.U. after    8 cycles
 SCF Done:  E(RB3LYP) =  -322.548210148     A.U. after    7 cycles
 Optimization completed.
    -- Stationary point found.
 Normal termination of Gaussian 09 at Tue Aug 30 12:15:02 2022.

 ----------------------------------------------------------
 #P Geom=AllCheck Guess=TCheck SCRF=Check B3LYP/GTBas3 Freq
 ----------------------------------------------------------

 Structure from the checkpoint file:  "G4.Frag_506.chk"
 --------
 Frag_506
 --------
 Charge =  0 Multiplicity = 1

 SCF Done:  E(RB3LYP) =  -322.548210147     A.U. after    1 cycles

  Exact polarizability:  56.860  -6.079  57.935  -0.573   0.148  23.786
 Approx polarizability:  79.981 -10.940  98.213  -1.296   1.533  36.517

                      1                      2                      3
                      A                      A                      A
 Frequencies --     77.8400               293.7924               326.0916
 Red. masses --      5.7599                 4.2018                 1.0768
 Frc consts  --      0.0206                 0.2137                 0.0675
 IR Inten    --      0.4447                 0.6242                22.7628

                      4                      5                      6
                      A                      A                      A
 Frequencies --    402.0475               411.9011               516.3507
 Red. masses --      2.5875                 2.5368                 4.5226
 Frc consts  --      0.2464                 0.2536                 0.7104
 IR Inten    --     23.4108                 9.5493                 5.7204

                      7                      8                      9
                      A                      A                      A
 Frequencies --    577.5348               600.2424               634.2558
 Red. masses --      3.4039                 1.3069                 1.2989
 Frc consts  --      0.6689                 0.2774                 0.3079
 IR Inten    --     29.4748               156.8655               172.1000

                     10                     11                     12
                      A                      A                      A
 Frequencies --    732.8208               784.9754               816.5999
 Red. masses --      1.3287                 3.4657                 3.7882
 Frc consts  --      0.4204                 1.2582                 1.4884
 IR Inten    --      3.3105                15.8266                31.7072

                     13                     14                     15
                      A                      A                      A
 Frequencies --    870.6736               989.2427              1125.1465
 Red. masses --      1.4646                 1.6049                 1.5093
 Frc consts  --      0.6541                 0.9253                 1.1258
 IR Inten    --     38.0794                 2.2865                 6.6030

                     16                     17                     18
                      A                      A                      A
 Frequencies --   1150.1152              1305.6204              1418.0155
 Red. masses --      3.0016                 1.7785                 3.5994
 Frc consts  --      2.3393                 1.7862                 4.2642
 IR Inten    --    343.9408                17.8481               147.7712

                     19                     20                     21
                      A                      A                      A
 Frequencies --   1433.2396              1640.3236              1700.4580
 Red. masses --      1.1846                 1.1523                 5.5485
 Frc consts  --      1.4337                 1.8267                 9.4528
 IR Inten    --      5.5571                44.4204               119.0861

                     22                     23                     24
                      A                      A                      A
 Frequencies --   1834.1157              3173.2892              3279.3504
 Red. masses --      9.8892                 1.0619                 1.1136
 Frc consts  --     19.6003                 6.3004                 7.0557
 IR Inten    --    166.3809                 7.7720                 0.8063

                     25                     26                     27
                      A                      A                      A
 Frequencies --   3576.0237              3683.4386              3766.6625
 Red. masses --      1.0469                 1.0985                 1.0643
 Frc consts  --      7.8877                 8.7813                 8.8970
 IR Inten    --     20.0769                25.7471                73.0438

 - Thermochemistry -
 -------------------
 Temperature   298.150 Kelvin.  Pressure   1.00000 Atm.
 Atom     1 has atomic number  6 and mass  12.00000

 Molecular mass:    87.03203 amu.
 Principal axes and moments of inertia in atomic units:
                           1         2         3
     Eigenvalues --   327.51186 496.21114 821.45314
           X            0.99830  -0.05803  -0.00487
           Y            0.05800   0.99830  -0.00657
           Z            0.00524   0.00628   0.99997
 This molecule is an asymmetric top.
 Rotational symmetry number  1.
 Rotational temperatures (Kelvin)      0.26446     0.17455     0.10544
 Rotational constants (GHZ):           5.51046     3.63704     2.19701
 Zero-point vibrational energy     222027.9 (Joules/Mol)
                                   53.06594 (Kcal/Mol)
 Warning -- explicit consideration of   8 degrees of freedom as
           vibrations may cause significant error
 Vibrational temperatures:    111.99   422.70   469.17   578.46   592.63
          (Kelvin)            742.91   830.94   863.61   912.55  1054.36
                             1129.40  1174.90  1252.70  1423.30  1618.83
                             1654.76  1878.49  2040.21  2062.11  2360.06
                             2446.58  2638.88  4565.65  4718.25  5145.09
                             5299.64  5419.38

 Zero-point correction=                           0.084566 (Hartree/Particle)
 Thermal correction to Energy=                    0.090714
 Thermal correction to Enthalpy=                  0.091658
 Thermal correction to Gibbs Free Energy=         0.054922
 Sum of electronic and zero-point Energies=           -322.463644
 Sum of electronic and thermal Energies=              -322.457496
 Sum of electronic and thermal Enthalpies=            -322.456552
 Sum of electronic and thermal Free Energies=         -322.493288

                     E (Thermal)             CV                S
                      KCal/Mol        Cal/Mol-Kelvin    Cal/Mol-Kelvin
 Total                   56.924             22.370             77.318
 Electronic               0.000              0.000              0.000
 Translational            0.889              2.981             39.304
 Rotational               0.889              2.981             26.393
 Vibrational             55.146             16.408             11.622
 Vibration     1          0.599              1.964              3.945
 Vibration     2          0.689              1.685              1.452
 Vibration     3          0.710              1.623              1.279
 Vibration     4          0.768              1.466              0.955
 Vibration     5          0.776              1.444              0.920
 Vibration     6          0.871              1.214              0.618
 Vibration     7          0.934              1.080              0.490
 Vibration     8          0.958              1.031              0.449

 Optimization completed.
    -- Stationary point found.
 Normal termination of Gaussian 09 at Tue Aug 30 12:15:26 2022.

 -----------------------------------------------------------------
 #P Geom=AllCheck Guess=TCheck SCRF=Check CCSD(T,E4T,FrzG4)/GTBas1
 -----------------------------------------------------------------

 Structure from the checkpoint file:  "G4.Frag_506.chk"
 --------
 Frag_506
 --------
 Charge =  0 Multiplicity = 1

 SCF Done:  E(RHF) =  -320.678053282     A.U. after   13 cycles
 E2 =    -0.8950472850D+00 EUMP2 =    -0.32157310056743D+03
 CCSD(T)
 CCSD(T)= -0.32163521965D+03
 172\MP4SDQ=-321.606082\CCSD=-321.6042778\CCSD(T)=-321.6352196\RMSD=7.2
 Normal termination of Gaussian 09 at Tue Aug 30 12:17:04 2022.

 ---------------------------------------------------------
 #P Geom=AllCheck Guess=TCheck SCRF=Check MP4=FrzG4/GTBas2
 ---------------------------------------------------------

 Structure from the checkpoint file:  "G4.Frag_506.chk"
 --------
 Frag_506
 --------
 Charge =  0 Multiplicity = 1

 SCF Done:  E(RHF) =  -320.689405475     A.U. after   13 cycles
 E2 =    -0.9087528595D+00 EUMP2 =    -0.32159815833450D+03
 Normal termination of Gaussian 09 at Tue Aug 30 12:17:38 2022.

 ---------------------------------------------------------
 #P Geom=AllCheck Guess=TCheck SCRF=Check MP4=FrzG4/GTBas3
 ---------------------------------------------------------

 Structure from the checkpoint file:  "G4.Frag_506.chk"
 --------
 Frag_506
 --------
 Charge =  0 Multiplicity = 1

 SCF Done:  E(RHF) =  -320.719475718     A.U. after   12 cycles
 E2 =    -0.1089225590D+01 EUMP2 =    -0.32180870130815D+03
 Normal termination of Gaussian 09 at Tue Aug 30 12:20:04 2022.

 -----------------------------------------------------------
 #P Geom=AllCheck Guess=TCheck SCRF=Check MP2=Full/GTLargeXP
 -----------------------------------------------------------

 Structure from the checkpoint file:  "G4.Frag_506.chk"
 --------
 Frag_506
 --------
 Charge =  0 Multiplicity = 1

 SCF Done:  E(RHF) =  -320.806781165     A.U. after   12 cycles
 E2 =    -0.1428479402D+01 EUMP2 =    -0.32223526056752D+03
 Normal termination of Gaussian 09 at Tue Aug 30 12:21:36 2022.
 SCF Done:  E(RHF) =  -320.832431139     A.U. after   10 cycles
 Normal termination of Gaussian 09 at Tue Aug 30 12:23:15 2022.

                         Standard orientation:
 ---------------------------------------------------------------------
 Center     Atomic      Atomic             Coordinates (Angstroms)
 Number     Number       Type             X           Y           Z
 ---------------------------------------------------------------------
      1          6           0       -1.455133    1.191717    0.039656
      2          6           0       -0.748012    0.053996   -0.007696
      3          7           0       -1.271434   -1.231593   -0.109078
      4          6           0        0.744434    0.162583   -0.009371
      5          8           0        1.379332    1.186076   -0.030780
      6          8           0        1.338646   -1.058822    0.036487
      7          1           0       -0.935905    2.138855    0.046196
      8          1           0       -2.538823    1.192166    0.056080
      9          1           0       -2.232174   -1.324139    0.185146
     10          1           0       -0.676773   -1.961725    0.251097
     11          1           0        2.292156   -0.891813    0.043832
 ---------------------------------------------------------------------

 SCF Done:  E(RHF) =  -320.837772510     A.U. after    8 cycles

 The electronic state is 1-A.
 Alpha  occ. eigenvalues --  -20.61953 -20.55129 -15.57117 -11.39629 -11.29302
 Alpha  occ. eigenvalues --  -11.23035  -1.47323  -1.36854  -1.22933  -1.03193
 Alpha  occ. eigenvalues --   -0.90875  -0.77046  -0.73274  -0.71444  -0.66813
 Alpha  occ. eigenvalues --   -0.64356  -0.62014  -0.60006  -0.55481  -0.51420
 Alpha  occ. eigenvalues --   -0.49157  -0.46487  -0.33539
 Alpha virt. eigenvalues --    0.03656   0.04089   0.04996   0.05854   0.07000
 Alpha virt. eigenvalues --    0.07354   0.07588   0.08844   0.09555   0.09919
 Alpha virt. eigenvalues --    0.10517   0.12737   0.13167   0.13525   0.14206

 Mulliken charges:
               1
     1  C   -0.402948
     2  C    0.131555
     3  N   -0.714686
     4  C    0.682788
     5  O   -0.601585
     6  O   -0.564985
     7  H    0.235371
     8  H    0.178185
     9  H    0.308138
    10  H    0.328908
    11  H    0.419258
 Sum of Mulliken charges =  -0.00000

 Dipole moment (field-independent basis, Debye):
    X=             -1.1282    Y=             -2.1428    Z=              1.0045  Tot=              2.6218
 Quadrupole moment (field-independent basis, Debye-Ang):
   XX=            -28.4910   YY=            -36.3900   ZZ=            -37.6770
   XY=             -3.7716   XZ=             -1.3230   YZ=             -1.8111

 Normal termination of Gaussian 09 at Tue Aug 30 12:28:58 2022.
