 Gaussian 09, Revision E.01,
 Gaussian 09:  ES64L-G09RevE.01 30-Nov-2015

 -----
 #P G4
 -----

 --------
 Frag_523
 --------
 Symbolic Z-matrix:
 Charge =  0 Multiplicity = 1

 SCF Done:  E(RB3LYP) =  -210.387073734     A.U. after   13 cycles
 SCF Done:  E(RB3LYP) =  -210.390992730     A.U. after   11 cycles
 SCF Done:  E(RB3LYP) =  -210.391534271     A.U. after   10 cycles
 SCF Done:  E(RB3LYP) =  -210.392905120     A.U. after   12 cycles
 SCF Done:  E(RB3LYP) =  -210.393395038     A.U. after   11 cycles
 SCF Done:  E(RB3LYP) =  -210.394001596     A.U. after   11 cycles
 SCF Done:  E(RB3LYP) =  -210.394369932     A.U. after   10 cycles
 SCF Done:  E(RB3LYP) =  -210.395529453     A.U. after   13 cycles
 SCF Done:  E(RB3LYP) =  -210.396277308     A.U. after   10 cycles
 SCF Done:  E(RB3LYP) =  -210.396844965     A.U. after   11 cycles
 SCF Done:  E(RB3LYP) =  -210.396899025     A.U. after    7 cycles
 SCF Done:  E(RB3LYP) =  -210.396899103     A.U. after    6 cycles
 SCF Done:  E(RB3LYP) =  -210.396899125     A.U. after    6 cycles
 Optimization completed.
    -- Stationary point found.
 Normal termination of Gaussian 09 at Tue Aug 23 04:11:05 2022.

 ----------------------------------------------------------
 #P Geom=AllCheck Guess=TCheck SCRF=Check B3LYP/GTBas3 Freq
 ----------------------------------------------------------

 Structure from the checkpoint file:  "G4.Frag_523.chk"
 --------
 Frag_523
 --------
 Charge =  0 Multiplicity = 1

 SCF Done:  E(RB3LYP) =  -210.396899125     A.U. after    1 cycles

  Exact polarizability:  41.193  -0.579  32.396  -0.013  -0.456  32.591
 Approx polarizability:  49.721   0.581  44.355   0.805   0.735  46.508

                      1                      2                      3
                      A                      A                      A
 Frequencies --    152.2430               206.2888               212.9612
 Red. masses --      1.2743                 1.5079                 1.2328
 Frc consts  --      0.0174                 0.0378                 0.0329
 IR Inten    --      2.3799                18.4809                31.6194

                      4                      5                      6
                      A                      A                      A
 Frequencies --    367.3115               557.5242               797.0355
 Red. masses --      2.4655                 3.0230                 1.3712
 Frc consts  --      0.1960                 0.5536                 0.5132
 IR Inten    --      3.7784                 3.3808               138.0762

                      7                      8                      9
                      A                      A                      A
 Frequencies --    927.4842               991.7606              1065.7943
 Red. masses --      2.6757                 1.6554                 3.2598
 Frc consts  --      1.3561                 0.9593                 2.1817
 IR Inten    --     20.3769                 8.0683                37.7539

                     10                     11                     12
                      A                      A                      A
 Frequencies --   1159.2571              1180.4853              1201.2767
 Red. masses --      3.2059                 1.3044                 1.5266
 Frc consts  --      2.5384                 1.0710                 1.2979
 IR Inten    --    159.3417                 9.8194                43.2232

                     13                     14                     15
                      A                      A                      A
 Frequencies --   1288.8475              1356.7910              1436.0901
 Red. masses --      1.5286                 1.1576                 1.1689
 Frc consts  --      1.4960                 1.2556                 1.4203
 IR Inten    --      7.9956                 3.1236                22.3863

                     16                     17                     18
                      A                      A                      A
 Frequencies --   1477.0777              1482.4985              1506.0603
 Red. masses --      1.1440                 1.0898                 1.0860
 Frc consts  --      1.4706                 1.4112                 1.4513
 IR Inten    --      8.4856                 6.8916                 0.7663

                     19                     20                     21
                      A                      A                      A
 Frequencies --   1517.8035              1651.7923              2961.8955
 Red. masses --      1.0581                 1.1004                 1.0593
 Frc consts  --      1.4362                 1.7689                 5.4754
 IR Inten    --      5.1390                23.6730                67.7389

                     22                     23                     24
                      A                      A                      A
 Frequencies --   2977.6330              3014.5721              3064.1560
 Red. masses --      1.0502                 1.1018                 1.0844
 Frc consts  --      5.4861                 5.8995                 5.9987
 IR Inten    --     72.0697                63.9039                38.2071

                     25                     26                     27
                      A                      A                      A
 Frequencies --   3120.1509              3513.5791              3600.6675
 Red. masses --      1.1016                 1.0489                 1.0937
 Frc consts  --      6.3188                 7.6296                 8.3542
 IR Inten    --     27.0190                 0.1871                 2.0843

 - Thermochemistry -
 -------------------
 Temperature   298.150 Kelvin.  Pressure   1.00000 Atm.
 Atom     1 has atomic number  6 and mass  12.00000

 Molecular mass:    61.05276 amu.
 Principal axes and moments of inertia in atomic units:
                           1         2         3
     Eigenvalues --   108.94107 331.02209 383.98257
           X            0.99916  -0.04000  -0.00936
           Y            0.03962   0.99852  -0.03728
           Z            0.01083   0.03687   0.99926
 This molecule is an asymmetric top.
 Rotational symmetry number  1.
 Rotational temperatures (Kelvin)      0.79505     0.26166     0.22557
 Rotational constants (GHZ):          16.56622     5.45203     4.70006
 Zero-point vibrational energy     255935.3 (Joules/Mol)
                                   61.17000 (Kcal/Mol)
 Warning -- explicit consideration of   5 degrees of freedom as
           vibrations may cause significant error
 Vibrational temperatures:    219.04   296.80   306.40   528.48   802.15
          (Kelvin)           1146.75  1334.44  1426.92  1533.44  1667.91
                             1698.45  1728.37  1854.36  1952.12  2066.21
                             2125.18  2132.98  2166.88  2183.78  2376.56
                             4261.50  4284.14  4337.29  4408.63  4489.20
                             5055.25  5180.55

 Zero-point correction=                           0.097481 (Hartree/Particle)
 Thermal correction to Energy=                    0.102870
 Thermal correction to Enthalpy=                  0.103815
 Thermal correction to Gibbs Free Energy=         0.069840
 Sum of electronic and zero-point Energies=           -210.299419
 Sum of electronic and thermal Energies=              -210.294029
 Sum of electronic and thermal Enthalpies=            -210.293085
 Sum of electronic and thermal Free Energies=         -210.327059

                     E (Thermal)             CV                S
                      KCal/Mol        Cal/Mol-Kelvin    Cal/Mol-Kelvin
 Total                   64.552             17.367             71.505
 Electronic               0.000              0.000              0.000
 Translational            0.889              2.981             38.247
 Rotational               0.889              2.981             24.141
 Vibrational             62.775             11.405              9.116
 Vibration     1          0.619              1.900              2.644
 Vibration     2          0.641              1.831              2.076
 Vibration     3          0.644              1.821              2.018
 Vibration     4          0.740              1.539              1.091
 Vibration     5          0.913              1.123              0.529

 Optimization completed.
    -- Stationary point found.
 Normal termination of Gaussian 09 at Tue Aug 23 04:11:49 2022.

 -----------------------------------------------------------------
 #P Geom=AllCheck Guess=TCheck SCRF=Check CCSD(T,E4T,FrzG4)/GTBas1
 -----------------------------------------------------------------

 Structure from the checkpoint file:  "G4.Frag_523.chk"
 --------
 Frag_523
 --------
 Charge =  0 Multiplicity = 1

 SCF Done:  E(RHF) =  -209.091429433     A.U. after   12 cycles
 E2 =    -0.6026119229D+00 EUMP2 =    -0.20969404135611D+03
 CCSD(T)
 CCSD(T)= -0.20975031418D+03
 7\MP4SDQ=-209.7336368\CCSD=-209.7342585\CCSD(T)=-209.7503142\RMSD=5.04
 Normal termination of Gaussian 09 at Tue Aug 23 04:12:28 2022.

 ---------------------------------------------------------
 #P Geom=AllCheck Guess=TCheck SCRF=Check MP4=FrzG4/GTBas2
 ---------------------------------------------------------

 Structure from the checkpoint file:  "G4.Frag_523.chk"
 --------
 Frag_523
 --------
 Charge =  0 Multiplicity = 1

 SCF Done:  E(RHF) =  -209.099356296     A.U. after   11 cycles
 E2 =    -0.6129034644D+00 EUMP2 =    -0.20971225976050D+03
 Normal termination of Gaussian 09 at Tue Aug 23 04:12:47 2022.

 ---------------------------------------------------------
 #P Geom=AllCheck Guess=TCheck SCRF=Check MP4=FrzG4/GTBas3
 ---------------------------------------------------------

 Structure from the checkpoint file:  "G4.Frag_523.chk"
 --------
 Frag_523
 --------
 Charge =  0 Multiplicity = 1

 SCF Done:  E(RHF) =  -209.120498843     A.U. after   11 cycles
 E2 =    -0.7530979581D+00 EUMP2 =    -0.20987359680120D+03
 Normal termination of Gaussian 09 at Tue Aug 23 04:22:16 2022.

 -----------------------------------------------------------
 #P Geom=AllCheck Guess=TCheck SCRF=Check MP2=Full/GTLargeXP
 -----------------------------------------------------------

 Structure from the checkpoint file:  "G4.Frag_523.chk"
 --------
 Frag_523
 --------
 Charge =  0 Multiplicity = 1

 SCF Done:  E(RHF) =  -209.178128948     A.U. after   11 cycles
 E2 =    -0.9826479375D+00 EUMP2 =    -0.21016077688539D+03
 Normal termination of Gaussian 09 at Tue Aug 23 04:23:24 2022.
 SCF Done:  E(RHF) =  -209.194924477     A.U. after    8 cycles
 Normal termination of Gaussian 09 at Tue Aug 23 04:25:10 2022.

                         Standard orientation:
 ---------------------------------------------------------------------
 Center     Atomic      Atomic             Coordinates (Angstroms)
 Number     Number       Type             X           Y           Z
 ---------------------------------------------------------------------
      1          6           0       -1.484691    0.457620    0.101252
      2          8           0       -0.639244   -0.578960   -0.357688
      3          6           0        0.626745   -0.585304    0.251170
      4          7           0        1.405366    0.589676   -0.105901
      5          1           0       -1.695718    0.352708    1.177961
      6          1           0       -2.423372    0.371595   -0.451211
      7          1           0       -1.044800    1.446002   -0.072359
      8          1           0        1.075468   -1.537182   -0.066983
      9          1           0        0.533327   -0.596278    1.350180
     10          1           0        2.143697    0.755641    0.568181
     11          1           0        1.835465    0.477562   -1.017489
 ---------------------------------------------------------------------

 SCF Done:  E(RHF) =  -209.198722470     A.U. after    8 cycles

 The electronic state is 1-A.
 Alpha  occ. eigenvalues --  -20.54841 -15.54477 -11.30207 -11.25859  -1.37501
 Alpha  occ. eigenvalues --   -1.17226  -0.94631  -0.84393  -0.69206  -0.66999
 Alpha  occ. eigenvalues --   -0.64089  -0.60864  -0.56215  -0.52821  -0.47679
 Alpha  occ. eigenvalues --   -0.42877  -0.40718
 Alpha virt. eigenvalues --    0.04030   0.04645   0.05195   0.05684   0.07412
 Alpha virt. eigenvalues --    0.07709   0.08504   0.10216   0.10596   0.12970
 Alpha virt. eigenvalues --    0.14107   0.16826   0.17720   0.19149   0.19793

 Mulliken charges:
               1
     1  C   -0.329410
     2  O   -0.342618
     3  C   -0.052542
     4  N   -0.662934
     5  H    0.140992
     6  H    0.173328
     7  H    0.195520
     8  H    0.160917
     9  H    0.140371
    10  H    0.288987
    11  H    0.287388
 Sum of Mulliken charges =  -0.00000

 Dipole moment (field-independent basis, Debye):
    X=              1.4372    Y=              0.1827    Z=              0.9556  Tot=              1.7356
 Quadrupole moment (field-independent basis, Debye-Ang):
   XX=            -21.1974   YY=            -28.0492   ZZ=            -24.8009
   XY=             -1.7287   XZ=             -0.6165   YZ=             -0.4922

 CCSD(T)/G3Bas1=-209.7503142\MP2/GTBas2=-209.7122598\MP4/GTBas2=-209.76
 Normal termination of Gaussian 09 at Tue Aug 23 05:15:34 2022.
