 Gaussian 09, Revision E.01,
 Gaussian 09:  ES64L-G09RevE.01 30-Nov-2015

 -----
 #P G4
 -----

 --------
 Frag_867
 --------
 Symbolic Z-matrix:
 Charge =  0 Multiplicity = 1

 SCF Done:  E(RB3LYP) =  -287.756296505     A.U. after   16 cycles
 SCF Done:  E(RB3LYP) =  -287.768991704     A.U. after   13 cycles
 SCF Done:  E(RB3LYP) =  -287.770589663     A.U. after   12 cycles
 SCF Done:  E(RB3LYP) =  -287.770985805     A.U. after   11 cycles
 SCF Done:  E(RB3LYP) =  -287.771054451     A.U. after   11 cycles
 SCF Done:  E(RB3LYP) =  -287.771057917     A.U. after    8 cycles
 Optimization completed.
    -- Stationary point found.
 Normal termination of Gaussian 09 at Tue Aug 23 11:13:48 2022.

 ----------------------------------------------------------
 #P Geom=AllCheck Guess=TCheck SCRF=Check B3LYP/GTBas3 Freq
 ----------------------------------------------------------

 Structure from the checkpoint file:  "G4.Frag_867.chk"
 --------
 Frag_867
 --------
 Charge =  0 Multiplicity = 1

 SCF Done:  E(RB3LYP) =  -287.771057917     A.U. after    1 cycles

  Exact polarizability:  65.750  -0.000  46.375  -6.406   0.000  57.709
 Approx polarizability:  89.469  -0.000  61.887 -17.864   0.001 111.118

                      1                      2                      3
                      A                      A                      A
 Frequencies --     77.6682               197.0271               233.9260
 Red. masses --      3.5689                 1.0340                 1.0452
 Frc consts  --      0.0127                 0.0236                 0.0337
 IR Inten    --      4.2901                 0.0208                 1.9009

                      4                      5                      6
                      A                      A                      A
 Frequencies --    267.9909               314.1543               338.6089
 Red. masses --      2.7585                 3.2207                 2.4078
 Frc consts  --      0.1167                 0.1873                 0.1627
 IR Inten    --      2.4401                 7.1548                 1.3568

                      7                      8                      9
                      A                      A                      A
 Frequencies --    505.8617               606.2940               629.4753
 Red. masses --      2.6363                 2.8234                 1.4748
 Frc consts  --      0.3975                 0.6115                 0.3443
 IR Inten    --      6.5190                 4.7114                 0.1053

                     10                     11                     12
                      A                      A                      A
 Frequencies --    703.3915               751.9535               800.8724
 Red. masses --      1.6122                 2.7504                 1.6813
 Frc consts  --      0.4700                 0.9163                 0.6354
 IR Inten    --     23.0169                 2.2936                30.8423

                     13                     14                     15
                      A                      A                      A
 Frequencies --    911.1994               935.2801               961.7248
 Red. masses --      2.3670                 1.1490                 1.5331
 Frc consts  --      1.1579                 0.5922                 0.8355
 IR Inten    --      0.0581                 1.5768                 0.0214

                     16                     17                     18
                      A                      A                      A
 Frequencies --   1093.1129              1126.8634              1143.0760
 Red. masses --      1.5799                 1.9100                 2.0909
 Frc consts  --      1.1123                 1.4290                 1.6096
 IR Inten    --     12.8095                39.3281                 3.1694

                     19                     20                     21
                      A                      A                      A
 Frequencies --   1203.7180              1331.4152              1346.8529
 Red. masses --      1.9599                 1.6549                 1.4086
 Frc consts  --      1.6731                 1.7284                 1.5055
 IR Inten    --      4.1156                56.6237                 3.5189

                     22                     23                     24
                      A                      A                      A
 Frequencies --   1347.8361              1390.2458              1411.6954
 Red. masses --      1.8211                 1.2831                 1.2489
 Frc consts  --      1.9492                 1.4612                 1.4664
 IR Inten    --      8.7493                 9.0927                 4.9542

                     25                     26                     27
                      A                      A                      A
 Frequencies --   1476.6957              1482.0452              1492.0115
 Red. masses --      1.0433                 1.3910                 1.0469
 Frc consts  --      1.3404                 1.8001                 1.3731
 IR Inten    --      0.4691                 8.8822                 0.3512

                     28                     29                     30
                      A                      A                      A
 Frequencies --   1493.3492              1515.2161              1644.9361
 Red. masses --      1.0662                 1.0551                 6.3727
 Frc consts  --      1.4009                 1.4273                10.1595
 IR Inten    --      8.7438                 6.9151               123.1017

                     31                     32                     33
                      A                      A                      A
 Frequencies --   3047.3660              3050.8048              3071.8599
 Red. masses --      1.0349                 1.0367                 1.0839
 Frc consts  --      5.6623                 5.6848                 6.0260
 IR Inten    --     21.9725                 8.9449                15.0861

                     34                     35                     36
                      A                      A                      A
 Frequencies --   3117.1276              3120.6608              3142.2673
 Red. masses --      1.1024                 1.1018                 1.1015
 Frc consts  --      6.3109                 6.3220                 6.4082
 IR Inten    --     13.2510                27.2707                 1.4578

                     37                     38                     39
                      A                      A                      A
 Frequencies --   3147.5908              3192.0865              3319.2716
 Red. masses --      1.1010                 1.0515                 1.1243
 Frc consts  --      6.4266                 6.3128                 7.2980
 IR Inten    --     13.9830                 0.8654                 0.6757

 - Thermochemistry -
 -------------------
 Temperature   298.150 Kelvin.  Pressure   1.00000 Atm.
 Atom     1 has atomic number  6 and mass  12.00000

 Molecular mass:    87.06841 amu.
 Principal axes and moments of inertia in atomic units:
                           1         2         3
     Eigenvalues --   362.44196 639.39055 670.19127
           X            0.99926  -0.00000  -0.03859
           Y           -0.00000   1.00000  -0.00001
           Z            0.03859   0.00001   0.99926
 This molecule is an asymmetric top.
 Rotational symmetry number  1.
 Rotational temperatures (Kelvin)      0.23897     0.13546     0.12924
 Rotational constants (GHZ):           4.97939     2.82260     2.69287
 Zero-point vibrational energy     340598.0 (Joules/Mol)
                                   81.40487 (Kcal/Mol)
 Warning -- explicit consideration of   8 degrees of freedom as
           vibrations may cause significant error
 Vibrational temperatures:    111.75   283.48   336.57   385.58   452.00
          (Kelvin)            487.18   727.82   872.32   905.67  1012.02
                             1081.89  1152.28  1311.01  1345.66  1383.71
                             1572.74  1621.30  1644.63  1731.88  1915.61
                             1937.82  1939.23  2000.25  2031.11  2124.63
                             2132.33  2146.67  2148.59  2180.06  2366.69
                             4384.47  4389.42  4419.72  4484.85  4489.93
                             4521.02  4528.68  4592.69  4775.69

 Zero-point correction=                           0.129727 (Hartree/Particle)
 Thermal correction to Energy=                    0.136753
 Thermal correction to Enthalpy=                  0.137698
 Thermal correction to Gibbs Free Energy=         0.099228
 Sum of electronic and zero-point Energies=           -287.641331
 Sum of electronic and thermal Energies=              -287.634305
 Sum of electronic and thermal Enthalpies=            -287.633360
 Sum of electronic and thermal Free Energies=         -287.671830

                     E (Thermal)             CV                S
                      KCal/Mol        Cal/Mol-Kelvin    Cal/Mol-Kelvin
 Total                   85.814             25.346             80.967
 Electronic               0.000              0.000              0.000
 Translational            0.889              2.981             39.305
 Rotational               0.889              2.981             26.543
 Vibrational             84.037             19.385             15.118
 Vibration     1          0.599              1.964              3.949
 Vibration     2          0.636              1.844              2.161
 Vibration     3          0.654              1.789              1.849
 Vibration     4          0.673              1.732              1.609
 Vibration     5          0.702              1.647              1.340
 Vibration     6          0.719              1.598              1.219
 Vibration     7          0.861              1.237              0.644
 Vibration     8          0.965              1.018              0.439

 Optimization completed.
    -- Stationary point found.
 Normal termination of Gaussian 09 at Tue Aug 23 11:16:35 2022.

 -----------------------------------------------------------------
 #P Geom=AllCheck Guess=TCheck SCRF=Check CCSD(T,E4T,FrzG4)/GTBas1
 -----------------------------------------------------------------

 Structure from the checkpoint file:  "G4.Frag_867.chk"
 --------
 Frag_867
 --------
 Charge =  0 Multiplicity = 1

 SCF Done:  E(RHF) =  -285.922875302     A.U. after   14 cycles
 E2 =    -0.8815720892D+00 EUMP2 =    -0.28680444739154D+03
 CCSD(T)
 CCSD(T)= -0.28688561563D+03
 286.852166\CCSD(T)=-286.8856156\RMSD=2.610e-09\PG=C01 [X(C4H9N1O1)]\\@
 Normal termination of Gaussian 09 at Tue Aug 23 11:23:18 2022.

 ---------------------------------------------------------
 #P Geom=AllCheck Guess=TCheck SCRF=Check MP4=FrzG4/GTBas2
 ---------------------------------------------------------

 Structure from the checkpoint file:  "G4.Frag_867.chk"
 --------
 Frag_867
 --------
 Charge =  0 Multiplicity = 1

 SCF Done:  E(RHF) =  -285.931948066     A.U. after   13 cycles
 E2 =    -0.8931997869D+00 EUMP2 =    -0.28682514785268D+03
 Normal termination of Gaussian 09 at Tue Aug 23 11:29:50 2022.

 ---------------------------------------------------------
 #P Geom=AllCheck Guess=TCheck SCRF=Check MP4=FrzG4/GTBas3
 ---------------------------------------------------------

 Structure from the checkpoint file:  "G4.Frag_867.chk"
 --------
 Frag_867
 --------
 Charge =  0 Multiplicity = 1

 SCF Done:  E(RHF) =  -285.957226212     A.U. after   12 cycles
 E2 =    -0.1081375720D+01 EUMP2 =    -0.28703860193265D+03
 Normal termination of Gaussian 09 at Tue Aug 23 14:46:27 2022.

 -----------------------------------------------------------
 #P Geom=AllCheck Guess=TCheck SCRF=Check MP2=Full/GTLargeXP
 -----------------------------------------------------------

 Structure from the checkpoint file:  "G4.Frag_867.chk"
 --------
 Frag_867
 --------
 Charge =  0 Multiplicity = 1

 SCF Done:  E(RHF) =  -286.028030293     A.U. after   13 cycles
 E2 =    -0.1412377039D+01 EUMP2 =    -0.28744040733207D+03
 Normal termination of Gaussian 09 at Tue Aug 23 14:52:54 2022.
 SCF Done:  E(RHF) =  -286.050995382     A.U. after   10 cycles
 Normal termination of Gaussian 09 at Tue Aug 23 15:00:11 2022.

                         Standard orientation:
 ---------------------------------------------------------------------
 Center     Atomic      Atomic             Coordinates (Angstroms)
 Number     Number       Type             X           Y           Z
 ---------------------------------------------------------------------
      1          6           0        1.825382   -0.000030   -0.763128
      2          7           0        0.814061   -0.000025    0.058878
      3          8           0        0.899163    0.000033    1.318174
      4          6           0       -0.589106   -0.000011   -0.492853
      5          6           0       -1.290122    1.272342   -0.021197
      6          6           0       -1.290167   -1.272319   -0.021147
      7          1           0        1.644002   -0.000044   -1.825945
      8          1           0        2.817600   -0.000008   -0.336605
      9          1           0       -0.495428   -0.000035   -1.582268
     10          1           0       -1.290698    1.307975    1.069963
     11          1           0       -0.783698    2.164990   -0.399824
     12          1           0       -2.322430    1.281842   -0.381620
     13          1           0       -0.783759   -2.165001   -0.399717
     14          1           0       -1.290771   -1.307899    1.070014
     15          1           0       -2.322467   -1.281807   -0.381596
 ---------------------------------------------------------------------

 SCF Done:  E(RHF) =  -286.055767765     A.U. after    8 cycles

 The electronic state is 1-A.
 Alpha  occ. eigenvalues --  -20.50809 -15.72053 -11.28901 -11.27747 -11.22506
 Alpha  occ. eigenvalues --  -11.22505  -1.44688  -1.15605  -1.07433  -0.94745
 Alpha  occ. eigenvalues --   -0.88441  -0.78128  -0.70937  -0.67040  -0.63628
 Alpha  occ. eigenvalues --   -0.61786  -0.59328  -0.55793  -0.53829  -0.53461
 Alpha  occ. eigenvalues --   -0.49806  -0.49546  -0.41422  -0.33983
 Alpha virt. eigenvalues --    0.03034   0.03652   0.04114   0.04825   0.05734
 Alpha virt. eigenvalues --    0.06521   0.06907   0.07640   0.07899   0.09502
 Alpha virt. eigenvalues --    0.10612   0.10921   0.11142   0.12472   0.12538

 Mulliken charges:
               1
     1  C   -0.362337
     2  N    0.290398
     3  O   -0.609094
     4  C    0.015897
     5  C   -0.544034
     6  C   -0.544032
     7  H    0.218997
     8  H    0.235643
     9  H    0.179706
    10  H    0.218499
    11  H    0.168179
    12  H    0.172751
    13  H    0.168180
    14  H    0.218496
    15  H    0.172751
 Sum of Mulliken charges =  -0.00000

 Dipole moment (field-independent basis, Debye):
    X=             -0.9816    Y=             -0.0001    Z=             -4.0033  Tot=              4.1219
 Quadrupole moment (field-independent basis, Debye-Ang):
   XX=            -34.5626   YY=            -38.4169   ZZ=            -40.8092
   XY=             -0.0001   XZ=             -4.2782   YZ=             -0.0001

 Normal termination of Gaussian 09 at Tue Aug 23 17:59:26 2022.
