 Gaussian 09, Revision E.01,
 Gaussian 09:  ES64L-G09RevE.01 30-Nov-2015

 -----
 #P G4
 -----

 --------
 Frag_515
 --------
 Symbolic Z-matrix:
 Charge =  0 Multiplicity = 1

 SCF Done:  E(RB3LYP) =  -303.888771761     A.U. after   14 cycles
 SCF Done:  E(RB3LYP) =  -303.900437768     A.U. after   12 cycles
 SCF Done:  E(RB3LYP) =  -303.900817261     A.U. after   11 cycles
 SCF Done:  E(RB3LYP) =  -303.900631536     A.U. after   12 cycles
 SCF Done:  E(RB3LYP) =  -303.900985557     A.U. after    8 cycles
 SCF Done:  E(RB3LYP) =  -303.901178971     A.U. after   11 cycles
 SCF Done:  E(RB3LYP) =  -303.901431285     A.U. after   12 cycles
 SCF Done:  E(RB3LYP) =  -303.901548297     A.U. after   11 cycles
 SCF Done:  E(RB3LYP) =  -303.901608421     A.U. after   11 cycles
 SCF Done:  E(RB3LYP) =  -303.901609811     A.U. after    7 cycles
 SCF Done:  E(RB3LYP) =  -303.901610070     A.U. after    7 cycles
 Optimization completed.
    -- Stationary point found.
 Normal termination of Gaussian 09 at Tue Aug 23 04:11:32 2022.

 ----------------------------------------------------------
 #P Geom=AllCheck Guess=TCheck SCRF=Check B3LYP/GTBas3 Freq
 ----------------------------------------------------------

 Structure from the checkpoint file:  "G4.Frag_515.chk"
 --------
 Frag_515
 --------
 Charge =  0 Multiplicity = 1

 SCF Done:  E(RB3LYP) =  -303.901610070     A.U. after    1 cycles

  Exact polarizability:  54.200  -2.765  51.479   0.864  -3.671  43.571
 Approx polarizability:  70.628  -4.466  76.895   0.733 -12.134  67.572

                      1                      2                      3
                      A                      A                      A
 Frequencies --     51.2054               174.7477               229.5961
 Red. masses --      3.9700                 1.2691                 1.0671
 Frc consts  --      0.0061                 0.0228                 0.0331
 IR Inten    --      6.4228               172.6449                 3.4439

                      4                      5                      6
                      A                      A                      A
 Frequencies --    236.6549               239.3747               301.9007
 Red. masses --      1.6502                 1.8000                 2.3667
 Frc consts  --      0.0545                 0.0608                 0.1271
 IR Inten    --     18.0372                30.4200                15.4210

                      7                      8                      9
                      A                      A                      A
 Frequencies --    367.8234               475.4015               575.7641
 Red. masses --      2.8473                 2.5679                 1.1284
 Frc consts  --      0.2270                 0.3419                 0.2204
 IR Inten    --     12.0167                 4.4447                11.7293

                     10                     11                     12
                      A                      A                      A
 Frequencies --    635.8355               754.0178               767.8008
 Red. masses --      3.4852                 3.0979                 3.0696
 Frc consts  --      0.8302                 1.0377                 1.0662
 IR Inten    --      3.9762                10.1310                 4.6437

                     13                     14                     15
                      A                      A                      A
 Frequencies --    918.3828               941.8975              1020.7379
 Red. masses --      2.0347                 1.6123                 1.4372
 Frc consts  --      1.0111                 0.8428                 0.8823
 IR Inten    --      1.6604               145.3649                 1.9813

                     16                     17                     18
                      A                      A                      A
 Frequencies --   1065.8511              1103.7691              1160.6024
 Red. masses --      1.4926                 1.9082                 2.1299
 Frc consts  --      0.9990                 1.3697                 1.6904
 IR Inten    --     21.0184                31.0149                 5.1233

                     19                     20                     21
                      A                      A                      A
 Frequencies --   1256.6709              1291.7173              1358.6508
 Red. masses --      1.7154                 1.5677                 2.2389
 Frc consts  --      1.5961                 1.5411                 2.4351
 IR Inten    --     60.5524                22.9898                55.4301

                     22                     23                     24
                      A                      A                      A
 Frequencies --   1398.8415              1427.6219              1485.9296
 Red. masses --      1.2103                 1.4125                 1.0493
 Frc consts  --      1.3953                 1.6962                 1.3651
 IR Inten    --      4.2578                 6.7779                 5.2281

                     25                     26                     27
                      A                      A                      A
 Frequencies --   1498.9519              1616.5816              1675.8686
 Red. masses --      1.0578                 1.2343                 1.0859
 Frc consts  --      1.4003                 1.9006                 1.7970
 IR Inten    --      4.0044                89.4779                22.9573

                     28                     29                     30
                      A                      A                      A
 Frequencies --   1793.2431              3027.3711              3039.6381
 Red. masses --      9.6403                 1.0841                 1.0346
 Frc consts  --     18.2650                 5.8537                 5.6323
 IR Inten    --    246.3858                27.7190                17.5140

                     31                     32                     33
                      A                      A                      A
 Frequencies --   3109.6008              3129.8262              3467.2774
 Red. masses --      1.1014                 1.1022                 1.0502
 Frc consts  --      6.2751                 6.3615                 7.4390
 IR Inten    --     27.3565                16.7978                 2.6027

                     34                     35                     36
                      A                      A                      A
 Frequencies --   3538.7705              3597.3530              3733.6697
 Red. masses --      1.0896                 1.0449                 1.1039
 Frc consts  --      8.0391                 7.9666                 9.0670
 IR Inten    --      2.4841                29.3777                31.1537

 - Thermochemistry -
 -------------------
 Temperature   298.150 Kelvin.  Pressure   1.00000 Atm.
 Atom     1 has atomic number  6 and mass  12.00000

 Molecular mass:    88.06366 amu.
 Principal axes and moments of inertia in atomic units:
                           1         2         3
     Eigenvalues --   361.84744 615.62832 772.02646
           X            0.99947  -0.02068   0.02516
           Y            0.01960   0.99890   0.04259
           Z           -0.02602  -0.04208   0.99878
 This molecule is an asymmetric top.
 Rotational symmetry number  1.
 Rotational temperatures (Kelvin)      0.23937     0.14069     0.11219
 Rotational constants (GHZ):           4.98757     2.93154     2.33767
 Zero-point vibrational energy     313834.0 (Joules/Mol)
                                   75.00813 (Kcal/Mol)
 Warning -- explicit consideration of   9 degrees of freedom as
           vibrations may cause significant error
 Vibrational temperatures:     73.67   251.42   330.34   340.49   344.41
          (Kelvin)            434.37   529.22   684.00   828.40   914.82
                             1084.86  1104.69  1321.35  1355.18  1468.61
                             1533.52  1588.08  1669.85  1808.07  1858.49
                             1954.79  2012.62  2054.03  2137.92  2156.65
                             2325.90  2411.20  2580.07  4355.71  4373.36
                             4474.02  4503.12  4988.63  5091.50  5175.78
                             5371.91

 Zero-point correction=                           0.119533 (Hartree/Particle)
 Thermal correction to Energy=                    0.127089
 Thermal correction to Enthalpy=                  0.128033
 Thermal correction to Gibbs Free Energy=         0.088163
 Sum of electronic and zero-point Energies=           -303.782077
 Sum of electronic and thermal Energies=              -303.774521
 Sum of electronic and thermal Enthalpies=            -303.773577
 Sum of electronic and thermal Free Energies=         -303.813447

                     E (Thermal)             CV                S
                      KCal/Mol        Cal/Mol-Kelvin    Cal/Mol-Kelvin
 Total                   79.749             26.174             83.914
 Electronic               0.000              0.000              0.000
 Translational            0.889              2.981             39.339
 Rotational               0.889              2.981             26.644
 Vibrational             77.972             20.212             17.930
 Vibration     1          0.595              1.977              4.770
 Vibration     2          0.627              1.874              2.384
 Vibration     3          0.652              1.796              1.882
 Vibration     4          0.656              1.785              1.828
 Vibration     5          0.657              1.780              1.808
 Vibration     6          0.694              1.670              1.406
 Vibration     7          0.740              1.538              1.089
 Vibration     8          0.832              1.305              0.723
 Vibration     9          0.932              1.084              0.493

 Normal termination of Gaussian 09 at Tue Aug 23 04:13:51 2022.

 -----------------------------------------------------------------
 #P Geom=AllCheck Guess=TCheck SCRF=Check CCSD(T,E4T,FrzG4)/GTBas1
 -----------------------------------------------------------------

 Structure from the checkpoint file:  "G4.Frag_515.chk"
 --------
 Frag_515
 --------
 Charge =  0 Multiplicity = 1

 SCF Done:  E(RHF) =  -302.031529379     A.U. after   13 cycles
 E2 =    -0.8900644387D+00 EUMP2 =    -0.30292159381786D+03
 CCSD(T)
 CCSD(T)= -0.30299526207D+03
 \MP4SDQ=-302.9679961\CCSD=-302.9670903\CCSD(T)=-302.9952621\RMSD=5.009
 Normal termination of Gaussian 09 at Tue Aug 23 04:20:09 2022.

 ---------------------------------------------------------
 #P Geom=AllCheck Guess=TCheck SCRF=Check MP4=FrzG4/GTBas2
 ---------------------------------------------------------

 Structure from the checkpoint file:  "G4.Frag_515.chk"
 --------
 Frag_515
 --------
 Charge =  0 Multiplicity = 1

 SCF Done:  E(RHF) =  -302.042168117     A.U. after   12 cycles
 E2 =    -0.9041305956D+00 EUMP2 =    -0.30294629871302D+03
 Normal termination of Gaussian 09 at Tue Aug 23 04:26:16 2022.

 ---------------------------------------------------------
 #P Geom=AllCheck Guess=TCheck SCRF=Check MP4=FrzG4/GTBas3
 ---------------------------------------------------------

 Structure from the checkpoint file:  "G4.Frag_515.chk"
 --------
 Frag_515
 --------
 Charge =  0 Multiplicity = 1

 SCF Done:  E(RHF) =  -302.072210235     A.U. after   11 cycles
 E2 =    -0.1091756093D+01 EUMP2 =    -0.30316396632784D+03
 Normal termination of Gaussian 09 at Tue Aug 23 06:54:50 2022.

 -----------------------------------------------------------
 #P Geom=AllCheck Guess=TCheck SCRF=Check MP2=Full/GTLargeXP
 -----------------------------------------------------------

 Structure from the checkpoint file:  "G4.Frag_515.chk"
 --------
 Frag_515
 --------
 Charge =  0 Multiplicity = 1

 SCF Done:  E(RHF) =  -302.152194022     A.U. after   12 cycles
 E2 =    -0.1428782949D+01 EUMP2 =    -0.30358097697072D+03
 Normal termination of Gaussian 09 at Tue Aug 23 07:00:28 2022.
 SCF Done:  E(RHF) =  -302.175737083     A.U. after    8 cycles
 Normal termination of Gaussian 09 at Tue Aug 23 07:05:43 2022.

                         Standard orientation:
 ---------------------------------------------------------------------
 Center     Atomic      Atomic             Coordinates (Angstroms)
 Number     Number       Type             X           Y           Z
 ---------------------------------------------------------------------
      1          6           0        1.215318    1.232658    0.577723
      2          6           0        0.652354    0.198288   -0.410539
      3          7           0        1.538913   -0.960827   -0.463866
      4          6           0       -0.776816   -0.181602    0.027746
      5          7           0       -1.773449    0.617890   -0.448164
      6          8           0       -0.988629   -1.126757    0.764859
      7          1           0        0.597402    2.135278    0.614409
      8          1           0        1.250266    0.805973    1.585460
      9          1           0        2.231337    1.505617    0.284019
     10          1           0        0.616731    0.647785   -1.411022
     11          1           0        1.358826   -1.508126    0.377263
     12          1           0        1.248772   -1.566072   -1.228143
     13          1           0       -2.712189    0.469982   -0.114291
     14          1           0       -1.585502    1.428114   -1.011939
 ---------------------------------------------------------------------

 SCF Done:  E(RHF) =  -302.180774775     A.U. after    8 cycles

 The electronic state is 1-A.
 Alpha  occ. eigenvalues --  -20.52132 -15.58935 -15.54157 -11.35054 -11.27490
 Alpha  occ. eigenvalues --  -11.22577  -1.38651  -1.21732  -1.18896  -1.00846
 Alpha  occ. eigenvalues --   -0.88332  -0.78542  -0.73032  -0.69649  -0.65016
 Alpha  occ. eigenvalues --   -0.62131  -0.58935  -0.58284  -0.53773  -0.52309
 Alpha  occ. eigenvalues --   -0.49952  -0.44256  -0.42156  -0.39854
 Alpha virt. eigenvalues --    0.02938   0.04180   0.04502   0.05110   0.07192
 Alpha virt. eigenvalues --    0.07412   0.07471   0.07642   0.08118   0.10213
 Alpha virt. eigenvalues --    0.11635   0.11990   0.12178   0.13042   0.13359

 Mulliken charges:
               1
     1  C   -0.529163
     2  C    0.029498
     3  N   -0.691435
     4  C    0.578418
     5  N   -0.735556
     6  O   -0.631110
     7  H    0.156539
     8  H    0.184144
     9  H    0.188554
    10  H    0.165612
    11  H    0.311651
    12  H    0.280881
    13  H    0.357842
    14  H    0.334124
 Sum of Mulliken charges =  -0.00000

 Dipole moment (field-independent basis, Debye):
    X=             -1.2414    Y=              2.9873    Z=             -2.0492  Tot=              3.8294
 Quadrupole moment (field-independent basis, Debye-Ang):
   XX=            -38.2200   YY=            -36.5160   ZZ=            -36.9697
   XY=             -4.0914   XZ=              3.3597   YZ=              0.9205

 Normal termination of Gaussian 09 at Tue Aug 23 09:43:58 2022.
