 Gaussian 09, Revision E.01,
 Gaussian 09:  ES64L-G09RevE.01 30-Nov-2015

 -----
 #P G4
 -----

 --------
 Frag_946
 --------
 Symbolic Z-matrix:
 Charge =  0 Multiplicity = 1

 SCF Done:  E(RB3LYP) =  -285.624403856     A.U. after   12 cycles
 SCF Done:  E(RB3LYP) =  -285.629631892     A.U. after   11 cycles
 SCF Done:  E(RB3LYP) =  -285.630232902     A.U. after   10 cycles
 SCF Done:  E(RB3LYP) =  -285.630592064     A.U. after   10 cycles
 SCF Done:  E(RB3LYP) =  -285.630705181     A.U. after   10 cycles
 SCF Done:  E(RB3LYP) =  -285.630745225     A.U. after   10 cycles
 SCF Done:  E(RB3LYP) =  -285.630793232     A.U. after    9 cycles
 SCF Done:  E(RB3LYP) =  -285.630825904     A.U. after   10 cycles
 SCF Done:  E(RB3LYP) =  -285.630846917     A.U. after    9 cycles
 SCF Done:  E(RB3LYP) =  -285.630870544     A.U. after   10 cycles
 SCF Done:  E(RB3LYP) =  -285.630872610     A.U. after    8 cycles
 SCF Done:  E(RB3LYP) =  -285.630872789     A.U. after    6 cycles
 Optimization completed.
    -- Stationary point found.
 Normal termination of Gaussian 09 at Fri Aug 26 06:43:42 2022.

 ----------------------------------------------------------
 #P Geom=AllCheck Guess=TCheck SCRF=Check B3LYP/GTBas3 Freq
 ----------------------------------------------------------

 Structure from the checkpoint file:  "G4.Frag_946.chk"
 --------
 Frag_946
 --------
 Charge =  0 Multiplicity = 1

 SCF Done:  E(RB3LYP) =  -285.630872789     A.U. after    1 cycles

  Exact polarizability:  41.615  -1.226  37.961   1.154  -0.623  35.993
 Approx polarizability:  52.730  -2.337  53.627   1.874  -1.270  53.257

                      1                      2                      3
                      A                      A                      A
 Frequencies --    144.9683               201.3262               248.8712
 Red. masses --      2.4919                 1.1556                 1.9958
 Frc consts  --      0.0309                 0.0276                 0.0728
 IR Inten    --     18.4052                37.1578                17.8649

                      4                      5                      6
                      A                      A                      A
 Frequencies --    298.4097               362.4506               450.7193
 Red. masses --      1.3654                 1.1086                 5.7943
 Frc consts  --      0.0716                 0.0858                 0.6935
 IR Inten    --      3.5372               154.0756                 9.5934

                      7                      8                      9
                      A                      A                      A
 Frequencies --    484.6433               572.7375               852.7023
 Red. masses --      2.3853                 3.9645                 1.9562
 Frc consts  --      0.3301                 0.7662                 0.8380
 IR Inten    --     11.1260                37.8594                95.3453

                     10                     11                     12
                      A                      A                      A
 Frequencies --    856.7273              1016.8920              1054.8069
 Red. masses --      1.4143                 2.1701                 2.2256
 Frc consts  --      0.6116                 1.3221                 1.4589
 IR Inten    --     79.0009                27.0421               114.3196

                     13                     14                     15
                      A                      A                      A
 Frequencies --   1088.0604              1129.0763              1171.6754
 Red. masses --      4.6333                 1.9682                 1.2970
 Frc consts  --      3.2318                 1.4783                 1.0491
 IR Inten    --    101.3552                37.0167                80.4869

                     16                     17                     18
                      A                      A                      A
 Frequencies --   1228.3563              1269.8744              1347.0798
 Red. masses --      1.2611                 1.4041                 1.2823
 Frc consts  --      1.1211                 1.3341                 1.3710
 IR Inten    --      8.8914                14.7330                 0.5017

                     19                     20                     21
                      A                      A                      A
 Frequencies --   1407.1279              1434.3274              1443.4547
 Red. masses --      1.2344                 1.2926                 1.4618
 Frc consts  --      1.4400                 1.5668                 1.7946
 IR Inten    --     64.3512                13.9856                32.5499

                     22                     23                     24
                      A                      A                      A
 Frequencies --   1505.5373              1645.7052              2855.9272
 Red. masses --      1.0883                 1.0908                 1.0724
 Frc consts  --      1.4534                 1.7407                 5.1533
 IR Inten    --      2.4936                32.0024               109.7377

                     25                     26                     27
                      A                      A                      A
 Frequencies --   3061.5279              3095.5679              3503.7126
 Red. masses --      1.0850                 1.0880                 1.0486
 Frc consts  --      5.9918                 6.1426                 7.5846
 IR Inten    --     25.7231                25.3124                 1.9915

                     28                     29                     30
                      A                      A                      A
 Frequencies --   3588.3073              3784.9509              3790.0293
 Red. masses --      1.0930                 1.0654                 1.0659
 Frc consts  --      8.2918                 8.9928                 9.0206
 IR Inten    --      2.9209                12.4315                10.6968

 - Thermochemistry -
 -------------------
 Temperature   298.150 Kelvin.  Pressure   1.00000 Atm.
 Atom     1 has atomic number  7 and mass  14.00307

 Molecular mass:    77.04768 amu.
 Principal axes and moments of inertia in atomic units:
                           1         2         3
     Eigenvalues --   210.78447 484.86150 635.87430
           X            0.99999   0.00403  -0.00150
           Y           -0.00405   0.99996  -0.00821
           Z            0.00147   0.00821   0.99997
 This molecule is an asymmetric top.
 Rotational symmetry number  1.
 Rotational temperatures (Kelvin)      0.41091     0.17864     0.13621
 Rotational constants (GHZ):           8.56202     3.72218     2.83820
 Zero-point vibrational energy     268535.0 (Joules/Mol)
                                   64.18141 (Kcal/Mol)
 Warning -- explicit consideration of   8 degrees of freedom as
           vibrations may cause significant error
 Vibrational temperatures:    208.58   289.66   358.07   429.34   521.48
          (Kelvin)            648.48   697.29   824.04  1226.85  1232.64
                             1463.08  1517.63  1565.47  1624.49  1685.78
                             1767.33  1827.06  1938.14  2024.54  2063.67
                             2076.81  2166.13  2367.80  4109.04  4404.85
                             4453.83  5041.05  5162.77  5445.69  5453.00

 Zero-point correction=                           0.102280 (Hartree/Particle)
 Thermal correction to Energy=                    0.108579
 Thermal correction to Enthalpy=                  0.109523
 Thermal correction to Gibbs Free Energy=         0.073146
 Sum of electronic and zero-point Energies=           -285.528593
 Sum of electronic and thermal Energies=              -285.522294
 Sum of electronic and thermal Enthalpies=            -285.521350
 Sum of electronic and thermal Free Energies=         -285.557727

                     E (Thermal)             CV                S
                      KCal/Mol        Cal/Mol-Kelvin    Cal/Mol-Kelvin
 Total                   68.134             21.897             76.563
 Electronic               0.000              0.000              0.000
 Translational            0.889              2.981             38.941
 Rotational               0.889              2.981             25.678
 Vibrational             66.357             15.935             11.944
 Vibration     1          0.616              1.908              2.737
 Vibration     2          0.638              1.838              2.121
 Vibration     3          0.662              1.765              1.739
 Vibration     4          0.691              1.677              1.426
 Vibration     5          0.736              1.550              1.112
 Vibration     6          0.809              1.359              0.794
 Vibration     7          0.841              1.284              0.698
 Vibration     8          0.929              1.090              0.499

 Optimization completed.
    -- Stationary point found.
 Normal termination of Gaussian 09 at Fri Aug 26 06:44:03 2022.

 -----------------------------------------------------------------
 #P Geom=AllCheck Guess=TCheck SCRF=Check CCSD(T,E4T,FrzG4)/GTBas1
 -----------------------------------------------------------------

 Structure from the checkpoint file:  "G4.Frag_946.chk"
 --------
 Frag_946
 --------
 Charge =  0 Multiplicity = 1

 SCF Done:  E(RHF) =  -283.954173586     A.U. after   12 cycles
 E2 =    -0.7832082377D+00 EUMP2 =    -0.28473738182341D+03
 CCSD(T)
 CCSD(T)= -0.28479750350D+03
 D=-284.7775694\CCSD(T)=-284.7975035\RMSD=3.320e-09\PG=C01 [X(C2H7N1O2)
 Normal termination of Gaussian 09 at Fri Aug 26 06:45:01 2022.

 ---------------------------------------------------------
 #P Geom=AllCheck Guess=TCheck SCRF=Check MP4=FrzG4/GTBas2
 ---------------------------------------------------------

 Structure from the checkpoint file:  "G4.Frag_946.chk"
 --------
 Frag_946
 --------
 Charge =  0 Multiplicity = 1

 SCF Done:  E(RHF) =  -283.966086881     A.U. after   11 cycles
 E2 =    -0.7986492460D+00 EUMP2 =    -0.28476473612661D+03
 Normal termination of Gaussian 09 at Fri Aug 26 06:45:18 2022.

 ---------------------------------------------------------
 #P Geom=AllCheck Guess=TCheck SCRF=Check MP4=FrzG4/GTBas3
 ---------------------------------------------------------

 Structure from the checkpoint file:  "G4.Frag_946.chk"
 --------
 Frag_946
 --------
 Charge =  0 Multiplicity = 1

 SCF Done:  E(RHF) =  -283.998286886     A.U. after   11 cycles
 E2 =    -0.9743220857D+00 EUMP2 =    -0.28497260897162D+03
 Normal termination of Gaussian 09 at Fri Aug 26 06:46:48 2022.

 -----------------------------------------------------------
 #P Geom=AllCheck Guess=TCheck SCRF=Check MP2=Full/GTLargeXP
 -----------------------------------------------------------

 Structure from the checkpoint file:  "G4.Frag_946.chk"
 --------
 Frag_946
 --------
 Charge =  0 Multiplicity = 1

 SCF Done:  E(RHF) =  -284.080822297     A.U. after   11 cycles
 E2 =    -0.1269393939D+01 EUMP2 =    -0.28535021623602D+03
 Normal termination of Gaussian 09 at Fri Aug 26 06:47:39 2022.
 SCF Done:  E(RHF) =  -284.104109258     A.U. after    8 cycles
 Normal termination of Gaussian 09 at Fri Aug 26 06:48:36 2022.

                         Standard orientation:
 ---------------------------------------------------------------------
 Center     Atomic      Atomic             Coordinates (Angstroms)
 Number     Number       Type             X           Y           Z
 ---------------------------------------------------------------------
      1          7           0       -1.931679    0.012540   -0.189166
      2          6           0       -0.723269   -0.690546    0.217800
      3          6           0        0.506995    0.018881   -0.349834
      4          8           0        1.688527   -0.683619   -0.061628
      5          8           0        0.558354    1.364547    0.085613
      6          1           0       -1.856324    0.983673    0.097402
      7          1           0       -2.748203   -0.380320    0.265904
      8          1           0       -0.578303   -0.766948    1.318203
      9          1           0       -0.748957   -1.714534   -0.171421
     10          1           0        0.435504    0.084267   -1.438825
     11          1           0        1.609492   -1.070034    0.818246
     12          1           0        0.731136    1.358688    1.034977
 ---------------------------------------------------------------------

 SCF Done:  E(RHF) =  -284.109377384     A.U. after    8 cycles

 The electronic state is 1-A.
 Alpha  occ. eigenvalues --  -20.57107 -20.56601 -15.54773 -11.33569 -11.26438
 Alpha  occ. eigenvalues --   -1.41495  -1.34023  -1.18764  -0.96893  -0.85503
 Alpha  occ. eigenvalues --   -0.72261  -0.69508  -0.67156  -0.63394  -0.61147
 Alpha  occ. eigenvalues --   -0.57108  -0.54186  -0.53043  -0.48398  -0.45985
 Alpha  occ. eigenvalues --   -0.40333
 Alpha virt. eigenvalues --    0.03264   0.04664   0.04938   0.05542   0.07398
 Alpha virt. eigenvalues --    0.07751   0.08191   0.09954   0.10154   0.13085
 Alpha virt. eigenvalues --    0.13640   0.14259   0.14987   0.16633   0.16996

 Mulliken charges:
               1
     1  N   -0.674432
     2  C   -0.182449
     3  C    0.215947
     4  O   -0.565331
     5  O   -0.563350
     6  H    0.307887
     7  H    0.287818
     8  H    0.109054
     9  H    0.182741
    10  H    0.184545
    11  H    0.351351
    12  H    0.346218
 Sum of Mulliken charges =  -0.00000

 Dipole moment (field-independent basis, Debye):
    X=             -1.2980    Y=             -1.1939    Z=              3.3002  Tot=              3.7419
 Quadrupole moment (field-independent basis, Debye-Ang):
   XX=            -33.6555   YY=            -31.8480   ZZ=            -28.4421
   XY=             -0.0432   XZ=             -0.0237   YZ=              0.3715

 Normal termination of Gaussian 09 at Fri Aug 26 06:55:08 2022.
