 Gaussian 09, Revision E.01,
 Gaussian 09:  ES64L-G09RevE.01 30-Nov-2015

 -----
 #P G4
 -----

 --------
 Frag_840
 --------
 Symbolic Z-matrix:
 Charge =  0 Multiplicity = 1

 SCF Done:  E(RB3LYP) =  -379.075601116     A.U. after   14 cycles
 SCF Done:  E(RB3LYP) =  -379.098557830     A.U. after   12 cycles
 SCF Done:  E(RB3LYP) =  -379.101729213     A.U. after   12 cycles
 SCF Done:  E(RB3LYP) =  -379.102688806     A.U. after   11 cycles
 SCF Done:  E(RB3LYP) =  -379.103544208     A.U. after   13 cycles
 SCF Done:  E(RB3LYP) =  -379.103879806     A.U. after   11 cycles
 SCF Done:  E(RB3LYP) =  -379.104124064     A.U. after   12 cycles
 SCF Done:  E(RB3LYP) =  -379.104044720     A.U. after   12 cycles
 SCF Done:  E(RB3LYP) =  -379.104306280     A.U. after   11 cycles
 SCF Done:  E(RB3LYP) =  -379.104343750     A.U. after   11 cycles
 SCF Done:  E(RB3LYP) =  -379.104351838     A.U. after    8 cycles
 SCF Done:  E(RB3LYP) =  -379.104352673     A.U. after    8 cycles
 SCF Done:  E(RB3LYP) =  -379.104352812     A.U. after    7 cycles
 Optimization completed.
    -- Stationary point found.
 Normal termination of Gaussian 09 at Fri Aug 26 08:05:12 2022.

 ----------------------------------------------------------
 #P Geom=AllCheck Guess=TCheck SCRF=Check B3LYP/GTBas3 Freq
 ----------------------------------------------------------

 Structure from the checkpoint file:  "G4.Frag_840.chk"
 --------
 Frag_840
 --------
 Charge =  0 Multiplicity = 1

 SCF Done:  E(RB3LYP) =  -379.104352812     A.U. after    1 cycles

  Exact polarizability:  57.662   0.727  58.366  -0.470   0.702  44.904
 Approx polarizability:  77.804   5.099  91.311   0.838   3.410  66.067

                      1                      2                      3
                      A                      A                      A
 Frequencies --     45.1601               202.1129               246.4989
 Red. masses --      5.4672                 1.1370                 1.7996
 Frc consts  --      0.0066                 0.0274                 0.0644
 IR Inten    --      0.7942                19.0506                 1.0112

                      4                      5                      6
                      A                      A                      A
 Frequencies --    270.9715               279.5719               367.9488
 Red. masses --      1.4374                 3.2715                 2.8219
 Frc consts  --      0.0622                 0.1507                 0.2251
 IR Inten    --      4.9554                 7.6722                 4.9268

                      7                      8                      9
                      A                      A                      A
 Frequencies --    368.9276               399.6007               462.1757
 Red. masses --      1.8646                 2.5779                 2.1349
 Frc consts  --      0.1495                 0.2425                 0.2687
 IR Inten    --     44.8648                13.2422                85.3898

                     10                     11                     12
                      A                      A                      A
 Frequencies --    552.3297               561.5924               582.4494
 Red. masses --      3.0041                 1.2151                 2.7679
 Frc consts  --      0.5400                 0.2258                 0.5532
 IR Inten    --      9.8006                82.0387                60.4744

                     13                     14                     15
                      A                      A                      A
 Frequencies --    733.3378               750.9177               849.8235
 Red. masses --      3.7269                 6.3386                 1.2257
 Frc consts  --      1.1809                 2.1059                 0.5215
 IR Inten    --     12.3926                47.2022                77.5198

                     16                     17                     18
                      A                      A                      A
 Frequencies --    866.0803               913.9485               963.9696
 Red. masses --      1.4761                 1.9633                 1.7924
 Frc consts  --      0.6524                 0.9662                 0.9813
 IR Inten    --     78.8479                23.7188                23.3783

                     19                     20                     21
                      A                      A                      A
 Frequencies --   1059.3481              1087.5072              1107.3793
 Red. masses --      1.6151                 1.8777                 2.0823
 Frc consts  --      1.0679                 1.3084                 1.5045
 IR Inten    --     49.7191               224.1175                 0.9164

                     22                     23                     24
                      A                      A                      A
 Frequencies --   1211.9673              1242.6189              1312.9037
 Red. masses --      2.7321                 1.4752                 1.8363
 Frc consts  --      2.3644                 1.3420                 1.8649
 IR Inten    --     88.6399                97.8382                50.5260

                     25                     26                     27
                      A                      A                      A
 Frequencies --   1383.4458              1418.3409              1440.3997
 Red. masses --      1.2602                 1.4983                 2.5611
 Frc consts  --      1.4211                 1.7758                 3.1307
 IR Inten    --     58.5447                47.8249                10.3584

                     28                     29                     30
                      A                      A                      A
 Frequencies --   1486.3276              1495.0478              1636.5643
 Red. masses --      1.0520                 1.0799                 1.1152
 Frc consts  --      1.3692                 1.4222                 1.7598
 IR Inten    --      2.3614                 2.6999                39.3233

                     31                     32                     33
                      A                      A                      A
 Frequencies --   1745.3804              3045.5445              3121.9327
 Red. masses --      8.4403                 1.0348                 1.1020
 Frc consts  --     15.1491                 5.6550                 6.3279
 IR Inten    --    161.7190                 8.7363                18.4008

                     34                     35                     36
                      A                      A                      A
 Frequencies --   3126.8273              3478.6357              3532.0611
 Red. masses --      1.1025                 1.0485                 1.0747
 Frc consts  --      6.3509                 7.4754                 7.8995
 IR Inten    --     16.3765                 0.3362                 2.4358

                     37                     38                     39
                      A                      A                      A
 Frequencies --   3567.1498              3757.2290              3790.1612
 Red. masses --      1.0930                 1.0641                 1.0647
 Frc consts  --      8.1940                 8.8504                 9.0118
 IR Inten    --      0.8367                52.6675                38.2607

 - Thermochemistry -
 -------------------
 Temperature   298.150 Kelvin.  Pressure   1.00000 Atm.
 Atom     1 has atomic number  6 and mass  12.00000

 Molecular mass:   104.05858 amu.
 Principal axes and moments of inertia in atomic units:
                           1         2         3
     Eigenvalues --   514.50138 747.26491 901.69977
           X            0.99754  -0.06834  -0.01537
           Y            0.06801   0.99747  -0.02077
           Z            0.01675   0.01967   0.99967
 This molecule is an asymmetric top.
 Rotational symmetry number  1.
 Warning -- assumption of classical behavior for rotation
           may cause significant error
 Rotational temperatures (Kelvin)      0.16835     0.11591     0.09606
 Rotational constants (GHZ):           3.50775     2.41513     2.00149
 Zero-point vibrational energy     325768.2 (Joules/Mol)
                                   77.86047 (Kcal/Mol)
 Warning -- explicit consideration of  12 degrees of freedom as
           vibrations may cause significant error
 Vibrational temperatures:     64.98   290.80   354.66   389.87   402.24
          (Kelvin)            529.40   530.80   574.94   664.97   794.68
                              808.01   838.01  1055.11  1080.40  1222.70
                             1246.09  1314.97  1386.94  1524.16  1564.68
                             1593.27  1743.75  1787.85  1888.97  1990.47
                             2040.67  2072.41  2138.49  2151.04  2354.65
                             2511.21  4381.85  4491.76  4498.80  5004.97
                             5081.84  5132.33  5405.81  5453.19

 Zero-point correction=                           0.124079 (Hartree/Particle)
 Thermal correction to Energy=                    0.132066
 Thermal correction to Enthalpy=                  0.133010
 Thermal correction to Gibbs Free Energy=         0.092098
 Sum of electronic and zero-point Energies=           -378.980274
 Sum of electronic and thermal Energies=              -378.972287
 Sum of electronic and thermal Enthalpies=            -378.971343
 Sum of electronic and thermal Free Energies=         -379.012255

                     E (Thermal)             CV                S
                      KCal/Mol        Cal/Mol-Kelvin    Cal/Mol-Kelvin
 Total                   82.872             29.638             86.106
 Electronic               0.000              0.000              0.000
 Translational            0.889              2.981             39.837
 Rotational               0.889              2.981             27.341
 Vibrational             81.095             23.677             18.928
 Vibration     1          0.595              1.979              5.019
 Vibration     2          0.639              1.837              2.114
 Vibration     3          0.661              1.769              1.755
 Vibration     4          0.675              1.727              1.590
 Vibration     5          0.680              1.711              1.536
 Vibration     6          0.741              1.538              1.088
 Vibration     7          0.741              1.536              1.084
 Vibration     8          0.766              1.471              0.964
 Vibration     9          0.820              1.334              0.760
 Vibration    10          0.908              1.135              0.539
 Vibration    11          0.917              1.114              0.521
 Vibration    12          0.939              1.069              0.481

 Optimization completed.
    -- Stationary point found.
 Normal termination of Gaussian 09 at Fri Aug 26 08:05:57 2022.

 -----------------------------------------------------------------
 #P Geom=AllCheck Guess=TCheck SCRF=Check CCSD(T,E4T,FrzG4)/GTBas1
 -----------------------------------------------------------------

 Structure from the checkpoint file:  "G4.Frag_840.chk"
 --------
 Frag_840
 --------
 Charge =  0 Multiplicity = 1

 SCF Done:  E(RHF) =  -376.861849965     A.U. after   13 cycles
 E2 =    -0.1072048039D+01 EUMP2 =    -0.37793389800401D+03
 CCSD(T)
 CCSD(T)= -0.37801385558D+03
 8028\CCSD(T)=-378.0138556\RMSD=6.000e-09\PG=C01 [X(C3H8N2O2)]\\@
 Normal termination of Gaussian 09 at Fri Aug 26 08:10:00 2022.

 ---------------------------------------------------------
 #P Geom=AllCheck Guess=TCheck SCRF=Check MP4=FrzG4/GTBas2
 ---------------------------------------------------------

 Structure from the checkpoint file:  "G4.Frag_840.chk"
 --------
 Frag_840
 --------
 Charge =  0 Multiplicity = 1

 SCF Done:  E(RHF) =  -376.876217378     A.U. after   13 cycles
 E2 =    -0.1090834175D+01 EUMP2 =    -0.37796705155236D+03
 Normal termination of Gaussian 09 at Fri Aug 26 08:11:14 2022.

 ---------------------------------------------------------
 #P Geom=AllCheck Guess=TCheck SCRF=Check MP4=FrzG4/GTBas3
 ---------------------------------------------------------

 Structure from the checkpoint file:  "G4.Frag_840.chk"
 --------
 Frag_840
 --------
 Charge =  0 Multiplicity = 1

 SCF Done:  E(RHF) =  -376.916451971     A.U. after   11 cycles
 E2 =    -0.1313904080D+01 EUMP2 =    -0.37823035605143D+03
 Normal termination of Gaussian 09 at Fri Aug 26 08:18:41 2022.

 -----------------------------------------------------------
 #P Geom=AllCheck Guess=TCheck SCRF=Check MP2=Full/GTLargeXP
 -----------------------------------------------------------

 Structure from the checkpoint file:  "G4.Frag_840.chk"
 --------
 Frag_840
 --------
 Charge =  0 Multiplicity = 1

 SCF Done:  E(RHF) =  -377.019987548     A.U. after   12 cycles
 E2 =    -0.1715492058D+01 EUMP2 =    -0.37873547960606D+03
 Normal termination of Gaussian 09 at Fri Aug 26 08:22:00 2022.
 SCF Done:  E(RHF) =  -377.049794412     A.U. after    8 cycles
 Normal termination of Gaussian 09 at Fri Aug 26 08:24:51 2022.

                         Standard orientation:
 ---------------------------------------------------------------------
 Center     Atomic      Atomic             Coordinates (Angstroms)
 Number     Number       Type             X           Y           Z
 ---------------------------------------------------------------------
      1          6           0        1.368408   -1.204713    0.370718
      2          6           0        0.582847    0.057669    0.007660
      3          7           0        0.914712    0.625850   -1.303241
      4          8           0        0.909217    1.007121    0.997068
      5          6           0       -0.938639   -0.190841    0.001649
      6          7           0       -1.584743   -1.277383   -0.078297
      7          8           0       -1.602301    0.982024    0.086869
      8          1           0        1.063342   -1.596933    1.344485
      9          1           0        2.430053   -0.948662    0.422034
     10          1           0        1.239801   -1.983098   -0.386599
     11          1           0        0.622119    0.002414   -2.050943
     12          1           0        1.924807    0.724877   -1.367658
     13          1           0        0.389135    1.795048    0.794793
     14          1           0       -0.964791   -2.081774   -0.123401
     15          1           0       -2.545273    0.763003    0.086403
 ---------------------------------------------------------------------

 SCF Done:  E(RHF) =  -377.056286424     A.U. after    8 cycles

 The electronic state is 1-A.
 Alpha  occ. eigenvalues --  -20.60032 -20.56533 -15.55951 -15.54648 -11.34829
 Alpha  occ. eigenvalues --  -11.34215 -11.23255  -1.43837  -1.38403  -1.20933
 Alpha  occ. eigenvalues --   -1.18220  -1.00920  -0.90659  -0.79326  -0.75046
 Alpha  occ. eigenvalues --   -0.71000  -0.68739  -0.64419  -0.60885  -0.60043
 Alpha  occ. eigenvalues --   -0.58946  -0.55544  -0.55081  -0.53459  -0.50257
 Alpha  occ. eigenvalues --   -0.43686  -0.42440  -0.41337
 Alpha virt. eigenvalues --    0.03201   0.04318   0.04865   0.05126   0.06519
 Alpha virt. eigenvalues --    0.06939   0.07328   0.07446   0.08467   0.09775
 Alpha virt. eigenvalues --    0.11152   0.12621   0.12845   0.12995   0.13666

 Mulliken charges:
               1
     1  C   -0.580543
     2  C    0.459931
     3  N   -0.728816
     4  O   -0.609850
     5  C    0.459381
     6  N   -0.708252
     7  O   -0.555044
     8  H    0.191232
     9  H    0.192574
    10  H    0.172331
    11  H    0.300744
    12  H    0.302530
    13  H    0.402890
    14  H    0.288510
    15  H    0.412383
 Sum of Mulliken charges =  -0.00000

 Dipole moment (field-independent basis, Debye):
    X=              1.1820    Y=             -0.9590    Z=             -1.1759  Tot=              1.9234
 Quadrupole moment (field-independent basis, Debye-Ang):
   XX=            -41.2922   YY=            -42.3898   ZZ=            -43.6447
   XY=             -5.2556   XZ=             -3.3105   YZ=              1.3261

 Normal termination of Gaussian 09 at Fri Aug 26 08:35:43 2022.
