 Gaussian 09, Revision E.01,
 Gaussian 09:  ES64L-G09RevE.01 30-Nov-2015

 -----
 #P G4
 -----

 --------
 Frag_794
 --------
 Symbolic Z-matrix:
 Charge =  0 Multiplicity = 1

 SCF Done:  E(RB3LYP) =  -307.249906771     A.U. after   14 cycles
 SCF Done:  E(RB3LYP) =  -307.260762103     A.U. after   12 cycles
 SCF Done:  E(RB3LYP) =  -307.261677113     A.U. after   11 cycles
 SCF Done:  E(RB3LYP) =  -307.262458414     A.U. after   11 cycles
 SCF Done:  E(RB3LYP) =  -307.263286436     A.U. after   11 cycles
 SCF Done:  E(RB3LYP) =  -307.263870261     A.U. after   11 cycles
 SCF Done:  E(RB3LYP) =  -307.264231449     A.U. after   10 cycles
 SCF Done:  E(RB3LYP) =  -307.264310511     A.U. after   11 cycles
 SCF Done:  E(RB3LYP) =  -307.264364773     A.U. after   10 cycles
 SCF Done:  E(RB3LYP) =  -307.264377153     A.U. after    8 cycles
 SCF Done:  E(RB3LYP) =  -307.264379663     A.U. after    8 cycles
 SCF Done:  E(RB3LYP) =  -307.264380398     A.U. after    7 cycles
 SCF Done:  E(RB3LYP) =  -307.264380316     A.U. after    7 cycles
 Optimization completed.
    -- Stationary point found.
 Normal termination of Gaussian 09 at Sat Aug 20 15:44:11 2022.

 ----------------------------------------------------------
 #P Geom=AllCheck Guess=TCheck SCRF=Check B3LYP/GTBas3 Freq
 ----------------------------------------------------------

 Structure from the checkpoint file:  "G4.Frag_794.chk"
 --------
 Frag_794
 --------
 Charge =  0 Multiplicity = 1

 SCF Done:  E(RB3LYP) =  -307.264380316     A.U. after    1 cycles

  Exact polarizability:  76.698   5.043  76.360  -0.184  -1.429  55.268
 Approx polarizability: 104.021   9.281 118.900  -1.159  -1.877  78.202

                      1                      2                      3
                      A                      A                      A
 Frequencies --     76.2101               206.4277               242.6513
 Red. masses --      3.1016                 1.1231                 1.3787
 Frc consts  --      0.0106                 0.0282                 0.0478
 IR Inten    --      1.1808                 0.6830                 7.8297

                      4                      5                      6
                      A                      A                      A
 Frequencies --    269.8336               285.8762               297.0026
 Red. masses --      1.3278                 1.1148                 2.4615
 Frc consts  --      0.0570                 0.0537                 0.1279
 IR Inten    --      4.9492                10.2138                 5.9362

                      7                      8                      9
                      A                      A                      A
 Frequencies --    327.3144               349.8336               403.1212
 Red. masses --      1.1640                 2.3757                 2.8870
 Frc consts  --      0.0735                 0.1713                 0.2764
 IR Inten    --     45.9404                 1.6770                 2.1888

                     10                     11                     12
                      A                      A                      A
 Frequencies --    421.3088               494.7486               503.8871
 Red. masses --      2.5357                 2.9529                 2.3213
 Frc consts  --      0.2652                 0.4259                 0.3472
 IR Inten    --      9.8532                 1.5248                 8.5162

                     13                     14                     15
                      A                      A                      A
 Frequencies --    625.5250               691.8352               703.9594
 Red. masses --      1.9247                 2.8345                 1.3610
 Frc consts  --      0.4437                 0.7993                 0.3974
 IR Inten    --    104.0774                 5.2586                67.8104

                     16                     17                     18
                      A                      A                      A
 Frequencies --    776.8755               842.5482               865.1807
 Red. masses --      1.4088                 1.4785                 2.1634
 Frc consts  --      0.5010                 0.6184                 0.9541
 IR Inten    --     36.9064                74.9174                36.0347

                     19                     20                     21
                      A                      A                      A
 Frequencies --    918.5320               922.1381               974.1593
 Red. masses --      1.4900                 1.5603                 1.6153
 Frc consts  --      0.7407                 0.7817                 0.9032
 IR Inten    --     68.8873                 0.4345                 3.3395

                     22                     23                     24
                      A                      A                      A
 Frequencies --    994.2788              1026.1070              1088.5563
 Red. masses --      1.5768                 1.3219                 1.5444
 Frc consts  --      0.9184                 0.8200                 1.0782
 IR Inten    --      4.4986                 3.7326                 7.6276

                     25                     26                     27
                      A                      A                      A
 Frequencies --   1130.0171              1193.4765              1246.1302
 Red. masses --      1.4890                 2.6213                 2.6163
 Frc consts  --      1.1202                 2.1999                 2.3937
 IR Inten    --      2.4464                31.8796                24.6284

                     28                     29                     30
                      A                      A                      A
 Frequencies --   1313.0079              1365.0262              1394.3702
 Red. masses --      1.8237                 2.5767                 1.2258
 Frc consts  --      1.8524                 2.8288                 1.4042
 IR Inten    --      7.9296                18.8417                 6.2503

                     31                     32                     33
                      A                      A                      A
 Frequencies --   1417.6846              1440.3480              1478.1138
 Red. masses --      1.2596                 1.1792                 1.0468
 Frc consts  --      1.4915                 1.4413                 1.3475
 IR Inten    --      1.9550                 4.3144                 0.4238

                     34                     35                     36
                      A                      A                      A
 Frequencies --   1482.6836              1497.0242              1506.0316
 Red. masses --      1.0536                 1.0563                 1.0843
 Frc consts  --      1.3647                 1.3947                 1.4490
 IR Inten    --      0.4654                 2.7647                 6.0106

                     37                     38                     39
                      A                      A                      A
 Frequencies --   1647.3531              1653.5656              1711.8116
 Red. masses --      1.1240                 1.1393                 4.6330
 Frc consts  --      1.7971                 1.8354                 7.9988
 IR Inten    --     31.0584                56.4141                75.0478

                     40                     41                     42
                      A                      A                      A
 Frequencies --   3029.1383              3035.5902              3094.9092
 Red. masses --      1.0363                 1.0374                 1.0991
 Frc consts  --      5.6022                 5.6324                 6.2026
 IR Inten    --     18.4157                27.4916                11.4961

                     43                     44                     45
                      A                      A                      A
 Frequencies --   3101.1516              3114.3160              3130.4120
 Red. masses --      1.1009                 1.0997                 1.1014
 Frc consts  --      6.2377                 6.2842                 6.3590
 IR Inten    --     43.2760                32.7727                19.1171

                     46                     47                     48
                      A                      A                      A
 Frequencies --   3155.7561              3274.6106              3477.1392
 Red. masses --      1.0665                 1.1076                 1.0490
 Frc consts  --      6.2575                 6.9974                 7.4727
 IR Inten    --     16.2391                 2.4867                 0.5369

                     49                     50                     51
                      A                      A                      A
 Frequencies --   3542.1913              3557.1409              3634.9897
 Red. masses --      1.0474                 1.0921                 1.0960
 Frc consts  --      7.7429                 8.1420                 8.5326
 IR Inten    --      2.8299                 0.1069                 4.3971

 - Thermochemistry -
 -------------------
 Temperature   298.150 Kelvin.  Pressure   1.00000 Atm.
 Atom     1 has atomic number  6 and mass  12.00000

 Molecular mass:   100.10005 amu.
 Principal axes and moments of inertia in atomic units:
                           1         2         3
     Eigenvalues --   558.51404 772.91476 935.17086
           X            0.99920   0.03859   0.01019
           Y           -0.03826   0.99878  -0.03126
           Z           -0.01139   0.03084   0.99946
 This molecule is an asymmetric top.
 Rotational symmetry number  1.
 Warning -- assumption of classical behavior for rotation
           may cause significant error
 Rotational temperatures (Kelvin)      0.15508     0.11206     0.09262
 Rotational constants (GHZ):           3.23133     2.33498     1.92985
 Zero-point vibrational energy     448192.3 (Joules/Mol)
                                  107.12053 (Kcal/Mol)
 Warning -- explicit consideration of  12 degrees of freedom as
           vibrations may cause significant error
 Vibrational temperatures:    109.65   297.00   349.12   388.23   411.31
          (Kelvin)            427.32   470.93   503.33   580.00   606.17
                              711.83   724.98   899.99   995.40  1012.84
                             1117.75  1212.24  1244.80  1321.56  1326.75
                             1401.60  1430.54  1476.34  1566.19  1625.84
                             1717.14  1792.90  1889.12  1963.97  2006.19
                             2039.73  2072.34  2126.67  2133.25  2153.88
                             2166.84  2370.17  2379.11  2462.91  4358.25
                             4367.53  4452.88  4461.86  4480.80  4503.96
                             4540.42  4711.43  5002.82  5096.42  5117.93
                             5229.93

 Zero-point correction=                           0.170707 (Hartree/Particle)
 Thermal correction to Energy=                    0.179430
 Thermal correction to Enthalpy=                  0.180374
 Thermal correction to Gibbs Free Energy=         0.138716
 Sum of electronic and zero-point Energies=           -307.093673
 Sum of electronic and thermal Energies=              -307.084951
 Sum of electronic and thermal Enthalpies=            -307.084007
 Sum of electronic and thermal Free Energies=         -307.125664

                     E (Thermal)             CV                S
                      KCal/Mol        Cal/Mol-Kelvin    Cal/Mol-Kelvin
 Total                  112.594             33.704             87.675
 Electronic               0.000              0.000              0.000
 Translational            0.889              2.981             39.721
 Rotational               0.889              2.981             27.492
 Vibrational            110.816             27.742             20.462
 Vibration     1          0.599              1.965              3.986
 Vibration     2          0.641              1.831              2.075
 Vibration     3          0.659              1.775              1.783
 Vibration     4          0.674              1.729              1.597
 Vibration     5          0.684              1.700              1.498
 Vibration     6          0.691              1.679              1.434
 Vibration     7          0.711              1.621              1.273
 Vibration     8          0.727              1.576              1.167
 Vibration     9          0.769              1.463              0.951
 Vibration    10          0.784              1.424              0.888
 Vibration    11          0.850              1.262              0.671
 Vibration    12          0.859              1.241              0.648

 Optimization completed.
    -- Stationary point found.
 Normal termination of Gaussian 09 at Sat Aug 20 15:52:04 2022.

 -----------------------------------------------------------------
 #P Geom=AllCheck Guess=TCheck SCRF=Check CCSD(T,E4T,FrzG4)/GTBas1
 -----------------------------------------------------------------

 Structure from the checkpoint file:  "G4.Frag_794.chk"
 --------
 Frag_794
 --------
 Charge =  0 Multiplicity = 1

 SCF Done:  E(RHF) =  -305.187565553     A.U. after   12 cycles
 E2 =    -0.9834604949D+00 EUMP2 =    -0.30617102604764D+03
 CCSD(T)
 CCSD(T)= -0.30627403545D+03
 306.2723962\MP4SDQ=-306.2393166\CCSD=-306.2405785\CCSD(T)=-306.2740355
 Normal termination of Gaussian 09 at Sat Aug 20 16:10:14 2022.

 ---------------------------------------------------------
 #P Geom=AllCheck Guess=TCheck SCRF=Check MP4=FrzG4/GTBas2
 ---------------------------------------------------------

 Structure from the checkpoint file:  "G4.Frag_794.chk"
 --------
 Frag_794
 --------
 Charge =  0 Multiplicity = 1

 SCF Done:  E(RHF) =  -305.197680557     A.U. after   13 cycles
 E2 =    -0.9978890029D+00 EUMP2 =    -0.30619556955951D+03
 Normal termination of Gaussian 09 at Sat Aug 20 16:32:49 2022.

 ---------------------------------------------------------
 #P Geom=AllCheck Guess=TCheck SCRF=Check MP4=FrzG4/GTBas3
 ---------------------------------------------------------

 Structure from the checkpoint file:  "G4.Frag_794.chk"
 --------
 Frag_794
 --------
 Charge =  0 Multiplicity = 1

 SCF Done:  E(RHF) =  -305.232832897     A.U. after   11 cycles
 E2 =    -0.1211430076D+01 EUMP2 =    -0.30644426297286D+03
 Normal termination of Gaussian 09 at Sat Aug 20 22:34:23 2022.

 -----------------------------------------------------------
 #P Geom=AllCheck Guess=TCheck SCRF=Check MP2=Full/GTLargeXP
 -----------------------------------------------------------

 Structure from the checkpoint file:  "G4.Frag_794.chk"
 --------
 Frag_794
 --------
 Charge =  0 Multiplicity = 1

 SCF Done:  E(RHF) =  -305.305411963     A.U. after   12 cycles
 E2 =    -0.1591161187D+01 EUMP2 =    -0.30689657314990D+03
 Normal termination of Gaussian 09 at Sat Aug 20 22:49:48 2022.
 SCF Done:  E(RHF) =  -305.329190436     A.U. after    9 cycles
 Normal termination of Gaussian 09 at Sat Aug 20 23:02:24 2022.

                         Standard orientation:
 ---------------------------------------------------------------------
 Center     Atomic      Atomic             Coordinates (Angstroms)
 Number     Number       Type             X           Y           Z
 ---------------------------------------------------------------------
      1          6           0        1.649239    1.236581    0.011453
      2          6           0        0.956364    0.092990   -0.004017
      3          7           0        1.580974   -1.163977   -0.092286
      4          6           0       -0.575096    0.038212   -0.002177
      5          6           0       -1.077614   -0.904596   -1.121602
      6          6           0       -1.069410   -0.463531    1.370841
      7          7           0       -1.103391    1.401448   -0.168885
      8          1           0        1.148435    2.192017    0.026168
      9          1           0        2.734893    1.232709    0.018404
     10          1           0        1.123485   -1.896943    0.432849
     11          1           0        2.564119   -1.132258    0.142742
     12          1           0       -0.722873   -1.932267   -1.006132
     13          1           0       -0.737026   -0.549205   -2.099350
     14          1           0       -2.173197   -0.921732   -1.123101
     15          1           0       -0.749332    0.223875    2.156998
     16          1           0       -2.163895   -0.521623    1.382744
     17          1           0       -0.691712   -1.464059    1.602286
     18          1           0       -2.118786    1.364327   -0.138290
     19          1           0       -0.858090    1.744918   -1.094112
 ---------------------------------------------------------------------

 SCF Done:  E(RHF) =  -305.334234394     A.U. after    8 cycles

 The electronic state is 1-A.
 Alpha  occ. eigenvalues --  -15.55503 -15.53660 -11.27171 -11.26335 -11.21864
 Alpha  occ. eigenvalues --  -11.21499 -11.18841  -1.22206  -1.17966  -1.01897
 Alpha  occ. eigenvalues --   -0.98383  -0.93721  -0.82559  -0.72551  -0.69414
 Alpha  occ. eigenvalues --   -0.65937  -0.62343  -0.59195  -0.58524  -0.56341
 Alpha  occ. eigenvalues --   -0.55652  -0.54184  -0.51678  -0.49829  -0.46914
 Alpha  occ. eigenvalues --   -0.46181  -0.39370  -0.31276
 Alpha virt. eigenvalues --    0.03139   0.04280   0.04388   0.04824   0.06458
 Alpha virt. eigenvalues --    0.06592   0.06911   0.07285   0.07451   0.09287
 Alpha virt. eigenvalues --    0.09620   0.09952   0.10128   0.10650   0.11807

 Mulliken charges:
               1
     1  C   -0.569901
     2  C    0.204630
     3  N   -0.757495
     4  C    0.460721
     5  C   -0.551354
     6  C   -0.569929
     7  N   -0.806346
     8  H    0.211562
     9  H    0.154587
    10  H    0.306401
    11  H    0.307012
    12  H    0.171514
    13  H    0.174294
    14  H    0.162131
    15  H    0.193877
    16  H    0.160565
    17  H    0.155526
    18  H    0.287788
    19  H    0.304416
 Sum of Mulliken charges =  -0.00000

 Dipole moment (field-independent basis, Debye):
    X=             -0.7920    Y=             -1.5424    Z=              0.1666  Tot=              1.7418
 Quadrupole moment (field-independent basis, Debye-Ang):
   XX=            -41.0445   YY=            -46.3665   ZZ=            -47.6058
   XY=             -1.7933   XZ=              2.5481   YZ=             -4.3790

 Normal termination of Gaussian 09 at Sun Aug 21 04:36:40 2022.
