 Gaussian 09, Revision E.01,
 Gaussian 09:  ES64L-G09RevE.01 30-Nov-2015

 -----
 #P G4
 -----

 --------
 Frag_586
 --------
 Symbolic Z-matrix:
 Charge =  0 Multiplicity = 1

 SCF Done:  E(RB3LYP) =  -246.321766642     A.U. after   12 cycles
 SCF Done:  E(RB3LYP) =  -246.327779016     A.U. after   11 cycles
 SCF Done:  E(RB3LYP) =  -246.328296675     A.U. after   10 cycles
 SCF Done:  E(RB3LYP) =  -246.328436321     A.U. after   10 cycles
 SCF Done:  E(RB3LYP) =  -246.328453401     A.U. after    8 cycles
 SCF Done:  E(RB3LYP) =  -246.328455409     A.U. after    7 cycles
 Optimization completed.
    -- Stationary point found.
 Normal termination of Gaussian 09 at Sun Aug 21 23:49:39 2022.

 ----------------------------------------------------------
 #P Geom=AllCheck Guess=TCheck SCRF=Check B3LYP/GTBas3 Freq
 ----------------------------------------------------------

 Structure from the checkpoint file:  "G4.Frag_586.chk"
 --------
 Frag_586
 --------
 Charge =  0 Multiplicity = 1

 SCF Done:  E(RB3LYP) =  -246.328455409     A.U. after    1 cycles

  Exact polarizability:  28.806  -0.000  28.172   0.000   0.340  26.827
 Approx polarizability:  40.196  -0.001  36.976  -0.000  -0.462  38.233

                      1                      2                      3
                      A                      A                      A
 Frequencies --    216.0297               382.0337               439.2719
 Red. masses --      1.1263                 1.3267                 1.4178
 Frc consts  --      0.0310                 0.1141                 0.1612
 IR Inten    --      1.5742                22.4894                80.4441

                      4                      5                      6
                      A                      A                      A
 Frequencies --    519.1302               536.4128               607.3589
 Red. masses --      1.9123                 2.7889                 2.5496
 Frc consts  --      0.3036                 0.4728                 0.5541
 IR Inten    --     61.3518                95.0173                15.7914

                      7                      8                      9
                      A                      A                      A
 Frequencies --    882.7867               965.1707              1017.5855
 Red. masses --      1.3810                 3.8680                 2.7422
 Frc consts  --      0.6341                 2.1230                 1.6730
 IR Inten    --    117.9389                71.7787               141.3228

                     10                     11                     12
                      A                      A                      A
 Frequencies --   1119.6508              1187.5475              1305.6371
 Red. masses --      3.2144                 1.1614                 1.5379
 Frc consts  --      2.3742                 0.9650                 1.5447
 IR Inten    --    123.9157               174.7415                 4.2675

                     13                     14                     15
                      A                      A                      A
 Frequencies --   1317.2555              1450.3281              1454.1996
 Red. masses --      1.4373                 1.1687                 1.3779
 Frc consts  --      1.4694                 1.4483                 1.7167
 IR Inten    --      7.3226                56.2276                75.5705

                     16                     17                     18
                      A                      A                      A
 Frequencies --   1636.9035              3032.5213              3501.7594
 Red. masses --      1.1179                 1.0856                 1.0488
 Frc consts  --      1.7649                 5.8822                 7.5774
 IR Inten    --     49.0227                58.4485                 1.2580

                     19                     20                     21
                      A                      A                      A
 Frequencies --   3588.2417              3765.4544              3767.8296
 Red. masses --      1.0933                 1.0647                 1.0645
 Frc consts  --      8.2938                 8.8946                 8.9035
 IR Inten    --      2.7870                 4.7918                26.1215

 - Thermochemistry -
 -------------------
 Temperature   298.150 Kelvin.  Pressure   1.00000 Atm.
 Atom     1 has atomic number  7 and mass  14.00307

 Molecular mass:    63.03203 amu.
 Principal axes and moments of inertia in atomic units:
                           1         2         3
     Eigenvalues --   185.44286 196.84412 338.26841
           X            1.00000   0.00020   0.00001
           Y           -0.00020   0.99951   0.03122
           Z           -0.00000  -0.03122   0.99951
 This molecule is an asymmetric top.
 Rotational symmetry number  1.
 Rotational temperatures (Kelvin)      0.46706     0.44001     0.25605
 Rotational constants (GHZ):           9.73206     9.16838     5.33523
 Zero-point vibrational energy     195548.2 (Joules/Mol)
                                   46.73714 (Kcal/Mol)
 Warning -- explicit consideration of   6 degrees of freedom as
           vibrations may cause significant error
 Vibrational temperatures:    310.82   549.66   632.01   746.91   771.78
          (Kelvin)            873.85  1270.13  1388.66  1464.08  1610.93
                             1708.61  1878.52  1895.23  2086.70  2092.27
                             2355.14  4363.12  5038.24  5162.67  5417.64
                             5421.06

 Zero-point correction=                           0.074480 (Hartree/Particle)
 Thermal correction to Energy=                    0.079225
 Thermal correction to Enthalpy=                  0.080169
 Thermal correction to Gibbs Free Energy=         0.047681
 Sum of electronic and zero-point Energies=           -246.253975
 Sum of electronic and thermal Energies=              -246.249230
 Sum of electronic and thermal Enthalpies=            -246.248286
 Sum of electronic and thermal Free Energies=         -246.280774

                     E (Thermal)             CV                S
                      KCal/Mol        Cal/Mol-Kelvin    Cal/Mol-Kelvin
 Total                   49.715             16.349             68.377
 Electronic               0.000              0.000              0.000
 Translational            0.889              2.981             38.342
 Rotational               0.889              2.981             24.027
 Vibrational             47.937             10.387              6.007
 Vibration     1          0.645              1.817              1.992
 Vibration     2          0.751              1.508              1.031
 Vibration     3          0.799              1.385              0.829
 Vibration     4          0.874              1.208              0.612
 Vibration     5          0.891              1.169              0.573
 Vibration     6          0.966              1.016              0.437

 Optimization completed.
    -- Stationary point found.
 Normal termination of Gaussian 09 at Sun Aug 21 23:50:10 2022.

 -----------------------------------------------------------------
 #P Geom=AllCheck Guess=TCheck SCRF=Check CCSD(T,E4T,FrzG4)/GTBas1
 -----------------------------------------------------------------

 Structure from the checkpoint file:  "G4.Frag_586.chk"
 --------
 Frag_586
 --------
 Charge =  0 Multiplicity = 1

 SCF Done:  E(RHF) =  -244.936598773     A.U. after   11 cycles
 E2 =    -0.6524263095D+00 EUMP2 =    -0.24558902508213D+03
 CCSD(T)
 CCSD(T)= -0.24563232293D+03
 7168\CCSD=-245.6168779\CCSD(T)=-245.6323229\RMSD=6.850e-09\PG=C01 [X(C
 Normal termination of Gaussian 09 at Sun Aug 21 23:50:40 2022.

 ---------------------------------------------------------
 #P Geom=AllCheck Guess=TCheck SCRF=Check MP4=FrzG4/GTBas2
 ---------------------------------------------------------

 Structure from the checkpoint file:  "G4.Frag_586.chk"
 --------
 Frag_586
 --------
 Charge =  0 Multiplicity = 1

 SCF Done:  E(RHF) =  -244.947725165     A.U. after   11 cycles
 E2 =    -0.6663049218D+00 EUMP2 =    -0.24561403008724D+03
 Normal termination of Gaussian 09 at Sun Aug 21 23:50:54 2022.

 ---------------------------------------------------------
 #P Geom=AllCheck Guess=TCheck SCRF=Check MP4=FrzG4/GTBas3
 ---------------------------------------------------------

 Structure from the checkpoint file:  "G4.Frag_586.chk"
 --------
 Frag_586
 --------
 Charge =  0 Multiplicity = 1

 SCF Done:  E(RHF) =  -244.974752469     A.U. after   11 cycles
 E2 =    -0.8110082134D+00 EUMP2 =    -0.24578576068212D+03
 Normal termination of Gaussian 09 at Sun Aug 21 23:57:52 2022.

 -----------------------------------------------------------
 #P Geom=AllCheck Guess=TCheck SCRF=Check MP2=Full/GTLargeXP
 -----------------------------------------------------------

 Structure from the checkpoint file:  "G4.Frag_586.chk"
 --------
 Frag_586
 --------
 Charge =  0 Multiplicity = 1

 SCF Done:  E(RHF) =  -245.049566404     A.U. after   11 cycles
 E2 =    -0.1053397088D+01 EUMP2 =    -0.24610296349210D+03
 Normal termination of Gaussian 09 at Sun Aug 21 23:58:36 2022.
 SCF Done:  E(RHF) =  -245.069919662     A.U. after    8 cycles
 Normal termination of Gaussian 09 at Sun Aug 21 23:59:56 2022.

                         Standard orientation:
 ---------------------------------------------------------------------
 Center     Atomic      Atomic             Coordinates (Angstroms)
 Number     Number       Type             X           Y           Z
 ---------------------------------------------------------------------
      1          7           0        0.000308    1.288653   -0.179233
      2          6           0       -0.000014   -0.057880    0.362691
      3          8           0       -1.175719   -0.697192   -0.043863
      4          8           0        1.175383   -0.697753   -0.043867
      5          1           0        0.822043    1.792594    0.139588
      6          1           0       -0.821258    1.792936    0.139482
      7          1           0       -0.000038   -0.132442    1.458328
      8          1           0       -1.297033   -0.483186   -0.978562
      9          1           0        1.296901   -0.483625   -0.978511
 ---------------------------------------------------------------------

 SCF Done:  E(RHF) =  -245.074537661     A.U. after    8 cycles

 The electronic state is 1-A.
 Alpha  occ. eigenvalues --  -20.56663 -20.56661 -15.56414 -11.36708  -1.42552
 Alpha  occ. eigenvalues --   -1.34461  -1.18092  -0.88832  -0.72644  -0.72476
 Alpha  occ. eigenvalues --   -0.66621  -0.65522  -0.55965  -0.54776  -0.49803
 Alpha  occ. eigenvalues --   -0.48334  -0.43456
 Alpha virt. eigenvalues --    0.04194   0.04950   0.05590   0.06071   0.09426
 Alpha virt. eigenvalues --    0.09821   0.10264   0.11313   0.13485   0.15911
 Alpha virt. eigenvalues --    0.16277   0.17651   0.18013   0.19041   0.21125

 Mulliken charges:
               1
     1  N   -0.716261
     2  C    0.335942
     3  O   -0.563196
     4  O   -0.563203
     5  H    0.309010
     6  H    0.309016
     7  H    0.164484
     8  H    0.362101
     9  H    0.362106
 Sum of Mulliken charges =  -0.00000

 Dipole moment (field-independent basis, Debye):
    X=              0.0006    Y=              2.4247    Z=             -0.6914  Tot=              2.5213
 Quadrupole moment (field-independent basis, Debye-Ang):
   XX=            -25.8740   YY=            -24.9729   ZZ=            -21.3929
   XY=              0.0004   XZ=              0.0009   YZ=              3.2661

 Normal termination of Gaussian 09 at Mon Aug 22 00:40:29 2022.
