 Gaussian 09, Revision E.01,
 Gaussian 09:  ES64L-G09RevE.01 30-Nov-2015

 -----
 #P G4
 -----

 --------
 Frag_507
 --------
 Symbolic Z-matrix:
 Charge =  0 Multiplicity = 1

 SCF Done:  E(RB3LYP) =  -267.167336498     A.U. after   14 cycles
 SCF Done:  E(RB3LYP) =  -267.184599908     A.U. after   12 cycles
 SCF Done:  E(RB3LYP) =  -267.185391533     A.U. after   11 cycles
 SCF Done:  E(RB3LYP) =  -267.185445498     A.U. after    9 cycles
 SCF Done:  E(RB3LYP) =  -267.185449129     A.U. after    8 cycles
 SCF Done:  E(RB3LYP) =  -267.185447237     A.U. after    8 cycles
 SCF Done:  E(RB3LYP) =  -267.185449369     A.U. after    8 cycles
 Optimization completed.
    -- Stationary point found.
 Normal termination of Gaussian 09 at Fri Aug 26 14:41:34 2022.

 ----------------------------------------------------------
 #P Geom=AllCheck Guess=TCheck SCRF=Check B3LYP/GTBas3 Freq
 ----------------------------------------------------------

 Structure from the checkpoint file:  "G4.Frag_507.chk"
 --------
 Frag_507
 --------
 Charge =  0 Multiplicity = 1

 SCF Done:  E(RB3LYP) =  -267.185449369     A.U. after    1 cycles

  Exact polarizability:  55.204  -4.108  39.901   0.000  -0.000  19.830
 Approx polarizability:  85.110 -17.268  63.225   0.000  -0.000  29.892

                      1                      2                      3
                      A                      A                      A
 Frequencies --    116.3321               280.8860               487.8048
 Red. masses --      2.7256                 3.5756                 1.4022
 Frc consts  --      0.0217                 0.1662                 0.1966
 IR Inten    --      0.0316                 0.8595                10.3521

                      4                      5                      6
                      A                      A                      A
 Frequencies --    532.0973               583.6137               609.1233
 Red. masses --      5.3311                 3.2412                 1.1871
 Frc consts  --      0.8893                 0.6504                 0.2595
 IR Inten    --      6.5179                41.0953                83.6625

                      7                      8                      9
                      A                      A                      A
 Frequencies --    838.4434               843.7977              1005.0772
 Red. masses --      3.1033                 4.0246                 1.3683
 Frc consts  --      1.2854                 1.6883                 0.8144
 IR Inten    --      6.8221                33.4106                23.2742

                     10                     11                     12
                      A                      A                      A
 Frequencies --   1033.5662              1044.3671              1210.6452
 Red. masses --      1.6343                 1.0899                 1.7992
 Frc consts  --      1.0287                 0.7004                 1.5537
 IR Inten    --     73.3832                16.2119               165.3547

                     13                     14                     15
                      A                      A                      A
 Frequencies --   1310.2688              1373.7738              1450.6311
 Red. masses --      1.3197                 2.1788                 1.3380
 Frc consts  --      1.3349                 2.4227                 1.6589
 IR Inten    --      1.1267                46.1289                29.4672

                     16                     17                     18
                      A                      A                      A
 Frequencies --   1691.8702              1822.4210              3161.2331
 Red. masses --      4.8146                 9.3733                 1.0598
 Frc consts  --      8.1197                18.3416                 6.2401
 IR Inten    --      9.2631               295.2880                 3.5741

                     19                     20                     21
                      A                      A                      A
 Frequencies --   3202.0472              3252.6056              3766.0894
 Red. masses --      1.0936                 1.1148                 1.0642
 Frc consts  --      6.6065                 6.9488                 8.8935
 IR Inten    --      2.0128                 3.0719                64.8104

 - Thermochemistry -
 -------------------
 Temperature   298.150 Kelvin.  Pressure   1.00000 Atm.
 Atom     1 has atomic number  6 and mass  12.00000

 Molecular mass:    72.02113 amu.
 Principal axes and moments of inertia in atomic units:
                           1         2         3
     Eigenvalues --   167.54042 412.56039 580.10082
           X            0.99936   0.03576   0.00000
           Y           -0.03576   0.99936  -0.00000
           Z           -0.00000   0.00000   1.00000
 This molecule is an asymmetric top.
 Rotational symmetry number  1.
 Rotational temperatures (Kelvin)      0.51697     0.20994     0.14931
 Rotational constants (GHZ):          10.77197     4.37449     3.11108
 Zero-point vibrational energy     177147.2 (Joules/Mol)
                                   42.33919 (Kcal/Mol)
 Warning -- explicit consideration of   6 degrees of freedom as
           vibrations may cause significant error
 Vibrational temperatures:    167.38   404.13   701.84   765.57   839.69
          (Kelvin)            876.39  1206.33  1214.04  1446.08  1487.07
                             1502.61  1741.85  1885.18  1976.55  2087.13
                             2434.22  2622.05  4548.30  4607.03  4679.77
                             5418.56

 Zero-point correction=                           0.067472 (Hartree/Particle)
 Thermal correction to Energy=                    0.072490
 Thermal correction to Enthalpy=                  0.073435
 Thermal correction to Gibbs Free Energy=         0.039451
 Sum of electronic and zero-point Energies=           -267.117978
 Sum of electronic and thermal Energies=              -267.112959
 Sum of electronic and thermal Enthalpies=            -267.112015
 Sum of electronic and thermal Free Energies=         -267.145998

                     E (Thermal)             CV                S
                      KCal/Mol        Cal/Mol-Kelvin    Cal/Mol-Kelvin
 Total                   45.488             16.964             71.524
 Electronic               0.000              0.000              0.000
 Translational            0.889              2.981             38.740
 Rotational               0.889              2.981             25.198
 Vibrational             43.711             11.003              7.586
 Vibration     1          0.608              1.936              3.160
 Vibration     2          0.681              1.709              1.528
 Vibration     3          0.844              1.277              0.689
 Vibration     4          0.887              1.179              0.583
 Vibration     5          0.940              1.067              0.479
 Vibration     6          0.968              1.013              0.434

 Optimization completed.
    -- Stationary point found.
 Normal termination of Gaussian 09 at Fri Aug 26 14:41:51 2022.

 -----------------------------------------------------------------
 #P Geom=AllCheck Guess=TCheck SCRF=Check CCSD(T,E4T,FrzG4)/GTBas1
 -----------------------------------------------------------------

 Structure from the checkpoint file:  "G4.Frag_507.chk"
 --------
 Frag_507
 --------
 Charge =  0 Multiplicity = 1

 SCF Done:  E(RHF) =  -265.651571875     A.U. after   13 cycles
 E2 =    -0.7273619816D+00 EUMP2 =    -0.26637893385669D+03
 CCSD(T)
 CCSD(T)= -0.26643237446D+03
 \CCSD=-266.4067746\CCSD(T)=-266.4323745\RMSD=6.578e-09\PG=C01 [X(C3H4O
 Normal termination of Gaussian 09 at Fri Aug 26 14:42:33 2022.

 ---------------------------------------------------------
 #P Geom=AllCheck Guess=TCheck SCRF=Check MP4=FrzG4/GTBas2
 ---------------------------------------------------------

 Structure from the checkpoint file:  "G4.Frag_507.chk"
 --------
 Frag_507
 --------
 Charge =  0 Multiplicity = 1

 SCF Done:  E(RHF) =  -265.660922473     A.U. after   12 cycles
 E2 =    -0.7375368990D+00 EUMP2 =    -0.26639845937236D+03
 Normal termination of Gaussian 09 at Fri Aug 26 14:42:46 2022.

 ---------------------------------------------------------
 #P Geom=AllCheck Guess=TCheck SCRF=Check MP4=FrzG4/GTBas3
 ---------------------------------------------------------

 Structure from the checkpoint file:  "G4.Frag_507.chk"
 --------
 Frag_507
 --------
 Charge =  0 Multiplicity = 1

 SCF Done:  E(RHF) =  -265.682642309     A.U. after   12 cycles
 E2 =    -0.8871623331D+00 EUMP2 =    -0.26656980464196D+03
 Normal termination of Gaussian 09 at Fri Aug 26 14:43:44 2022.

 -----------------------------------------------------------
 #P Geom=AllCheck Guess=TCheck SCRF=Check MP2=Full/GTLargeXP
 -----------------------------------------------------------

 Structure from the checkpoint file:  "G4.Frag_507.chk"
 --------
 Frag_507
 --------
 Charge =  0 Multiplicity = 1

 SCF Done:  E(RHF) =  -265.754964834     A.U. after   12 cycles
 E2 =    -0.1167476631D+01 EUMP2 =    -0.26692244146542D+03
 Normal termination of Gaussian 09 at Fri Aug 26 14:44:20 2022.
 SCF Done:  E(RHF) =  -265.776588119     A.U. after   10 cycles
 Normal termination of Gaussian 09 at Fri Aug 26 14:45:03 2022.

                         Standard orientation:
 ---------------------------------------------------------------------
 Center     Atomic      Atomic             Coordinates (Angstroms)
 Number     Number       Type             X           Y           Z
 ---------------------------------------------------------------------
      1          6           0       -1.922624    0.114426   -0.000001
      2          6           0       -0.829089   -0.644689    0.000001
      3          6           0        0.554475   -0.121483   -0.000001
      4          8           0        1.541007   -0.818134   -0.000001
      5          8           0        0.618228    1.232520    0.000001
      6          1           0       -2.914421   -0.324932    0.000000
      7          1           0       -1.858848    1.196404   -0.000004
      8          1           0       -0.878268   -1.728005    0.000004
      9          1           0        1.561089    1.451926    0.000000
 ---------------------------------------------------------------------

 SCF Done:  E(RHF) =  -265.781011617     A.U. after    7 cycles

 The electronic state is 1-A.
 Alpha  occ. eigenvalues --  -20.61186 -20.54948 -11.39042 -11.26643 -11.25670
 Alpha  occ. eigenvalues --   -1.46663  -1.36303  -1.08565  -0.89880  -0.79892
 Alpha  occ. eigenvalues --   -0.71119  -0.68808  -0.64158  -0.63532  -0.59506
 Alpha  occ. eigenvalues --   -0.55200  -0.49234  -0.46132  -0.40466
 Alpha virt. eigenvalues --    0.03605   0.04352   0.04957   0.05491   0.06938
 Alpha virt. eigenvalues --    0.07087   0.07622   0.08561   0.09577   0.10337
 Alpha virt. eigenvalues --    0.10369   0.13996   0.15383   0.15526   0.16028

 Mulliken charges:
               1
     1  C   -0.310794
     2  C   -0.254750
     3  C    0.639903
     4  O   -0.584366
     5  O   -0.567754
     6  H    0.214643
     7  H    0.219567
     8  H    0.229020
     9  H    0.414529
 Sum of Mulliken charges =  -0.00000

 Dipole moment (field-independent basis, Debye):
    X=             -2.1687    Y=              1.4123    Z=             -0.0000  Tot=              2.5880
 Quadrupole moment (field-independent basis, Debye-Ang):
   XX=            -26.8071   YY=            -28.8773   ZZ=            -30.6168
   XY=              5.4528   XZ=              0.0000   YZ=             -0.0000

 Normal termination of Gaussian 09 at Fri Aug 26 14:48:35 2022.
