 Gaussian 09, Revision E.01,
 Gaussian 09:  ES64L-G09RevE.01 30-Nov-2015

 -----
 #P G4
 -----

 ---------
 Frag_1050
 ---------
 Symbolic Z-matrix:
 Charge =  0 Multiplicity = 1

 SCF Done:  E(RB3LYP) =  -305.039461914     A.U. after   13 cycles
 SCF Done:  E(RB3LYP) =  -305.048329644     A.U. after   11 cycles
 SCF Done:  E(RB3LYP) =  -305.049360327     A.U. after   11 cycles
 SCF Done:  E(RB3LYP) =  -305.049683955     A.U. after   10 cycles
 SCF Done:  E(RB3LYP) =  -305.050049429     A.U. after   10 cycles
 SCF Done:  E(RB3LYP) =  -305.049534853     A.U. after   13 cycles
 SCF Done:  E(RB3LYP) =  -305.050421230     A.U. after   10 cycles
 SCF Done:  E(RB3LYP) =  -305.050901167     A.U. after   10 cycles
 SCF Done:  E(RB3LYP) =  -305.051565403     A.U. after   11 cycles
 SCF Done:  E(RB3LYP) =  -305.051713712     A.U. after   11 cycles
 SCF Done:  E(RB3LYP) =  -305.051752121     A.U. after    7 cycles
 SCF Done:  E(RB3LYP) =  -305.051752275     A.U. after    6 cycles
 SCF Done:  E(RB3LYP) =  -305.051752364     A.U. after    6 cycles
 Optimization completed.
    -- Stationary point found.
 Normal termination of Gaussian 09 at Sun Aug 21 17:14:04 2022.

 ----------------------------------------------------------
 #P Geom=AllCheck Guess=TCheck SCRF=Check B3LYP/GTBas3 Freq
 ----------------------------------------------------------

 Structure from the checkpoint file:  "G4.Frag_1050.chk"
 ---------
 Frag_1050
 ---------
 Charge =  0 Multiplicity = 1

 SCF Done:  E(RB3LYP) =  -305.051752364     A.U. after    1 cycles

  Exact polarizability:  59.332  -0.700  50.632   1.679   0.099  49.844
 Approx polarizability:  76.773  -1.529  70.056   1.416   1.849  74.832

                      1                      2                      3
                      A                      A                      A
 Frequencies --    141.2770               193.0826               206.2108
 Red. masses --      2.0964                 1.1294                 1.3981
 Frc consts  --      0.0247                 0.0248                 0.0350
 IR Inten    --     20.9129                16.7374                 5.5875

                      4                      5                      6
                      A                      A                      A
 Frequencies --    236.3286               271.8172               343.7285
 Red. masses --      1.0428                 2.2552                 2.1749
 Frc consts  --      0.0343                 0.0982                 0.1514
 IR Inten    --      0.7779                 4.3552                10.2980

                      7                      8                      9
                      A                      A                      A
 Frequencies --    381.3776               421.0047               425.4130
 Red. masses --      3.1414                 1.4287                 2.0906
 Frc consts  --      0.2692                 0.1492                 0.2229
 IR Inten    --      0.3021                78.9442                19.9968

                     10                     11                     12
                      A                      A                      A
 Frequencies --    503.0310               580.8615               756.5212
 Red. masses --      2.3056                 3.3126                 4.1420
 Frc consts  --      0.3437                 0.6585                 1.3967
 IR Inten    --     15.5334                21.4323                10.0195

                     13                     14                     15
                      A                      A                      A
 Frequencies --    865.1535               921.8049               935.2302
 Red. masses --      2.6616                 1.4997                 1.8080
 Frc consts  --      1.1738                 0.7508                 0.9317
 IR Inten    --     39.8756                 4.4516                62.7277

                     16                     17                     18
                      A                      A                      A
 Frequencies --    979.5124              1013.8094              1015.8336
 Red. masses --      1.5982                 2.4023                 1.4543
 Frc consts  --      0.9034                 1.4547                 0.8842
 IR Inten    --     19.1307                36.3348                 5.4170

                     19                     20                     21
                      A                      A                      A
 Frequencies --   1123.7039              1187.7503              1235.9529
 Red. masses --      1.6311                 1.5177                 2.1006
 Frc consts  --      1.2135                 1.2615                 1.8906
 IR Inten    --     40.1656                89.1249                53.6754

                     22                     23                     24
                      A                      A                      A
 Frequencies --   1245.3793              1337.6801              1364.4305
 Red. masses --      2.0920                 1.3436                 1.4190
 Frc consts  --      1.9117                 1.4165                 1.5565
 IR Inten    --     27.3550                 8.5772                48.7991

                     25                     26                     27
                      A                      A                      A
 Frequencies --   1399.1728              1417.2431              1471.4046
 Red. masses --      1.3771                 1.2825                 1.1107
 Frc consts  --      1.5884                 1.5177                 1.4169
 IR Inten    --     25.9978                13.7228                 8.7870

                     28                     29                     30
                      A                      A                      A
 Frequencies --   1477.6770              1486.7037              1503.2423
 Red. masses --      1.0462                 1.0759                 1.0622
 Frc consts  --      1.3460                 1.4011                 1.4142
 IR Inten    --      0.1606                 1.9227                 5.6548

                     31                     32                     33
                      A                      A                      A
 Frequencies --   1508.1242              1671.2103              3038.6472
 Red. masses --      1.1636                 1.0553                 1.0356
 Frc consts  --      1.5593                 1.7366                 5.6338
 IR Inten    --      6.3767                27.7543                13.2373

                     34                     35                     36
                      A                      A                      A
 Frequencies --   3052.6468              3107.6746              3120.7963
 Red. masses --      1.0365                 1.1009                 1.1019
 Frc consts  --      5.6908                 6.2642                 6.3232
 IR Inten    --     12.5409                18.7994                17.6753

                     37                     38                     39
                      A                      A                      A
 Frequencies --   3129.6007              3146.2350              3433.1614
 Red. masses --      1.1017                 1.1002                 1.0505
 Frc consts  --      6.3577                 6.4165                 7.2951
 IR Inten    --     25.1425                13.8802                 4.9343

                     40                     41                     42
                      A                      A                      A
 Frequencies --   3469.3512              3504.8623              3780.2229
 Red. masses --      1.0743                 1.0904                 1.0651
 Frc consts  --      7.6186                 7.8921                 8.9672
 IR Inten    --      1.5595                 2.9547                13.1780

 - Thermochemistry -
 -------------------
 Temperature   298.150 Kelvin.  Pressure   1.00000 Atm.
 Atom     1 has atomic number  6 and mass  12.00000

 Molecular mass:    90.07931 amu.
 Principal axes and moments of inertia in atomic units:
                           1         2         3
     Eigenvalues --   387.47631 645.13646 666.65951
           X            0.99902   0.01608   0.04113
           Y           -0.00807   0.98213  -0.18801
           Z           -0.04342   0.18750   0.98130
 This molecule is an asymmetric top.
 Rotational symmetry number  1.
 Rotational temperatures (Kelvin)      0.22353     0.13426     0.12992
 Rotational constants (GHZ):           4.65768     2.79746     2.70714
 Zero-point vibrational energy     373264.0 (Joules/Mol)
                                   89.21224 (Kcal/Mol)
 Warning -- explicit consideration of  11 degrees of freedom as
           vibrations may cause significant error
 Vibrational temperatures:    203.27   277.80   296.69   340.02   391.08
          (Kelvin)            494.55   548.72   605.73   612.07   723.75
                              835.73  1088.46  1244.76  1326.27  1345.59
                             1409.30  1458.64  1461.56  1616.76  1708.91
                             1778.26  1791.82  1924.62  1963.11  2013.10
                             2039.09  2117.02  2126.05  2139.03  2162.83
                             2169.85  2404.50  4371.93  4392.07  4471.25
                             4490.12  4502.79  4526.72  4939.55  4991.62
                             5042.71  5438.89

 Zero-point correction=                           0.142169 (Hartree/Particle)
 Thermal correction to Energy=                    0.149898
 Thermal correction to Enthalpy=                  0.150843
 Thermal correction to Gibbs Free Energy=         0.111468
 Sum of electronic and zero-point Energies=           -304.909584
 Sum of electronic and thermal Energies=              -304.901854
 Sum of electronic and thermal Enthalpies=            -304.900910
 Sum of electronic and thermal Free Energies=         -304.940285

                     E (Thermal)             CV                S
                      KCal/Mol        Cal/Mol-Kelvin    Cal/Mol-Kelvin
 Total                   94.063             28.359             82.871
 Electronic               0.000              0.000              0.000
 Translational            0.889              2.981             39.407
 Rotational               0.889              2.981             26.613
 Vibrational             92.285             22.397             16.851
 Vibration     1          0.615              1.912              2.787
 Vibration     2          0.635              1.849              2.198
 Vibration     3          0.641              1.831              2.077
 Vibration     4          0.655              1.785              1.830
 Vibration     5          0.675              1.725              1.585
 Vibration     6          0.722              1.588              1.195
 Vibration     7          0.751              1.510              1.034
 Vibration     8          0.784              1.425              0.889
 Vibration     9          0.787              1.415              0.874
 Vibration    10          0.858              1.243              0.651
 Vibration    11          0.938              1.073              0.484

 Optimization completed.
    -- Stationary point found.
 Normal termination of Gaussian 09 at Sun Aug 21 17:17:15 2022.

 -----------------------------------------------------------------
 #P Geom=AllCheck Guess=TCheck SCRF=Check CCSD(T,E4T,FrzG4)/GTBas1
 -----------------------------------------------------------------

 Structure from the checkpoint file:  "G4.Frag_1050.chk"
 ---------
 Frag_1050
 ---------
 Charge =  0 Multiplicity = 1

 SCF Done:  E(RHF) =  -303.129823098     A.U. after   12 cycles
 E2 =    -0.9082306270D+00 EUMP2 =    -0.30403805372486D+03
 CCSD(T)
 CCSD(T)= -0.30412159934D+03
 23\MP4SDTQ=-304.1207094\MP4SDQ=-304.0942007\CCSD=-304.0950874\CCSD(T)=
 Normal termination of Gaussian 09 at Sun Aug 21 17:23:51 2022.

 ---------------------------------------------------------
 #P Geom=AllCheck Guess=TCheck SCRF=Check MP4=FrzG4/GTBas2
 ---------------------------------------------------------

 Structure from the checkpoint file:  "G4.Frag_1050.chk"
 ---------
 Frag_1050
 ---------
 Charge =  0 Multiplicity = 1

 SCF Done:  E(RHF) =  -303.139822004     A.U. after   12 cycles
 E2 =    -0.9232205058D+00 EUMP2 =    -0.30406304250969D+03
 Normal termination of Gaussian 09 at Sun Aug 21 17:33:43 2022.

 ---------------------------------------------------------
 #P Geom=AllCheck Guess=TCheck SCRF=Check MP4=FrzG4/GTBas3
 ---------------------------------------------------------

 Structure from the checkpoint file:  "G4.Frag_1050.chk"
 ---------
 Frag_1050
 ---------
 Charge =  0 Multiplicity = 1

 SCF Done:  E(RHF) =  -303.173595539     A.U. after   11 cycles
 E2 =    -0.1124652014D+01 EUMP2 =    -0.30429824755268D+03
 Normal termination of Gaussian 09 at Sun Aug 21 21:15:02 2022.

 -----------------------------------------------------------
 #P Geom=AllCheck Guess=TCheck SCRF=Check MP2=Full/GTLargeXP
 -----------------------------------------------------------

 Structure from the checkpoint file:  "G4.Frag_1050.chk"
 ---------
 Frag_1050
 ---------
 Charge =  0 Multiplicity = 1

 SCF Done:  E(RHF) =  -303.252722112     A.U. after   12 cycles
 E2 =    -0.1465438499D+01 EUMP2 =    -0.30471816061094D+03
 Normal termination of Gaussian 09 at Sun Aug 21 21:22:12 2022.
 SCF Done:  E(RHF) =  -303.276695857     A.U. after    9 cycles
 Normal termination of Gaussian 09 at Sun Aug 21 21:29:29 2022.

                         Standard orientation:
 ---------------------------------------------------------------------
 Center     Atomic      Atomic             Coordinates (Angstroms)
 Number     Number       Type             X           Y           Z
 ---------------------------------------------------------------------
      1          6           0       -1.638478   -0.761013   -0.432914
      2          6           0       -0.393184    0.004600    0.025939
      3          6           0       -0.472002    1.486812   -0.365714
      4          8           0       -0.287189   -0.009626    1.445477
      5          7           0        0.775103   -0.714700   -0.505522
      6          7           0        2.019013    0.002914   -0.177818
      7          1           0       -1.570541   -1.809383   -0.127239
      8          1           0       -1.746649   -0.731990   -1.522169
      9          1           0       -2.531345   -0.316260    0.013016
     10          1           0       -0.618571    1.584153   -1.445451
     11          1           0        0.447115    2.009555   -0.097211
     12          1           0       -1.311389    1.966081    0.144847
     13          1           0       -0.189842   -0.936144    1.698913
     14          1           0        0.714032   -0.670784   -1.521185
     15          1           0        2.707018   -0.741289   -0.066572
     16          1           0        1.860865    0.323176    0.778751
 ---------------------------------------------------------------------

 SCF Done:  E(RHF) =  -303.282008792     A.U. after    8 cycles

 The electronic state is 1-A.
 Alpha  occ. eigenvalues --  -20.55848 -15.57380 -15.56684 -11.31726 -11.22009
 Alpha  occ. eigenvalues --  -11.21159  -1.37958  -1.25337  -1.07608  -0.98141
 Alpha  occ. eigenvalues --   -0.94328  -0.79405  -0.70501  -0.67080  -0.63669
 Alpha  occ. eigenvalues --   -0.60221  -0.58724  -0.56709  -0.53804  -0.53207
 Alpha  occ. eigenvalues --   -0.52753  -0.50662  -0.47528  -0.45462  -0.35938
 Alpha virt. eigenvalues --    0.03479   0.04421   0.04888   0.05398   0.06873
 Alpha virt. eigenvalues --    0.07156   0.07583   0.07771   0.08490   0.10018
 Alpha virt. eigenvalues --    0.10559   0.11530   0.12372   0.12461   0.13388

 Mulliken charges:
               1
     1  C   -0.573223
     2  C    0.440870
     3  C   -0.531579
     4  O   -0.606983
     5  N   -0.403713
     6  N   -0.648358
     7  H    0.171387
     8  H    0.167582
     9  H    0.184562
    10  H    0.162422
    11  H    0.187757
    12  H    0.179902
    13  H    0.370165
    14  H    0.283977
    15  H    0.300977
    16  H    0.314255
 Sum of Mulliken charges =  -0.00000

 Dipole moment (field-independent basis, Debye):
    X=             -0.5004    Y=             -1.1333    Z=             -0.4945  Tot=              1.3339
 Quadrupole moment (field-independent basis, Debye-Ang):
   XX=            -37.9644   YY=            -38.9972   ZZ=            -37.9242
   XY=             -1.6785   XZ=              3.0293   YZ=             -1.5991

 Normal termination of Gaussian 09 at Mon Aug 22 00:45:31 2022.
