 Gaussian 09, Revision E.01,
 Gaussian 09:  ES64L-G09RevE.01 30-Nov-2015

 -----
 #P G4
 -----

 --------
 Frag_895
 --------
 Symbolic Z-matrix:
 Charge =  0 Multiplicity = 1

 SCF Done:  E(RB3LYP) =  -264.503136409     A.U. after   13 cycles
 SCF Done:  E(RB3LYP) =  -264.519298665     A.U. after   12 cycles
 SCF Done:  E(RB3LYP) =  -264.523387868     A.U. after   11 cycles
 SCF Done:  E(RB3LYP) =  -264.517691527     A.U. after   13 cycles
 SCF Done:  E(RB3LYP) =  -264.524506830     A.U. after   10 cycles
 SCF Done:  E(RB3LYP) =  -264.531272171     A.U. after   13 cycles
 SCF Done:  E(RB3LYP) =  -264.533662725     A.U. after   11 cycles
 SCF Done:  E(RB3LYP) =  -264.534965444     A.U. after   11 cycles
 SCF Done:  E(RB3LYP) =  -264.536052624     A.U. after   11 cycles
 SCF Done:  E(RB3LYP) =  -264.536477355     A.U. after   11 cycles
 SCF Done:  E(RB3LYP) =  -264.538366831     A.U. after    8 cycles
 SCF Done:  E(RB3LYP) =  -264.538367778     A.U. after    8 cycles
 SCF Done:  E(RB3LYP) =  -264.538367915     A.U. after    7 cycles
 Optimization completed.
    -- Stationary point found.
 Normal termination of Gaussian 09 at Fri Aug 26 12:32:40 2022.

 ----------------------------------------------------------
 #P Geom=AllCheck Guess=TCheck SCRF=Check B3LYP/GTBas3 Freq
 ----------------------------------------------------------

 Structure from the checkpoint file:  "G4.Frag_895.chk"
 --------
 Frag_895
 --------
 Charge =  0 Multiplicity = 1

 SCF Done:  E(RB3LYP) =  -264.538367915     A.U. after    1 cycles

  Exact polarizability:  58.933  -5.062  41.640   2.027  -0.229  26.442
 Approx polarizability:  87.337  -9.080  58.435   0.626  -0.722  39.749

                      1                      2                      3
                      A                      A                      A
 Frequencies --    210.5122               253.5193               278.9087
 Red. masses --      1.1313                 3.0777                 1.4254
 Frc consts  --      0.0295                 0.1165                 0.0653
 IR Inten    --     22.1488                 3.3730               108.4619

                      4                      5                      6
                      A                      A                      A
 Frequencies --    325.2221               383.7599               465.0060
 Red. masses --      1.6863                 1.2473                 3.3900
 Frc consts  --      0.1051                 0.1082                 0.4319
 IR Inten    --     70.4545                47.0555                31.4925

                      7                      8                      9
                      A                      A                      A
 Frequencies --    503.3234               599.5183               783.0141
 Red. masses --      2.7496                 3.5346                 1.5997
 Frc consts  --      0.4104                 0.7485                 0.5779
 IR Inten    --      1.8667                20.4428               101.2838

                     10                     11                     12
                      A                      A                      A
 Frequencies --    815.5145               878.7401               895.2250
 Red. masses --      1.3529                 2.0613                 1.6999
 Frc consts  --      0.5301                 0.9378                 0.8027
 IR Inten    --    261.2767                 8.9955                66.6323

                     13                     14                     15
                      A                      A                      A
 Frequencies --   1118.2156              1138.2783              1226.2776
 Red. masses --      1.4281                 1.8598                 1.8183
 Frc consts  --      1.0521                 1.4197                 1.6110
 IR Inten    --     52.1740                89.5658                83.7805

                     16                     17                     18
                      A                      A                      A
 Frequencies --   1257.9742              1295.8909              1388.3389
 Red. masses --      1.4369                 2.2292                 1.5237
 Frc consts  --      1.3398                 2.2057                 1.7303
 IR Inten    --      2.0495                45.5748                29.2792

                     19                     20                     21
                      A                      A                      A
 Frequencies --   1629.2344              1639.7405              1799.4029
 Red. masses --      1.1552                 1.1237                 5.1479
 Frc consts  --      1.8067                 1.7802                 9.8206
 IR Inten    --     26.8742                21.9280                 5.5223

                     22                     23                     24
                      A                      A                      A
 Frequencies --   3204.3068              3480.2603              3498.3958
 Red. masses --      1.0909                 1.0488                 1.0471
 Frc consts  --      6.5993                 7.4844                 7.5503
 IR Inten    --      8.5458                 0.7718                 3.6370

                     25                     26                     27
                      A                      A                      A
 Frequencies --   3560.0872              3598.3035              3755.1799
 Red. masses --      1.0919                 1.0955                 1.0658
 Frc consts  --      8.1539                 8.3575                 8.8549
 IR Inten    --      5.6125                 7.1108                 7.8928

 - Thermochemistry -
 -------------------
 Temperature   298.150 Kelvin.  Pressure   1.00000 Atm.
 Atom     1 has atomic number  7 and mass  14.00307

 Molecular mass:    74.04801 amu.
 Principal axes and moments of inertia in atomic units:
                           1         2         3
     Eigenvalues --   192.62297 464.59467 642.53961
           X            0.99907  -0.03765   0.02105
           Y            0.03766   0.99929  -0.00039
           Z           -0.02102   0.00118   0.99978
 This molecule is an asymmetric top.
 Rotational symmetry number  1.
 Rotational temperatures (Kelvin)      0.44965     0.18643     0.13480
 Rotational constants (GHZ):           9.36929     3.88455     2.80876
 Zero-point vibrational energy     239146.4 (Joules/Mol)
                                   57.15735 (Kcal/Mol)
 Warning -- explicit consideration of   8 degrees of freedom as
           vibrations may cause significant error
 Vibrational temperatures:    302.88   364.76   401.29   467.92   552.14
          (Kelvin)            669.04   724.17   862.57  1126.58  1173.34
                             1264.31  1288.03  1608.86  1637.73  1764.34
                             1809.94  1864.50  1997.51  2344.10  2359.22
                             2588.94  4610.28  5007.31  5033.41  5122.17
                             5177.15  5402.86

 Zero-point correction=                           0.091086 (Hartree/Particle)
 Thermal correction to Energy=                    0.097110
 Thermal correction to Enthalpy=                  0.098054
 Thermal correction to Gibbs Free Energy=         0.062524
 Sum of electronic and zero-point Energies=           -264.447282
 Sum of electronic and thermal Energies=              -264.441258
 Sum of electronic and thermal Enthalpies=            -264.440314
 Sum of electronic and thermal Free Energies=         -264.475843

                     E (Thermal)             CV                S
                      KCal/Mol        Cal/Mol-Kelvin    Cal/Mol-Kelvin
 Total                   60.938             21.580             74.779
 Electronic               0.000              0.000              0.000
 Translational            0.889              2.981             38.822
 Rotational               0.889              2.981             25.556
 Vibrational             59.160             15.619             10.400
 Vibration     1          0.643              1.825              2.039
 Vibration     2          0.665              1.757              1.706
 Vibration     3          0.679              1.713              1.540
 Vibration     4          0.709              1.625              1.284
 Vibration     5          0.753              1.505              1.024
 Vibration     6          0.822              1.328              0.752
 Vibration     7          0.859              1.243              0.650
 Vibration     8          0.958              1.033              0.450

 Optimization completed.
    -- Stationary point found.
 Normal termination of Gaussian 09 at Fri Aug 26 12:33:00 2022.

 -----------------------------------------------------------------
 #P Geom=AllCheck Guess=TCheck SCRF=Check CCSD(T,E4T,FrzG4)/GTBas1
 -----------------------------------------------------------------

 Structure from the checkpoint file:  "G4.Frag_895.chk"
 --------
 Frag_895
 --------
 Charge =  0 Multiplicity = 1

 SCF Done:  E(RHF) =  -262.938965935     A.U. after   12 cycles
 E2 =    -0.7596499214D+00 EUMP2 =    -0.26369861585657D+03
 CCSD(T)
 CCSD(T)= -0.26375913030D+03
 587618\MP4SDQ=-263.7357998\CCSD=-263.7362194\CCSD(T)=-263.7591303\RMSD
 Normal termination of Gaussian 09 at Fri Aug 26 12:33:53 2022.

 ---------------------------------------------------------
 #P Geom=AllCheck Guess=TCheck SCRF=Check MP4=FrzG4/GTBas2
 ---------------------------------------------------------

 Structure from the checkpoint file:  "G4.Frag_895.chk"
 --------
 Frag_895
 --------
 Charge =  0 Multiplicity = 1

 SCF Done:  E(RHF) =  -262.950806285     A.U. after   12 cycles
 E2 =    -0.7737319742D+00 EUMP2 =    -0.26372453825955D+03
 Normal termination of Gaussian 09 at Fri Aug 26 12:34:09 2022.

 ---------------------------------------------------------
 #P Geom=AllCheck Guess=TCheck SCRF=Check MP4=FrzG4/GTBas3
 ---------------------------------------------------------

 Structure from the checkpoint file:  "G4.Frag_895.chk"
 --------
 Frag_895
 --------
 Charge =  0 Multiplicity = 1

 SCF Done:  E(RHF) =  -262.980733475     A.U. after   11 cycles
 E2 =    -0.9290496173D+00 EUMP2 =    -0.26390978309256D+03
 Normal termination of Gaussian 09 at Fri Aug 26 12:35:24 2022.

 -----------------------------------------------------------
 #P Geom=AllCheck Guess=TCheck SCRF=Check MP2=Full/GTLargeXP
 -----------------------------------------------------------

 Structure from the checkpoint file:  "G4.Frag_895.chk"
 --------
 Frag_895
 --------
 Charge =  0 Multiplicity = 1

 SCF Done:  E(RHF) =  -263.054852792     A.U. after   12 cycles
 E2 =    -0.1215647686D+01 EUMP2 =    -0.26427050047809D+03
 Normal termination of Gaussian 09 at Fri Aug 26 12:36:09 2022.
 SCF Done:  E(RHF) =  -263.076010722     A.U. after    9 cycles
 Normal termination of Gaussian 09 at Fri Aug 26 12:37:05 2022.

                         Standard orientation:
 ---------------------------------------------------------------------
 Center     Atomic      Atomic             Coordinates (Angstroms)
 Number     Number       Type             X           Y           Z
 ---------------------------------------------------------------------
      1          7           0        1.977061    0.024546   -0.080493
      2          6           0        0.753875   -0.664936   -0.043788
      3          6           0       -0.444227   -0.076119    0.005999
      4          7           0       -0.573116    1.337214    0.043904
      5          8           0       -1.595682   -0.842203    0.091506
      6          1           0        1.848454    0.989105    0.208725
      7          1           0        2.689105   -0.416534    0.489445
      8          1           0        0.809680   -1.744337   -0.122612
      9          1           0       -0.713209    1.750986   -0.873740
     10          1           0       -1.344231    1.619052    0.640750
     11          1           0       -2.209849   -0.546633   -0.591768
 ---------------------------------------------------------------------

 SCF Done:  E(RHF) =  -263.080590912     A.U. after    8 cycles

 The electronic state is 1-A.
 Alpha  occ. eigenvalues --  -20.57130 -15.56026 -15.54769 -11.29345 -11.24542
 Alpha  occ. eigenvalues --   -1.38624  -1.20822  -1.17006  -0.96498  -0.77349
 Alpha  occ. eigenvalues --   -0.72637  -0.67896  -0.66294  -0.62288  -0.60428
 Alpha  occ. eigenvalues --   -0.54826  -0.51706  -0.47644  -0.43328  -0.29790
 Alpha virt. eigenvalues --    0.03560   0.04663   0.05427   0.06241   0.06976
 Alpha virt. eigenvalues --    0.08217   0.08503   0.10482   0.11064   0.11950
 Alpha virt. eigenvalues --    0.12627   0.12976   0.13961   0.15326   0.16449

 Mulliken charges:
               1
     1  N   -0.699488
     2  C   -0.034011
     3  C    0.223661
     4  N   -0.764574
     5  O   -0.543465
     6  H    0.322345
     7  H    0.294010
     8  H    0.210666
     9  H    0.313574
    10  H    0.314592
    11  H    0.362690
 Sum of Mulliken charges =  -0.00000

 Dipole moment (field-independent basis, Debye):
    X=             -0.9111    Y=              1.2571    Z=             -0.3932  Tot=              1.6016
 Quadrupole moment (field-independent basis, Debye-Ang):
   XX=            -26.2757   YY=            -29.5464   ZZ=            -30.9744
   XY=             -4.6122   XZ=              5.9811   YZ=             -0.2050

 Normal termination of Gaussian 09 at Fri Aug 26 12:42:33 2022.
