 Gaussian 09, Revision E.01,
 Gaussian 09:  ES64L-G09RevE.01 30-Nov-2015

 -----
 #P G4
 -----

 --------
 Frag_663
 --------
 Symbolic Z-matrix:
 Charge =  0 Multiplicity = 1

 SCF Done:  E(RB3LYP) =  -305.065660458     A.U. after   13 cycles
 SCF Done:  E(RB3LYP) =  -305.073113949     A.U. after   11 cycles
 SCF Done:  E(RB3LYP) =  -305.073628865     A.U. after   10 cycles
 SCF Done:  E(RB3LYP) =  -305.073765356     A.U. after    9 cycles
 SCF Done:  E(RB3LYP) =  -305.073880104     A.U. after   10 cycles
 SCF Done:  E(RB3LYP) =  -305.073935330     A.U. after   10 cycles
 SCF Done:  E(RB3LYP) =  -305.073998529     A.U. after   10 cycles
 SCF Done:  E(RB3LYP) =  -305.074014914     A.U. after    8 cycles
 SCF Done:  E(RB3LYP) =  -305.074017627     A.U. after    7 cycles
 SCF Done:  E(RB3LYP) =  -305.074018399     A.U. after    7 cycles
 SCF Done:  E(RB3LYP) =  -305.074018409     A.U. after    6 cycles
 Optimization completed.
    -- Stationary point found.
 Normal termination of Gaussian 09 at Fri Aug 26 15:01:00 2022.

 ----------------------------------------------------------
 #P Geom=AllCheck Guess=TCheck SCRF=Check B3LYP/GTBas3 Freq
 ----------------------------------------------------------

 Structure from the checkpoint file:  "G4.Frag_663.chk"
 --------
 Frag_663
 --------
 Charge =  0 Multiplicity = 1

 SCF Done:  E(RB3LYP) =  -305.074018409     A.U. after    1 cycles

  Exact polarizability:  58.340   1.521  51.223   0.220   0.855  48.157
 Approx polarizability:  75.125   0.644  73.876   0.313   1.279  68.610

                      1                      2                      3
                      A                      A                      A
 Frequencies --     74.0830               196.5632               228.5922
 Red. masses --      3.6099                 1.0390                 1.0893
 Frc consts  --      0.0117                 0.0237                 0.0335
 IR Inten    --      2.0697                11.8216                60.9127

                      4                      5                      6
                      A                      A                      A
 Frequencies --    242.4065               281.1198               283.2541
 Red. masses --      1.3501                 2.7967                 1.6660
 Frc consts  --      0.0467                 0.1302                 0.0788
 IR Inten    --     40.5498                 4.8142                 0.2140

                      7                      8                      9
                      A                      A                      A
 Frequencies --    298.4352               387.6627               445.3671
 Red. masses --      1.2702                 3.6906                 2.3306
 Frc consts  --      0.0667                 0.3268                 0.2724
 IR Inten    --     73.8180                 2.1312                17.7294

                     10                     11                     12
                      A                      A                      A
 Frequencies --    537.7644               604.8186               783.6336
 Red. masses --      3.0641                 2.2762                 2.4551
 Frc consts  --      0.5221                 0.4906                 0.8883
 IR Inten    --     12.7782                 7.7027                42.4183

                     13                     14                     15
                      A                      A                      A
 Frequencies --    814.7437               867.4425               924.0676
 Red. masses --      1.3424                 2.3287                 1.8681
 Frc consts  --      0.5250                 1.0324                 0.9399
 IR Inten    --    284.1400                25.9967                16.4338

                     16                     17                     18
                      A                      A                      A
 Frequencies --   1013.3737              1041.8973              1079.0495
 Red. masses --      1.5553                 2.0604                 1.9093
 Frc consts  --      0.9410                 1.3178                 1.3098
 IR Inten    --     13.9534                 3.7297                45.6264

                     19                     20                     21
                      A                      A                      A
 Frequencies --   1099.4879              1155.1216              1162.9199
 Red. masses --      1.5060                 2.0771                 1.8323
 Frc consts  --      1.0727                 1.6329                 1.4600
 IR Inten    --     71.8685                14.6866                17.2620

                     22                     23                     24
                      A                      A                      A
 Frequencies --   1249.5478              1268.5538              1380.5529
 Red. masses --      1.5503                 1.2370                 1.2443
 Frc consts  --      1.4261                 1.1728                 1.3973
 IR Inten    --      9.2282                28.7960                 2.8187

                     25                     26                     27
                      A                      A                      A
 Frequencies --   1385.7392              1401.3254              1422.7356
 Red. masses --      1.2191                 1.2601                 1.3623
 Frc consts  --      1.3793                 1.4579                 1.6246
 IR Inten    --      2.8639                12.6152                32.0441

                     28                     29                     30
                      A                      A                      A
 Frequencies --   1442.6036              1494.9339              1506.6273
 Red. masses --      1.5683                 1.0653                 1.0904
 Frc consts  --      1.9229                 1.4027                 1.4583
 IR Inten    --      3.5280                 3.6953                 3.9509

                     31                     32                     33
                      A                      A                      A
 Frequencies --   1651.1216              1666.5902              2994.8480
 Red. masses --      1.0980                 1.0878                 1.0832
 Frc consts  --      1.7637                 1.7802                 5.7241
 IR Inten    --      5.2265                40.6004                43.6887

                     34                     35                     36
                      A                      A                      A
 Frequencies --   3029.0150              3064.2458              3087.1687
 Red. masses --      1.0365                 1.0854                 1.0999
 Frc consts  --      5.6028                 6.0049                 6.1761
 IR Inten    --     18.2432                19.9856                34.7227

                     37                     38                     39
                      A                      A                      A
 Frequencies --   3119.9014              3474.3243              3486.8299
 Red. masses --      1.1010                 1.0496                 1.0490
 Frc consts  --      6.3145                 7.4646                 7.5140
 IR Inten    --     21.8512                 0.9287                 0.7033

                     40                     41                     42
                      A                      A                      A
 Frequencies --   3553.1417              3566.2501              3822.1739
 Red. masses --      1.0910                 1.0921                 1.0662
 Frc consts  --      8.1151                 8.1832                 9.1770
 IR Inten    --      0.0602                 0.0280                12.8353

 - Thermochemistry -
 -------------------
 Temperature   298.150 Kelvin.  Pressure   1.00000 Atm.
 Atom     1 has atomic number  6 and mass  12.00000

 Molecular mass:    90.07931 amu.
 Principal axes and moments of inertia in atomic units:
                           1         2         3
     Eigenvalues --   395.96486 682.13424 752.23735
           X            0.99866   0.05150   0.00550
           Y           -0.05179   0.99455   0.09046
           Z           -0.00081  -0.09063   0.99588
 This molecule is an asymmetric top.
 Rotational symmetry number  1.
 Rotational temperatures (Kelvin)      0.21874     0.12697     0.11514
 Rotational constants (GHZ):           4.55783     2.64573     2.39916
 Zero-point vibrational energy     374371.5 (Joules/Mol)
                                   89.47695 (Kcal/Mol)
 Warning -- explicit consideration of  11 degrees of freedom as
           vibrations may cause significant error
 Vibrational temperatures:    106.59   282.81   328.89   348.77   404.47
          (Kelvin)            407.54   429.38   557.76   640.78   773.72
                              870.20  1127.47  1172.23  1248.05  1329.53
                             1458.02  1499.06  1552.51  1581.92  1661.96
                             1673.18  1797.82  1825.16  1986.31  1993.77
                             2016.19  2047.00  2075.58  2150.87  2167.70
                             2375.59  2397.85  4308.91  4358.07  4408.76
                             4441.74  4488.84  4998.77  5016.76  5112.17
                             5131.03  5499.25

 Zero-point correction=                           0.142591 (Hartree/Particle)
 Thermal correction to Energy=                    0.150545
 Thermal correction to Enthalpy=                  0.151489
 Thermal correction to Gibbs Free Energy=         0.111254
 Sum of electronic and zero-point Energies=           -304.931428
 Sum of electronic and thermal Energies=              -304.923474
 Sum of electronic and thermal Enthalpies=            -304.922529
 Sum of electronic and thermal Free Energies=         -304.962765

                     E (Thermal)             CV                S
                      KCal/Mol        Cal/Mol-Kelvin    Cal/Mol-Kelvin
 Total                   94.468             28.644             84.682
 Electronic               0.000              0.000              0.000
 Translational            0.889              2.981             39.407
 Rotational               0.889              2.981             26.810
 Vibrational             92.691             22.683             18.465
 Vibration     1          0.599              1.966              4.042
 Vibration     2          0.636              1.845              2.165
 Vibration     3          0.651              1.797              1.890
 Vibration     4          0.659              1.775              1.785
 Vibration     5          0.681              1.709              1.527
 Vibration     6          0.682              1.705              1.514
 Vibration     7          0.692              1.677              1.426
 Vibration     8          0.756              1.497              1.009
 Vibration     9          0.805              1.371              0.810
 Vibration    10          0.893              1.167              0.570
 Vibration    11          0.963              1.022              0.441

 Normal termination of Gaussian 09 at Fri Aug 26 15:01:37 2022.

 -----------------------------------------------------------------
 #P Geom=AllCheck Guess=TCheck SCRF=Check CCSD(T,E4T,FrzG4)/GTBas1
 -----------------------------------------------------------------

 Structure from the checkpoint file:  "G4.Frag_663.chk"
 --------
 Frag_663
 --------
 Charge =  0 Multiplicity = 1

 SCF Done:  E(RHF) =  -303.153511563     A.U. after   11 cycles
 E2 =    -0.9028185639D+00 EUMP2 =    -0.30405633012701D+03
 CCSD(T)
 CCSD(T)= -0.30413853735D+03
 04.1374815\MP4SDQ=-304.1125037\CCSD=-304.1133812\CCSD(T)=-304.1385374\
 Normal termination of Gaussian 09 at Fri Aug 26 15:04:02 2022.

 ---------------------------------------------------------
 #P Geom=AllCheck Guess=TCheck SCRF=Check MP4=FrzG4/GTBas2
 ---------------------------------------------------------

 Structure from the checkpoint file:  "G4.Frag_663.chk"
 --------
 Frag_663
 --------
 Charge =  0 Multiplicity = 1

 SCF Done:  E(RHF) =  -303.165558733     A.U. after   12 cycles
 E2 =    -0.9191537036D+00 EUMP2 =    -0.30408471243675D+03
 Normal termination of Gaussian 09 at Fri Aug 26 15:04:52 2022.

 ---------------------------------------------------------
 #P Geom=AllCheck Guess=TCheck SCRF=Check MP4=FrzG4/GTBas3
 ---------------------------------------------------------

 Structure from the checkpoint file:  "G4.Frag_663.chk"
 --------
 Frag_663
 --------
 Charge =  0 Multiplicity = 1

 SCF Done:  E(RHF) =  -303.201072074     A.U. after   11 cycles
 E2 =    -0.1120196007D+01 EUMP2 =    -0.30432126808133D+03
 Normal termination of Gaussian 09 at Fri Aug 26 15:09:34 2022.

 -----------------------------------------------------------
 #P Geom=AllCheck Guess=TCheck SCRF=Check MP2=Full/GTLargeXP
 -----------------------------------------------------------

 Structure from the checkpoint file:  "G4.Frag_663.chk"
 --------
 Frag_663
 --------
 Charge =  0 Multiplicity = 1

 SCF Done:  E(RHF) =  -303.282604868     A.U. after   12 cycles
 E2 =    -0.1462401460D+01 EUMP2 =    -0.30474500632843D+03
 Normal termination of Gaussian 09 at Fri Aug 26 15:11:58 2022.
 SCF Done:  E(RHF) =  -303.306677965     A.U. after    8 cycles
 Normal termination of Gaussian 09 at Fri Aug 26 15:14:27 2022.

                         Standard orientation:
 ---------------------------------------------------------------------
 Center     Atomic      Atomic             Coordinates (Angstroms)
 Number     Number       Type             X           Y           Z
 ---------------------------------------------------------------------
      1          6           0        1.142623    1.117646    0.715281
      2          6           0        0.716421    0.191724   -0.426600
      3          8           0        1.550476   -0.957585   -0.492218
      4          6           0       -0.730242   -0.325814   -0.304183
      5          7           0       -1.649426    0.747740   -0.708464
      6          7           0       -0.954800   -0.953146    0.998940
      7          1           0        2.161611    1.484382    0.547020
      8          1           0        0.497103    2.000132    0.789004
      9          1           0        1.130796    0.579547    1.667154
     10          1           0        0.756371    0.749704   -1.373570
     11          1           0        2.462142   -0.655904   -0.550574
     12          1           0       -0.823849   -1.120328   -1.051990
     13          1           0       -2.600231    0.389272   -0.719187
     14          1           0       -1.642928    1.488789   -0.011010
     15          1           0       -1.063536   -0.241539    1.716535
     16          1           0       -1.824519   -1.476874    0.984032
 ---------------------------------------------------------------------

 SCF Done:  E(RHF) =  -303.312104664     A.U. after    8 cycles

 The electronic state is 1-A.
 Alpha  occ. eigenvalues --  -20.54615 -15.54324 -15.53794 -11.27910 -11.27498
 Alpha  occ. eigenvalues --  -11.21966  -1.35552  -1.22005  -1.12398  -1.01352
 Alpha  occ. eigenvalues --   -0.90628  -0.77869  -0.69675  -0.69419  -0.63401
 Alpha  occ. eigenvalues --   -0.62558  -0.59372  -0.57814  -0.55477  -0.53465
 Alpha  occ. eigenvalues --   -0.51178  -0.46857  -0.44313  -0.43447  -0.38077
 Alpha virt. eigenvalues --    0.03230   0.04038   0.04536   0.05548   0.06471
 Alpha virt. eigenvalues --    0.07019   0.07357   0.08104   0.08952   0.10318
 Alpha virt. eigenvalues --    0.11778   0.11836   0.12439   0.13082   0.13515

 Mulliken charges:
               1
     1  C   -0.583404
     2  C    0.143264
     3  O   -0.595688
     4  C    0.091013
     5  N   -0.689736
     6  N   -0.689261
     7  H    0.155355
     8  H    0.164449
     9  H    0.192949
    10  H    0.165252
    11  H    0.362687
    12  H    0.175887
    13  H    0.279048
    14  H    0.272948
    15  H    0.274350
    16  H    0.280889
 Sum of Mulliken charges =  -0.00000

 Dipole moment (field-independent basis, Debye):
    X=             -0.9233    Y=              1.8457    Z=              0.9958  Tot=              2.2915
 Quadrupole moment (field-independent basis, Debye-Ang):
   XX=            -29.4590   YY=            -41.9137   ZZ=            -40.6477
   XY=              3.9563   XZ=             -3.2416   YZ=              3.1070

 Normal termination of Gaussian 09 at Fri Aug 26 15:22:46 2022.
