 Gaussian 09, Revision E.01,
 Gaussian 09:  ES64L-G09RevE.01 30-Nov-2015

 -----
 #P G4
 -----

 ---------
 Frag_1077
 ---------
 Symbolic Z-matrix:
 Charge =  0 Multiplicity = 1

 SCF Done:  E(RB3LYP) =  -148.766637629     A.U. after   12 cycles
 SCF Done:  E(RB3LYP) =  -148.780164704     A.U. after   12 cycles
 SCF Done:  E(RB3LYP) =  -148.782337832     A.U. after   12 cycles
 SCF Done:  E(RB3LYP) =  -148.784110687     A.U. after   12 cycles
 SCF Done:  E(RB3LYP) =  -148.784424595     A.U. after   12 cycles
 SCF Done:  E(RB3LYP) =  -148.785604461     A.U. after   13 cycles
 SCF Done:  E(RB3LYP) =  -148.776201916     A.U. after   14 cycles
 SCF Done:  E(RB3LYP) =  -148.786473974     A.U. after   11 cycles
 SCF Done:  E(RB3LYP) =  -148.793157289     A.U. after   14 cycles
 SCF Done:  E(RB3LYP) =  -148.792653346     A.U. after   13 cycles
 SCF Done:  E(RB3LYP) =  -148.795328053     A.U. after   11 cycles
 SCF Done:  E(RB3LYP) =  -148.795340366     A.U. after    9 cycles
 SCF Done:  E(RB3LYP) =  -148.795340530     A.U. after    8 cycles
 Optimization completed.
    -- Stationary point found.
 Normal termination of Gaussian 09 at Fri Aug 26 11:38:24 2022.

 ----------------------------------------------------------
 #P Geom=AllCheck Guess=TCheck SCRF=Check B3LYP/GTBas3 Freq
 ----------------------------------------------------------

 Structure from the checkpoint file:  "G4.Frag_1077.chk"
 ---------
 Frag_1077
 ---------
 Charge =  0 Multiplicity = 1

 SCF Done:  E(RB3LYP) =  -148.795340530     A.U. after    1 cycles

  Exact polarizability:  40.174  -0.030  14.434   0.614  -0.002  14.451
 Approx polarizability:  77.683   0.139  20.404  -2.905  -0.012  20.608

                      1                      2                      3
                      A                      A                      A
 Frequencies --    545.6853               553.0343               739.5961
 Red. masses --      2.9113                 2.8000                 1.1307
 Frc consts  --      0.5108                 0.5046                 0.3644
 IR Inten    --      0.0558                74.0332                90.5448

                      4                      5                      6
                      A                      A                      A
 Frequencies --    921.5055               927.4683              1288.6537
 Red. masses --      1.5124                 1.4807                 8.2369
 Frc consts  --      0.7567                 0.7504                 8.0591
 IR Inten    --    423.1650                14.0664                 0.0001

                      7                      8                      9
                      A                      A                      A
 Frequencies --   2246.5305              3596.6924              3598.6649
 Red. masses --      8.8929                 1.0792                 1.0797
 Frc consts  --     26.4435                 8.2253                 8.2384
 IR Inten    --    540.2709               102.5827                30.7711

 - Thermochemistry -
 -------------------
 Temperature   298.150 Kelvin.  Pressure   1.00000 Atm.
 Atom     1 has atomic number  7 and mass  14.00307

 Molecular mass:    42.02180 amu.
 Principal axes and moments of inertia in atomic units:
                           1         2         3
     Eigenvalues --     4.82965 173.74090 173.76403
           X            0.99935   0.03599   0.00225
           Y            0.00174  -0.11058   0.99387
           Z           -0.03602   0.99322   0.11057
 This molecule is an asymmetric top.
 Rotational symmetry number  1.
 Rotational temperatures (Kelvin)     17.93378     0.49852     0.49846
 Rotational constants (GHZ):         373.67985    10.38754    10.38616
 Zero-point vibrational energy      86237.8 (Joules/Mol)
                                   20.61132 (Kcal/Mol)
 Warning -- explicit consideration of   2 degrees of freedom as
           vibrations may cause significant error
 Vibrational temperatures:    785.12   795.69  1064.11  1325.84  1334.42
          (Kelvin)           1854.08  3232.25  5174.83  5177.67

 Zero-point correction=                           0.032846 (Hartree/Particle)
 Thermal correction to Energy=                    0.036267
 Thermal correction to Enthalpy=                  0.037211
 Thermal correction to Gibbs Free Energy=         0.009470
 Sum of electronic and zero-point Energies=           -148.762494
 Sum of electronic and thermal Energies=              -148.759073
 Sum of electronic and thermal Enthalpies=            -148.758129
 Sum of electronic and thermal Free Energies=         -148.785871

                     E (Thermal)             CV                S
                      KCal/Mol        Cal/Mol-Kelvin    Cal/Mol-Kelvin
 Total                   22.758             10.092             58.387
 Electronic               0.000              0.000              0.000
 Translational            0.889              2.981             37.134
 Rotational               0.889              2.981             19.617
 Vibrational             20.980              4.131              1.636
 Vibration     1          0.901              1.149              0.553
 Vibration     2          0.908              1.133              0.538

 Optimization completed.
    -- Stationary point found.
 Normal termination of Gaussian 09 at Fri Aug 26 11:38:32 2022.

 -----------------------------------------------------------------
 #P Geom=AllCheck Guess=TCheck SCRF=Check CCSD(T,E4T,FrzG4)/GTBas1
 -----------------------------------------------------------------

 Structure from the checkpoint file:  "G4.Frag_1077.chk"
 ---------
 Frag_1077
 ---------
 Charge =  0 Multiplicity = 1

 SCF Done:  E(RHF) =  -147.893771523     A.U. after   12 cycles
 E2 =    -0.4442608791D+00 EUMP2 =    -0.14833803240247D+03
 CCSD(T)
 CCSD(T)= -0.14836843920D+03
 P4SDTQ=-148.3723773\MP4SDQ=-148.3513156\CCSD=-148.3499432\CCSD(T)=-148
 Normal termination of Gaussian 09 at Fri Aug 26 11:38:39 2022.

 ---------------------------------------------------------
 #P Geom=AllCheck Guess=TCheck SCRF=Check MP4=FrzG4/GTBas2
 ---------------------------------------------------------

 Structure from the checkpoint file:  "G4.Frag_1077.chk"
 ---------
 Frag_1077
 ---------
 Charge =  0 Multiplicity = 1

 SCF Done:  E(RHF) =  -147.899254707     A.U. after   12 cycles
 E2 =    -0.4496173650D+00 EUMP2 =    -0.14834887207223D+03
 Normal termination of Gaussian 09 at Fri Aug 26 11:38:42 2022.

 ---------------------------------------------------------
 #P Geom=AllCheck Guess=TCheck SCRF=Check MP4=FrzG4/GTBas3
 ---------------------------------------------------------

 Structure from the checkpoint file:  "G4.Frag_1077.chk"
 ---------
 Frag_1077
 ---------
 Charge =  0 Multiplicity = 1

 SCF Done:  E(RHF) =  -147.916873398     A.U. after   11 cycles
 E2 =    -0.5249166297D+00 EUMP2 =    -0.14844179002812D+03
 Normal termination of Gaussian 09 at Fri Aug 26 11:38:49 2022.

 -----------------------------------------------------------
 #P Geom=AllCheck Guess=TCheck SCRF=Check MP2=Full/GTLargeXP
 -----------------------------------------------------------

 Structure from the checkpoint file:  "G4.Frag_1077.chk"
 ---------
 Frag_1077
 ---------
 Charge =  0 Multiplicity = 1

 SCF Done:  E(RHF) =  -147.957098086     A.U. after   12 cycles
 E2 =    -0.6892349228D+00 EUMP2 =    -0.14864633300893D+03
 Normal termination of Gaussian 09 at Fri Aug 26 11:38:55 2022.
 SCF Done:  E(RHF) =  -147.968342285     A.U. after    9 cycles
 Normal termination of Gaussian 09 at Fri Aug 26 11:39:03 2022.

                         Standard orientation:
 ---------------------------------------------------------------------
 Center     Atomic      Atomic             Coordinates (Angstroms)
 Number     Number       Type             X           Y           Z
 ---------------------------------------------------------------------
      1          7           0       -1.214956    0.074482    0.104647
      2          6           0       -0.000017   -0.016530   -0.000858
      3          7           0        1.215050    0.084225   -0.097014
      4          1           0       -1.806287   -0.482849   -0.498978
      5          1           0        1.805726   -0.528917    0.450693
 ---------------------------------------------------------------------

 SCF Done:  E(RHF) =  -147.970598604     A.U. after    8 cycles

 The electronic state is 1-A.
 Alpha  occ. eigenvalues --  -15.57926 -15.57922 -11.36742  -1.28826  -1.20390
 Alpha  occ. eigenvalues --   -0.79991  -0.74051  -0.58761  -0.57900  -0.42890
 Alpha  occ. eigenvalues --   -0.42760
 Alpha virt. eigenvalues --    0.03736   0.04734   0.05586   0.05821   0.10406
 Alpha virt. eigenvalues --    0.10805   0.11237   0.13694   0.13895   0.13967
 Alpha virt. eigenvalues --    0.17340   0.17960   0.18622   0.19912   0.21769

 Mulliken charges:
               1
     1  N   -0.626612
     2  C    0.593988
     3  N   -0.626693
     4  H    0.329697
     5  H    0.329620
 Sum of Mulliken charges =  -0.00000

 Dipole moment (field-independent basis, Debye):
    X=             -0.0025    Y=             -2.1670    Z=             -0.1040  Tot=              2.1695
 Quadrupole moment (field-independent basis, Debye-Ang):
   XX=            -16.2055   YY=            -17.6851   ZZ=            -17.8482
   XY=             -0.2097   XZ=              4.3500   YZ=              0.0069

 Normal termination of Gaussian 09 at Fri Aug 26 11:39:36 2022.
