 Gaussian 09, Revision E.01,
 Gaussian 09:  ES64L-G09RevE.01 30-Nov-2015

 -----
 #P G4
 -----

 ---------
 Frag_1048
 ---------
 Symbolic Z-matrix:
 Charge =  0 Multiplicity = 1

 SCF Done:  E(RB3LYP) =  -396.230223677     A.U. after   13 cycles
 SCF Done:  E(RB3LYP) =  -396.241396814     A.U. after   11 cycles
 SCF Done:  E(RB3LYP) =  -396.242818472     A.U. after   11 cycles
 SCF Done:  E(RB3LYP) =  -396.243300252     A.U. after   10 cycles
 SCF Done:  E(RB3LYP) =  -396.243571686     A.U. after   11 cycles
 SCF Done:  E(RB3LYP) =  -396.244531483     A.U. after   12 cycles
 SCF Done:  E(RB3LYP) =  -396.245435024     A.U. after   12 cycles
 SCF Done:  E(RB3LYP) =  -396.247412223     A.U. after   11 cycles
 SCF Done:  E(RB3LYP) =  -396.249572311     A.U. after   11 cycles
 SCF Done:  E(RB3LYP) =  -396.250273152     A.U. after   11 cycles
 SCF Done:  E(RB3LYP) =  -396.252572345     A.U. after    7 cycles
 SCF Done:  E(RB3LYP) =  -396.252572920     A.U. after    7 cycles
 SCF Done:  E(RB3LYP) =  -396.252573088     A.U. after    7 cycles
 Optimization completed.
    -- Stationary point found.
 Normal termination of Gaussian 09 at Fri Aug 26 11:35:16 2022.

 ----------------------------------------------------------
 #P Geom=AllCheck Guess=TCheck SCRF=Check B3LYP/GTBas3 Freq
 ----------------------------------------------------------

 Structure from the checkpoint file:  "G4.Frag_1048.chk"
 ---------
 Frag_1048
 ---------
 Charge =  0 Multiplicity = 1

 SCF Done:  E(RB3LYP) =  -396.252573088     A.U. after    1 cycles

  Exact polarizability:  58.649  -0.533  57.066   1.333   0.738  48.286
 Approx polarizability:  78.640  -1.578  82.399   1.262   2.226  70.725

                      1                      2                      3
                      A                      A                      A
 Frequencies --    125.9033               199.6193               227.6607
 Red. masses --      3.9228                 1.0644                 1.0654
 Frc consts  --      0.0366                 0.0250                 0.0325
 IR Inten    --      3.4786                 1.2786                24.8343

                      4                      5                      6
                      A                      A                      A
 Frequencies --    246.6170               259.6025               289.6269
 Red. masses --      1.2441                 1.5643                 2.0192
 Frc consts  --      0.0446                 0.0621                 0.0998
 IR Inten    --     42.9715                23.4068                79.9843

                      7                      8                      9
                      A                      A                      A
 Frequencies --    303.8695               378.4732               385.4169
 Red. masses --      2.2114                 2.1331                 3.1133
 Frc consts  --      0.1203                 0.1800                 0.2725
 IR Inten    --      2.1038                 4.4080                 3.1035

                     10                     11                     12
                      A                      A                      A
 Frequencies --    395.9831               452.5420               535.6499
 Red. masses --      1.5288                 3.4007                 3.2942
 Frc consts  --      0.1412                 0.4103                 0.5569
 IR Inten    --     67.8996                10.9148                19.5237

                     13                     14                     15
                      A                      A                      A
 Frequencies --    551.8032               621.4778               759.2764
 Red. masses --      3.4449                 5.0917                 3.8582
 Frc consts  --      0.6180                 1.1587                 1.3105
 IR Inten    --      7.8687                 5.5112                11.2547

                     16                     17                     18
                      A                      A                      A
 Frequencies --    819.3350               892.3374               907.4925
 Red. masses --      2.6207                 1.5178                 3.3173
 Frc consts  --      1.0365                 0.7121                 1.6096
 IR Inten    --     41.7579               201.6470               182.7358

                     19                     20                     21
                      A                      A                      A
 Frequencies --    925.1365               975.8398              1010.6226
 Red. masses --      1.9715                 1.6351                 3.9343
 Frc consts  --      0.9942                 0.9174                 2.3676
 IR Inten    --     13.2971                 1.7206                34.2813

                     22                     23                     24
                      A                      A                      A
 Frequencies --   1028.1083              1112.2390              1220.9685
 Red. masses --      1.8777                 1.5706                 2.5088
 Frc consts  --      1.1694                 1.1448                 2.2035
 IR Inten    --     24.6932                18.2286                73.4095

                     25                     26                     27
                      A                      A                      A
 Frequencies --   1316.5462              1358.0283              1367.3934
 Red. masses --      1.8821                 1.2015                 1.7906
 Frc consts  --      1.9221                 1.3055                 1.9725
 IR Inten    --     50.4016                35.4532                37.9121

                     28                     29                     30
                      A                      A                      A
 Frequencies --   1396.4184              1422.9284              1482.4289
 Red. masses --      1.3154                 1.2671                 1.0533
 Frc consts  --      1.5113                 1.5116                 1.3639
 IR Inten    --     27.8844                17.4301                 1.2421

                     31                     32                     33
                      A                      A                      A
 Frequencies --   1502.0355              1635.4549              1644.0095
 Red. masses --      1.0652                 1.1033                 1.1061
 Frc consts  --      1.4160                 1.7387                 1.7613
 IR Inten    --      0.4008                45.1445                33.4583

                     34                     35                     36
                      A                      A                      A
 Frequencies --   3042.5524              3114.2857              3148.9891
 Red. masses --      1.0389                 1.0980                 1.1012
 Frc consts  --      5.6665                 6.2741                 6.4335
 IR Inten    --     18.0049                22.0940                12.8511

                     37                     38                     39
                      A                      A                      A
 Frequencies --   3489.3972              3507.8901              3572.6667
 Red. masses --      1.0485                 1.0483                 1.0923
 Frc consts  --      7.5217                 7.6003                 8.2144
 IR Inten    --      2.2052                 2.2771                 1.2749

                     40                     41                     42
                      A                      A                      A
 Frequencies --   3592.9523              3798.4952              3808.1412
 Red. masses --      1.0928                 1.0678                 1.0682
 Frc consts  --      8.3121                 9.0777                 9.1267
 IR Inten    --      3.4734                39.5751                43.9595

 - Thermochemistry -
 -------------------
 Temperature   298.150 Kelvin.  Pressure   1.00000 Atm.
 Atom     1 has atomic number  6 and mass  12.00000

 Molecular mass:   107.06948 amu.
 Principal axes and moments of inertia in atomic units:
                           1         2         3
     Eigenvalues --   538.72870 719.20104 876.14625
           X            0.99939   0.03226   0.01355
           Y           -0.03203   0.99935  -0.01677
           Z           -0.01408   0.01633   0.99977
 This molecule is an asymmetric top.
 Rotational symmetry number  1.
 Warning -- assumption of classical behavior for rotation
           may cause significant error
 Rotational temperatures (Kelvin)      0.16077     0.12043     0.09886
 Rotational constants (GHZ):           3.35000     2.50937     2.05986
 Zero-point vibrational energy     351858.9 (Joules/Mol)
                                   84.09630 (Kcal/Mol)
 Warning -- explicit consideration of  13 degrees of freedom as
           vibrations may cause significant error
 Vibrational temperatures:    181.15   287.21   327.55   354.83   373.51
          (Kelvin)            416.71   437.20   544.54   554.53   569.73
                              651.11   770.68   793.92   894.17  1092.43
                             1178.84  1283.87  1305.68  1331.06  1404.01
                             1454.06  1479.22  1600.26  1756.70  1894.21
                             1953.90  1967.37  2009.13  2047.27  2132.88
                             2161.09  2353.05  2365.36  4377.55  4480.76
                             4530.69  5020.46  5047.07  5140.26  5169.45
                             5465.18  5479.06

 Zero-point correction=                           0.134016 (Hartree/Particle)
 Thermal correction to Energy=                    0.142720
 Thermal correction to Enthalpy=                  0.143665
 Thermal correction to Gibbs Free Energy=         0.102192
 Sum of electronic and zero-point Energies=           -396.118557
 Sum of electronic and thermal Energies=              -396.109853
 Sum of electronic and thermal Enthalpies=            -396.108909
 Sum of electronic and thermal Free Energies=         -396.150381

                     E (Thermal)             CV                S
                      KCal/Mol        Cal/Mol-Kelvin    Cal/Mol-Kelvin
 Total                   89.558             32.764             87.286
 Electronic               0.000              0.000              0.000
 Translational            0.889              2.981             39.922
 Rotational               0.889              2.981             27.320
 Vibrational             87.781             26.802             20.044
 Vibration     1          0.611              1.927              3.008
 Vibration     2          0.638              1.840              2.137
 Vibration     3          0.651              1.799              1.897
 Vibration     4          0.661              1.768              1.755
 Vibration     5          0.668              1.747              1.664
 Vibration     6          0.686              1.693              1.476
 Vibration     7          0.695              1.666              1.396
 Vibration     8          0.749              1.516              1.045
 Vibration     9          0.754              1.501              1.018
 Vibration    10          0.763              1.479              0.978
 Vibration    11          0.811              1.355              0.788
 Vibration    12          0.891              1.171              0.575
 Vibration    13          0.907              1.136              0.540

 Optimization completed.
    -- Stationary point found.
 Normal termination of Gaussian 09 at Fri Aug 26 11:36:05 2022.

 -----------------------------------------------------------------
 #P Geom=AllCheck Guess=TCheck SCRF=Check CCSD(T,E4T,FrzG4)/GTBas1
 -----------------------------------------------------------------

 Structure from the checkpoint file:  "G4.Frag_1048.chk"
 ---------
 Frag_1048
 ---------
 Charge =  0 Multiplicity = 1

 SCF Done:  E(RHF) =  -393.905863370     A.U. after   12 cycles
 E2 =    -0.1125048023D+01 EUMP2 =    -0.39503091139271D+03
 CCSD(T)
 CCSD(T)= -0.39511643776D+03
 DTQ=-395.1169081\MP4SDQ=-395.0829351\CCSD=-395.0833\CCSD(T)=-395.11643
 Normal termination of Gaussian 09 at Fri Aug 26 11:40:20 2022.

 ---------------------------------------------------------
 #P Geom=AllCheck Guess=TCheck SCRF=Check MP4=FrzG4/GTBas2
 ---------------------------------------------------------

 Structure from the checkpoint file:  "G4.Frag_1048.chk"
 ---------
 Frag_1048
 ---------
 Charge =  0 Multiplicity = 1

 SCF Done:  E(RHF) =  -393.921667195     A.U. after   13 cycles
 E2 =    -0.1147084481D+01 EUMP2 =    -0.39506875167611D+03
 Normal termination of Gaussian 09 at Fri Aug 26 11:41:44 2022.

 ---------------------------------------------------------
 #P Geom=AllCheck Guess=TCheck SCRF=Check MP4=FrzG4/GTBas3
 ---------------------------------------------------------

 Structure from the checkpoint file:  "G4.Frag_1048.chk"
 ---------
 Frag_1048
 ---------
 Charge =  0 Multiplicity = 1

 SCF Done:  E(RHF) =  -393.963693611     A.U. after   12 cycles
 E2 =    -0.1382404585D+01 EUMP2 =    -0.39534609819605D+03
 Normal termination of Gaussian 09 at Fri Aug 26 11:53:43 2022.

 -----------------------------------------------------------
 #P Geom=AllCheck Guess=TCheck SCRF=Check MP2=Full/GTLargeXP
 -----------------------------------------------------------

 Structure from the checkpoint file:  "G4.Frag_1048.chk"
 ---------
 Frag_1048
 ---------
 Charge =  0 Multiplicity = 1

 SCF Done:  E(RHF) =  -394.073604179     A.U. after   12 cycles
 E2 =    -0.1794297717D+01 EUMP2 =    -0.39586790189592D+03
 Normal termination of Gaussian 09 at Fri Aug 26 11:57:27 2022.
 SCF Done:  E(RHF) =  -394.105445805     A.U. after    9 cycles
 Normal termination of Gaussian 09 at Fri Aug 26 12:01:02 2022.

                         Standard orientation:
 ---------------------------------------------------------------------
 Center     Atomic      Atomic             Coordinates (Angstroms)
 Number     Number       Type             X           Y           Z
 ---------------------------------------------------------------------
      1          6           0        1.379888    1.091643   -0.651094
      2          6           0        0.591732   -0.046687    0.011320
      3          7           0        1.111004   -1.316764   -0.453983
      4          7           0        0.550186    0.012900    1.476383
      5          7           0       -0.802373    0.035089   -0.527015
      6          8           0       -1.510261   -1.082406    0.006049
      7          8           0       -1.378801    1.186817    0.093631
      8          1           0        0.943978    2.055764   -0.386542
      9          1           0        2.417016    1.072221   -0.298874
     10          1           0        1.377657    0.981748   -1.738416
     11          1           0        0.744545   -2.043878    0.152390
     12          1           0        2.122149   -1.323144   -0.373390
     13          1           0        1.498746    0.095878    1.829945
     14          1           0        0.046330    0.845369    1.769684
     15          1           0       -1.929745   -1.444765   -0.782632
     16          1           0       -1.949618    1.537203   -0.598655
 ---------------------------------------------------------------------

 SCF Done:  E(RHF) =  -394.112440915     A.U. after    8 cycles

 The electronic state is 1-A.
 Alpha  occ. eigenvalues --  -20.59391 -20.58663 -15.67097 -15.53922 -15.53549
 Alpha  occ. eigenvalues --  -11.32391 -11.21825  -1.46186  -1.34338  -1.23813
 Alpha  occ. eigenvalues --   -1.12766  -1.04547  -0.96447  -0.78799  -0.72776
 Alpha  occ. eigenvalues --   -0.70752  -0.68978  -0.65210  -0.62217  -0.61060
 Alpha  occ. eigenvalues --   -0.59214  -0.55911  -0.55115  -0.52667  -0.49831
 Alpha  occ. eigenvalues --   -0.48272  -0.42568  -0.40951  -0.39534
 Alpha virt. eigenvalues --    0.03383   0.04645   0.05127   0.05596   0.07203
 Alpha virt. eigenvalues --    0.07262   0.07647   0.08515   0.09036   0.11171
 Alpha virt. eigenvalues --    0.12034   0.12737   0.13187   0.14279   0.14883

 Mulliken charges:
               1
     1  C   -0.580117
     2  C    0.590979
     3  N   -0.816740
     4  N   -0.724064
     5  N    0.037072
     6  O   -0.531627
     7  O   -0.535689
     8  H    0.190110
     9  H    0.157824
    10  H    0.189730
    11  H    0.337192
    12  H    0.287531
    13  H    0.282425
    14  H    0.315925
    15  H    0.401292
    16  H    0.398155
 Sum of Mulliken charges =  -0.00000

 Dipole moment (field-independent basis, Debye):
    X=              0.9963    Y=              1.1821    Z=             -1.0458  Tot=              1.8664
 Quadrupole moment (field-independent basis, Debye-Ang):
   XX=            -35.4232   YY=            -40.3717   ZZ=            -45.1634
   XY=             -1.0079   XZ=              7.0245   YZ=              0.3175

 Normal termination of Gaussian 09 at Fri Aug 26 12:12:42 2022.
