 Gaussian 09, Revision E.01,
 Gaussian 09:  ES64L-G09RevE.01 30-Nov-2015

 -----
 #P G4
 -----

 ---------
 Frag_1076
 ---------
 Symbolic Z-matrix:
 Charge =  0 Multiplicity = 1

 SCF Done:  E(RB3LYP) =  -188.075009924     A.U. after   14 cycles
 SCF Done:  E(RB3LYP) =  -188.088432463     A.U. after   14 cycles
 SCF Done:  E(RB3LYP) =  -188.091900097     A.U. after   13 cycles
 SCF Done:  E(RB3LYP) =  -188.094599485     A.U. after   13 cycles
 SCF Done:  E(RB3LYP) =  -188.095737181     A.U. after   12 cycles
 SCF Done:  E(RB3LYP) =  -188.096278171     A.U. after   12 cycles
 SCF Done:  E(RB3LYP) =  -188.096943560     A.U. after   13 cycles
 SCF Done:  E(RB3LYP) =  -188.097375268     A.U. after   14 cycles
 SCF Done:  E(RB3LYP) =  -188.096136110     A.U. after   13 cycles
 SCF Done:  E(RB3LYP) =  -188.097552474     A.U. after   11 cycles
 SCF Done:  E(RB3LYP) =  -188.105891380     A.U. after   10 cycles
 SCF Done:  E(RB3LYP) =  -188.105895481     A.U. after    9 cycles
 SCF Done:  E(RB3LYP) =  -188.105895809     A.U. after    7 cycles
 Optimization completed.
    -- Stationary point found.
 Normal termination of Gaussian 09 at Fri Aug 26 14:30:33 2022.

 ----------------------------------------------------------
 #P Geom=AllCheck Guess=TCheck SCRF=Check B3LYP/GTBas3 Freq
 ----------------------------------------------------------

 Structure from the checkpoint file:  "G4.Frag_1076.chk"
 ---------
 Frag_1076
 ---------
 Charge =  0 Multiplicity = 1

 SCF Done:  E(RB3LYP) =  -188.105895809     A.U. after    1 cycles

  Exact polarizability:  58.016  -4.044  24.690   0.587  -0.085  24.306
 Approx polarizability:  94.935 -14.611  37.502  -1.981   0.560  34.383

                      1                      2                      3
                      A                      A                      A
 Frequencies --     83.9532               195.8613               478.8077
 Red. masses --      1.2536                 3.7227                 1.8172
 Frc consts  --      0.0052                 0.0841                 0.2455
 IR Inten    --      4.1907                13.2372                62.6141

                      4                      5                      6
                      A                      A                      A
 Frequencies --    580.0018               652.0423               896.4939
 Red. masses --      1.8823                 5.7146                 4.8787
 Frc consts  --      0.3731                 1.4315                 2.3102
 IR Inten    --     63.9076                15.4952                18.6343

                      7                      8                      9
                      A                      A                      A
 Frequencies --    956.0881              1141.8896              1147.1600
 Red. masses --      1.5047                 1.3204                 1.2979
 Frc consts  --      0.8104                 1.0144                 1.0063
 IR Inten    --    253.4986                 7.7469                 1.0478

                     10                     11                     12
                      A                      A                      A
 Frequencies --   1408.3741              1461.0488              1491.0546
 Red. masses --      5.5047                 1.1918                 1.0418
 Frc consts  --      6.4330                 1.4990                 1.3647
 IR Inten    --     13.6466                26.7833                 4.1048

                     13                     14                     15
                      A                      A                      A
 Frequencies --   1505.6361              2265.5733              3026.2143
 Red. masses --      1.0925                10.4003                 1.0329
 Frc consts  --      1.4592                31.4524                 5.5733
 IR Inten    --     12.0023               776.5674                54.5856

                     16                     17                     18
                      A                      A                      A
 Frequencies --   3097.9200              3101.8026              3578.1936
 Red. masses --      1.1037                 1.1028                 1.0782
 Frc consts  --      6.2410                 6.2512                 8.1337
 IR Inten    --     21.9500                17.9270                50.0316

 - Thermochemistry -
 -------------------
 Temperature   298.150 Kelvin.  Pressure   1.00000 Atm.
 Atom     1 has atomic number  6 and mass  12.00000

 Molecular mass:    56.03745 amu.
 Principal axes and moments of inertia in atomic units:
                           1         2         3
     Eigenvalues --    32.42252 403.67562 419.90598
           X            0.99982   0.01218   0.01464
           Y           -0.01140   0.99857  -0.05222
           Z           -0.01525   0.05204   0.99853
 This molecule is an asymmetric top.
 Rotational symmetry number  1.
 Rotational temperatures (Kelvin)      2.67141     0.21456     0.20627
 Rotational constants (GHZ):          55.66320     4.47077     4.29796
 Zero-point vibrational energy     161903.3 (Joules/Mol)
                                   38.69581 (Kcal/Mol)
 Warning -- explicit consideration of   4 degrees of freedom as
           vibrations may cause significant error
 Vibrational temperatures:    120.79   281.80   688.90   834.49   938.14
          (Kelvin)           1289.85  1375.60  1642.92  1650.51  2026.33
                             2102.12  2145.29  2166.27  3259.65  4354.04
                             4457.21  4462.80  5148.22

 Zero-point correction=                           0.061666 (Hartree/Particle)
 Thermal correction to Energy=                    0.066540
 Thermal correction to Enthalpy=                  0.067484
 Thermal correction to Gibbs Free Energy=         0.034623
 Sum of electronic and zero-point Energies=           -188.044230
 Sum of electronic and thermal Energies=              -188.039356
 Sum of electronic and thermal Enthalpies=            -188.038412
 Sum of electronic and thermal Free Energies=         -188.071273

                     E (Thermal)             CV                S
                      KCal/Mol        Cal/Mol-Kelvin    Cal/Mol-Kelvin
 Total                   41.754             14.828             69.162
 Electronic               0.000              0.000              0.000
 Translational            0.889              2.981             37.992
 Rotational               0.889              2.981             23.223
 Vibrational             39.977              8.866              7.947
 Vibration     1          0.601              1.960              3.796
 Vibration     2          0.636              1.846              2.172
 Vibration     3          0.835              1.297              0.713
 Vibration     4          0.937              1.075              0.485

 Normal termination of Gaussian 09 at Fri Aug 26 14:30:45 2022.

 -----------------------------------------------------------------
 #P Geom=AllCheck Guess=TCheck SCRF=Check CCSD(T,E4T,FrzG4)/GTBas1
 -----------------------------------------------------------------

 Structure from the checkpoint file:  "G4.Frag_1076.chk"
 ---------
 Frag_1076
 ---------
 Charge =  0 Multiplicity = 1

 SCF Done:  E(RHF) =  -186.922629698     A.U. after   13 cycles
 E2 =    -0.5740628344D+00 EUMP2 =    -0.18749669253238D+03
 CCSD(T)
 CCSD(T)= -0.18754271507D+03
 87.5468733\MP4SDQ=-187.5205707\CCSD=-187.5193328\CCSD(T)=-187.5427151\
 Normal termination of Gaussian 09 at Fri Aug 26 14:31:04 2022.

 ---------------------------------------------------------
 #P Geom=AllCheck Guess=TCheck SCRF=Check MP4=FrzG4/GTBas2
 ---------------------------------------------------------

 Structure from the checkpoint file:  "G4.Frag_1076.chk"
 ---------
 Frag_1076
 ---------
 Charge =  0 Multiplicity = 1

 SCF Done:  E(RHF) =  -186.928157885     A.U. after   13 cycles
 E2 =    -0.5805260275D+00 EUMP2 =    -0.18750868391293D+03
 Normal termination of Gaussian 09 at Fri Aug 26 14:31:11 2022.

 ---------------------------------------------------------
 #P Geom=AllCheck Guess=TCheck SCRF=Check MP4=FrzG4/GTBas3
 ---------------------------------------------------------

 Structure from the checkpoint file:  "G4.Frag_1076.chk"
 ---------
 Frag_1076
 ---------
 Charge =  0 Multiplicity = 1

 SCF Done:  E(RHF) =  -186.948165594     A.U. after   12 cycles
 E2 =    -0.6871384219D+00 EUMP2 =    -0.18763530401634D+03
 Normal termination of Gaussian 09 at Fri Aug 26 14:31:33 2022.

 -----------------------------------------------------------
 #P Geom=AllCheck Guess=TCheck SCRF=Check MP2=Full/GTLargeXP
 -----------------------------------------------------------

 Structure from the checkpoint file:  "G4.Frag_1076.chk"
 ---------
 Frag_1076
 ---------
 Charge =  0 Multiplicity = 1

 SCF Done:  E(RHF) =  -186.995186276     A.U. after   12 cycles
 E2 =    -0.9034165360D+00 EUMP2 =    -0.18789860281221D+03
 Normal termination of Gaussian 09 at Fri Aug 26 14:31:49 2022.
 SCF Done:  E(RHF) =  -187.009324302     A.U. after    8 cycles
 Normal termination of Gaussian 09 at Fri Aug 26 14:32:07 2022.

                         Standard orientation:
 ---------------------------------------------------------------------
 Center     Atomic      Atomic             Coordinates (Angstroms)
 Number     Number       Type             X           Y           Z
 ---------------------------------------------------------------------
      1          6           0        1.701297    0.239200   -0.000592
      2          7           0        0.463576   -0.514146   -0.018716
      3          6           0       -0.680824   -0.111959   -0.014232
      4          7           0       -1.866888    0.177126    0.130134
      5          1           0        1.543812    1.320934    0.069630
      6          1           0        2.271780    0.023239   -0.909286
      7          1           0        2.305588   -0.084433    0.852100
      8          1           0       -2.420834    0.335958   -0.703427
 ---------------------------------------------------------------------

 SCF Done:  E(RHF) =  -187.012184210     A.U. after    8 cycles

 The electronic state is 1-A.
 Alpha  occ. eigenvalues --  -15.57489 -15.56666 -11.35228 -11.27833  -1.28587
 Alpha  occ. eigenvalues --   -1.20403  -0.97413  -0.76029  -0.68990  -0.62813
 Alpha  occ. eigenvalues --   -0.62292  -0.54997  -0.52978  -0.40366  -0.40002
 Alpha virt. eigenvalues --    0.03598   0.04224   0.05236   0.05462   0.07127
 Alpha virt. eigenvalues --    0.07219   0.07791   0.12174   0.12623   0.12837
 Alpha virt. eigenvalues --    0.14386   0.14729   0.14814   0.17237   0.18092

 Mulliken charges:
               1
     1  C   -0.397956
     2  N   -0.366225
     3  C    0.543867
     4  N   -0.662116
     5  H    0.173827
     6  H    0.192794
     7  H    0.194700
     8  H    0.321109
 Sum of Mulliken charges =   0.00000

 Dipole moment (field-independent basis, Debye):
    X=              1.2918    Y=              1.2432    Z=             -1.5043  Tot=              2.3403
 Quadrupole moment (field-independent basis, Debye-Ang):
   XX=            -21.7978   YY=            -25.9138   ZZ=            -23.7683
   XY=              0.6622   XZ=              4.1119   YZ=             -0.6443

 Normal termination of Gaussian 09 at Fri Aug 26 14:34:06 2022.
