 Gaussian 09, Revision E.01,
 Gaussian 09:  ES64L-G09RevE.01 30-Nov-2015

 ----------------
 #P G4 OPT=calcfc
 ----------------

 --------
 Frag_300
 --------
 Symbolic Z-matrix:
 Charge =  0 Multiplicity = 1

 SCF Done:  E(RB3LYP) =  -229.858395145     A.U. after   12 cycles
 SCF Done:  E(RB3LYP) =  -229.862895091     A.U. after   10 cycles
 SCF Done:  E(RB3LYP) =  -229.863025487     A.U. after   10 cycles
 SCF Done:  E(RB3LYP) =  -229.863026970     A.U. after    7 cycles
 Optimization completed.
    -- Stationary point found.
 Normal termination of Gaussian 09 at Wed Sep  8 07:39:49 2021.

 ----------------------------------------------------------
 #P Geom=AllCheck Guess=TCheck SCRF=Check B3LYP/GTBas3 Freq
 ----------------------------------------------------------

 Structure from the checkpoint file:  "/public/home/users/caep010/.cache/gau_scr/Gau-61414.chk"
 --------
 Frag_300
 --------
 Charge =  0 Multiplicity = 1

 SCF Done:  E(RB3LYP) =  -229.863026970     A.U. after    1 cycles

  Exact polarizability:  50.353   1.189  48.683   0.078   1.040  48.378
 Approx polarizability:  67.891   2.087  66.569   0.742   1.822  68.407

                      1                      2                      3
                      A                      A                      A
 Frequencies --    214.6744               255.2340               280.3647
 Red. masses --      1.0228                 1.0686                 1.0452
 Frc consts  --      0.0278                 0.0410                 0.0484
 IR Inten    --      9.8663                 8.7435                11.6124

                      4                      5                      6
                      A                      A                      A
 Frequencies --    300.0266               346.6712               358.9975
 Red. masses --      1.1390                 1.9513                 2.4978
 Frc consts  --      0.0604                 0.1382                 0.1897
 IR Inten    --     29.1955                13.5487                 4.5384

                      7                      8                      9
                      A                      A                      A
 Frequencies --    438.0464               472.5494               475.4172
 Red. masses --      2.2920                 2.5027                 2.3634
 Frc consts  --      0.2591                 0.3293                 0.3147
 IR Inten    --      0.4262                17.7103                18.3047

                     10                     11                     12
                      A                      A                      A
 Frequencies --    758.2685               884.3105               890.9685
 Red. masses --      4.0628                 1.7881                 1.7581
 Frc consts  --      1.3763                 0.8238                 0.8223
 IR Inten    --      4.1589               119.8871               121.3971

                     13                     14                     15
                      A                      A                      A
 Frequencies --    924.0004               938.9140               993.8667
 Red. masses --      1.6153                 1.4822                 1.3332
 Frc consts  --      0.8125                 0.7699                 0.7759
 IR Inten    --      0.4554                17.1767                 8.3779

                     16                     17                     18
                      A                      A                      A
 Frequencies --   1011.1662              1057.9264              1150.0248
 Red. masses --      1.3942                 1.4610                 1.3810
 Frc consts  --      0.8399                 0.9634                 1.0761
 IR Inten    --      9.7399                24.8274                12.1342

                     19                     20                     21
                      A                      A                      A
 Frequencies --   1224.8558              1314.4208              1371.6517
 Red. masses --      2.5500                 2.0681                 1.5295
 Frc consts  --      2.2541                 2.1052                 1.6955
 IR Inten    --     54.0952                27.2899                 3.1256

                     22                     23                     24
                      A                      A                      A
 Frequencies --   1402.3377              1414.3801              1479.0684
 Red. masses --      1.4895                 1.2919                 1.0468
 Frc consts  --      1.7258                 1.5227                 1.3492
 IR Inten    --     16.5334                10.2499                 0.0622

                     25                     26                     27
                      A                      A                      A
 Frequencies --   1484.9961              1496.4254              1505.2249
 Red. masses --      1.0638                 1.0565                 1.0692
 Frc consts  --      1.3821                 1.3939                 1.4273
 IR Inten    --      0.2162                 0.9748                 3.3367

                     28                     29                     30
                      A                      A                      A
 Frequencies --   1648.4644              1663.7413              3023.8719
 Red. masses --      1.1011                 1.0962                 1.0373
 Frc consts  --      1.7629                 1.7878                 5.5883
 IR Inten    --     25.1959                23.1872                25.8875

                     31                     32                     33
                      A                      A                      A
 Frequencies --   3039.8106              3091.1708              3106.3256
 Red. masses --      1.0367                 1.0981                 1.1003
 Frc consts  --      5.6444                 6.1822                 6.2553
 IR Inten    --     14.1338                30.7014                20.9922

                     34                     35                     36
                      A                      A                      A
 Frequencies --   3113.4711              3132.3698              3455.2399
 Red. masses --      1.1021                 1.1016                 1.0490
 Frc consts  --      6.2943                 6.3681                 7.3787
 IR Inten    --     27.7269                24.6306                 3.0789

                     37                     38                     39
                      A                      A                      A
 Frequencies --   3471.2472              3535.8170              3548.6835
 Red. masses --      1.0490                 1.0915                 1.0913
 Frc consts  --      7.4472                 8.0400                 8.0972
 IR Inten    --      1.2675                 1.6265                 0.6484

 - Thermochemistry -
 -------------------
 Temperature   298.150 Kelvin.  Pressure   1.00000 Atm.
 Atom     1 has atomic number  6 and mass  12.00000

 Molecular mass:    74.08440 amu.
 Principal axes and moments of inertia in atomic units:
                           1         2         3
     Eigenvalues --   379.13530 389.89796 394.37652
           X            0.96633   0.20909  -0.14993
           Y           -0.15807   0.94225   0.29526
           Z            0.20300  -0.26162   0.94358
 This molecule is an asymmetric top.
 Rotational symmetry number  1.
 Rotational temperatures (Kelvin)      0.22845     0.22214     0.21962
 Rotational constants (GHZ):           4.76015     4.62875     4.57619
 Zero-point vibrational energy     360524.6 (Joules/Mol)
                                   86.16744 (Kcal/Mol)
 Warning -- explicit consideration of   9 degrees of freedom as
           vibrations may cause significant error
 Vibrational temperatures:    308.87   367.22   403.38   431.67   498.78
          (Kelvin)            516.52   630.25   679.89   684.02  1090.98
                             1272.32  1281.90  1329.43  1350.89  1429.95
                             1454.84  1522.12  1654.63  1762.29  1891.16
                             1973.50  2017.65  2034.98  2128.05  2136.58
                             2153.02  2165.68  2371.77  2393.75  4350.67
                             4373.60  4447.50  4469.30  4479.58  4506.78
                             4971.31  4994.34  5087.25  5105.76

 Zero-point correction=                           0.137317 (Hartree/Particle)
 Thermal correction to Energy=                    0.144008
 Thermal correction to Enthalpy=                  0.144952
 Thermal correction to Gibbs Free Energy=         0.108411
 Sum of electronic and zero-point Energies=           -229.725710
 Sum of electronic and thermal Energies=              -229.719019
 Sum of electronic and thermal Enthalpies=            -229.718075
 Sum of electronic and thermal Free Energies=         -229.754616

                     E (Thermal)             CV                S
                      KCal/Mol        Cal/Mol-Kelvin    Cal/Mol-Kelvin
 Total                   90.366             25.088             76.906
 Electronic               0.000              0.000              0.000
 Translational            0.889              2.981             38.824
 Rotational               0.889              2.981             25.570
 Vibrational             88.589             19.127             12.512
 Vibration     1          0.645              1.819              2.004
 Vibration     2          0.666              1.754              1.694
 Vibration     3          0.680              1.710              1.531
 Vibration     4          0.693              1.674              1.417
 Vibration     5          0.725              1.582              1.181
 Vibration     6          0.734              1.557              1.126
 Vibration     7          0.798              1.387              0.833
 Vibration     8          0.829              1.311              0.730
 Vibration     9          0.832              1.305              0.723

 Optimization completed.
    -- Stationary point found.
 Normal termination of Gaussian 09 at Wed Sep  8 07:40:19 2021.

 -----------------------------------------------------------------
 #P Geom=AllCheck Guess=TCheck SCRF=Check CCSD(T,E4T,FrzG4)/GTBas1
 -----------------------------------------------------------------

 Structure from the checkpoint file:  "/public/home/users/caep010/.cache/gau_scr/Gau-61414.chk"
 --------
 Frag_300
 --------
 Charge =  0 Multiplicity = 1

 SCF Done:  E(RHF) =  -228.312098258     A.U. after   11 cycles
 E2 =    -0.7284088805D+00 EUMP2 =    -0.22904050713818D+03
 CCSD(T)
 CCSD(T)= -0.22911737789D+03
 29.0960563\CCSD(T)=-229.1173779\RMSD=7.475e-09\PG=C01 [X(C3H10N2)]\\@
 Normal termination of Gaussian 09 at Wed Sep  8 07:41:32 2021.

 ---------------------------------------------------------
 #P Geom=AllCheck Guess=TCheck SCRF=Check MP4=FrzG4/GTBas2
 ---------------------------------------------------------

 Structure from the checkpoint file:  "/public/home/users/caep010/.cache/gau_scr/Gau-61414.chk"
 --------
 Frag_300
 --------
 Charge =  0 Multiplicity = 1

 SCF Done:  E(RHF) =  -228.320418807     A.U. after   11 cycles
 E2 =    -0.7398557964D+00 EUMP2 =    -0.22906027460342D+03
 Normal termination of Gaussian 09 at Wed Sep  8 07:41:52 2021.

 ---------------------------------------------------------
 #P Geom=AllCheck Guess=TCheck SCRF=Check MP4=FrzG4/GTBas3
 ---------------------------------------------------------

 Structure from the checkpoint file:  "/public/home/users/caep010/.cache/gau_scr/Gau-61414.chk"
 --------
 Frag_300
 --------
 Charge =  0 Multiplicity = 1

 SCF Done:  E(RHF) =  -228.348113707     A.U. after   10 cycles
 E2 =    -0.9046482159D+00 EUMP2 =    -0.22925276192305D+03
 Normal termination of Gaussian 09 at Wed Sep  8 07:44:03 2021.

 -----------------------------------------------------------
 #P Geom=AllCheck Guess=TCheck SCRF=Check MP2=Full/GTLargeXP
 -----------------------------------------------------------

 Structure from the checkpoint file:  "/public/home/users/caep010/.cache/gau_scr/Gau-61414.chk"
 --------
 Frag_300
 --------
 Charge =  0 Multiplicity = 1

 SCF Done:  E(RHF) =  -228.404831338     A.U. after   11 cycles
 E2 =    -0.1182249426D+01 EUMP2 =    -0.22958708076390D+03
 Normal termination of Gaussian 09 at Wed Sep  8 07:45:25 2021.
 SCF Done:  E(RHF) =  -228.422746428     A.U. after    8 cycles
 Normal termination of Gaussian 09 at Wed Sep  8 07:46:50 2021.

                         Standard orientation:
 ---------------------------------------------------------------------
 Center     Atomic      Atomic             Coordinates (Angstroms)
 Number     Number       Type             X           Y           Z
 ---------------------------------------------------------------------
      1          6           0       -1.049107    1.098064   -0.108369
      2          6           0        0.002605   -0.019527   -0.009053
      3          6           0        1.413067    0.547756   -0.213337
      4          7           0       -0.262985   -0.978444   -1.082075
      5          7           0       -0.010187   -0.704907    1.304244
      6          1           0       -2.056472    0.692558    0.046630
      7          1           0       -0.876166    1.861906    0.656179
      8          1           0       -1.025485    1.577426   -1.091360
      9          1           0        1.655145    1.286677    0.558078
     10          1           0        1.489363    1.026660   -1.191915
     11          1           0        2.153886   -0.255044   -0.155273
     12          1           0       -1.223054   -1.308486   -1.015676
     13          1           0        0.323719   -1.795399   -0.929250
     14          1           0       -0.958404   -1.014192    1.509235
     15          1           0        0.230281   -0.046401    2.042724
 ---------------------------------------------------------------------

 SCF Done:  E(RHF) =  -228.426723974     A.U. after    7 cycles

 The electronic state is 1-A.
 Alpha  occ. eigenvalues --  -15.53826 -15.53423 -11.28772 -11.21449 -11.20830
 Alpha  occ. eigenvalues --   -1.22645  -1.11966  -0.99579  -0.93706  -0.76728
 Alpha  occ. eigenvalues --   -0.66722  -0.64756  -0.63538  -0.59196  -0.55294
 Alpha  occ. eigenvalues --   -0.53012  -0.51989  -0.50311  -0.47896  -0.40895
 Alpha  occ. eigenvalues --   -0.39395
 Alpha virt. eigenvalues --    0.03394   0.04403   0.05064   0.05391   0.07103
 Alpha virt. eigenvalues --    0.07232   0.07607   0.07798   0.08772   0.10273
 Alpha virt. eigenvalues --    0.11584   0.12499   0.12986   0.14700   0.16374

 Mulliken charges:
               1
     1  C   -0.536516
     2  C    0.409540
     3  C   -0.544178
     4  N   -0.738655
     5  N   -0.719455
     6  H    0.145902
     7  H    0.162215
     8  H    0.179874
     9  H    0.152230
    10  H    0.178219
    11  H    0.170220
    12  H    0.276224
    13  H    0.301753
    14  H    0.277600
    15  H    0.285027
 Sum of Mulliken charges =  -0.00000

 Dipole moment (field-independent basis, Debye):
    X=             -1.0700    Y=              0.5252    Z=              1.1622  Tot=              1.6647
 Quadrupole moment (field-independent basis, Debye-Ang):
   XX=            -31.8185   YY=            -33.0294   ZZ=            -35.8665
   XY=              2.0539   XZ=             -1.1477   YZ=              1.7147

 Normal termination of Gaussian 09 at Wed Sep  8 07:52:12 2021.
