 Gaussian 09, Revision E.01,
 Gaussian 09:  ES64L-G09RevE.01 30-Nov-2015

 -----
 #P G4
 -----

 ---------
 Frag_1009
 ---------
 Symbolic Z-matrix:
 Charge =  0 Multiplicity = 1

 SCF Done:  E(RB3LYP) =  -285.619218059     A.U. after   12 cycles
 SCF Done:  E(RB3LYP) =  -285.624890497     A.U. after   11 cycles
 SCF Done:  E(RB3LYP) =  -285.625692375     A.U. after   10 cycles
 SCF Done:  E(RB3LYP) =  -285.626246692     A.U. after   10 cycles
 SCF Done:  E(RB3LYP) =  -285.626348111     A.U. after   10 cycles
 SCF Done:  E(RB3LYP) =  -285.626366445     A.U. after    9 cycles
 SCF Done:  E(RB3LYP) =  -285.626374636     A.U. after    8 cycles
 SCF Done:  E(RB3LYP) =  -285.626379790     A.U. after    7 cycles
 SCF Done:  E(RB3LYP) =  -285.626389203     A.U. after    9 cycles
 SCF Done:  E(RB3LYP) =  -285.626391544     A.U. after    8 cycles
 SCF Done:  E(RB3LYP) =  -285.626391987     A.U. after    7 cycles
 Optimization completed.
    -- Stationary point found.
 Normal termination of Gaussian 09 at Thu Aug 25 23:44:25 2022.

 ----------------------------------------------------------
 #P Geom=AllCheck Guess=TCheck SCRF=Check B3LYP/GTBas3 Freq
 ----------------------------------------------------------

 Structure from the checkpoint file:  "G4.Frag_1009.chk"
 ---------
 Frag_1009
 ---------
 Charge =  0 Multiplicity = 1

 SCF Done:  E(RB3LYP) =  -285.626391987     A.U. after    1 cycles

  Exact polarizability:  39.571   1.900  38.317   1.234   0.578  37.451
 Approx polarizability:  51.506   1.614  53.105   2.947   1.262  53.968

                      1                      2                      3
                      A                      A                      A
 Frequencies --    125.9754               217.7735               246.1160
 Red. masses --      3.2155                 1.1854                 1.0595
 Frc consts  --      0.0301                 0.0331                 0.0378
 IR Inten    --      3.9717                88.8613                50.4744

                      4                      5                      6
                      A                      A                      A
 Frequencies --    273.9614               398.1205               416.7810
 Red. masses --      4.4118                 1.6594                 1.2890
 Frc consts  --      0.1951                 0.1550                 0.1319
 IR Inten    --      8.6217                 6.1593                82.4909

                      7                      8                      9
                      A                      A                      A
 Frequencies --    513.1793               693.1310               820.1396
 Red. masses --      3.7816                 3.0562                 2.8053
 Frc consts  --      0.5868                 0.8651                 1.1117
 IR Inten    --      8.4865                34.6914                50.1767

                     10                     11                     12
                      A                      A                      A
 Frequencies --    893.8600               971.0910              1004.6177
 Red. masses --      1.6794                 1.8138                 2.6277
 Frc consts  --      0.7906                 1.0078                 1.5625
 IR Inten    --    168.3080                23.3327                37.2787

                     13                     14                     15
                      A                      A                      A
 Frequencies --   1090.8692              1140.7016              1175.1008
 Red. masses --      4.3395                 1.7309                 1.2231
 Frc consts  --      3.0425                 1.3270                 0.9951
 IR Inten    --     65.8230                62.3326                78.9224

                     16                     17                     18
                      A                      A                      A
 Frequencies --   1207.2031              1264.0502              1332.4142
 Red. masses --      1.2158                 1.2104                 1.4290
 Frc consts  --      1.0440                 1.1395                 1.4948
 IR Inten    --     18.4655                13.3957                15.1650

                     19                     20                     21
                      A                      A                      A
 Frequencies --   1425.3186              1430.9077              1443.0068
 Red. masses --      1.2991                 1.2673                 1.4293
 Frc consts  --      1.5550                 1.5288                 1.7535
 IR Inten    --     13.6797                40.1949                48.7200

                     22                     23                     24
                      A                      A                      A
 Frequencies --   1509.2896              1654.8928              2982.8994
 Red. masses --      1.0860                 1.1005                 1.0568
 Frc consts  --      1.4575                 1.7757                 5.5403
 IR Inten    --      5.9302                22.3383                50.6673

                     25                     26                     27
                      A                      A                      A
 Frequencies --   3029.7088              3058.2363              3478.6131
 Red. masses --      1.1062                 1.0866                 1.0489
 Frc consts  --      5.9824                 5.9878                 7.4782
 IR Inten    --     57.2937                41.5505                 0.5842

                     28                     29                     30
                      A                      A                      A
 Frequencies --   3563.4249              3781.3931              3851.2179
 Red. masses --      1.0919                 1.0650                 1.0668
 Frc consts  --      8.1688                 8.9727                 9.3226
 IR Inten    --      1.1738                30.5769                37.7442

 - Thermochemistry -
 -------------------
 Temperature   298.150 Kelvin.  Pressure   1.00000 Atm.
 Atom     1 has atomic number  7 and mass  14.00307

 Molecular mass:    77.04768 amu.
 Principal axes and moments of inertia in atomic units:
                           1         2         3
     Eigenvalues --   264.81183 418.35867 516.49517
           X            0.99850   0.05393  -0.00904
           Y           -0.05376   0.99838   0.01851
           Z            0.01003  -0.01800   0.99979
 This molecule is an asymmetric top.
 Rotational symmetry number  1.
 Rotational temperatures (Kelvin)      0.32708     0.20703     0.16770
 Rotational constants (GHZ):           6.81518     4.31386     3.49421
 Zero-point vibrational energy     269123.8 (Joules/Mol)
                                   64.32214 (Kcal/Mol)
 Warning -- explicit consideration of   7 degrees of freedom as
           vibrations may cause significant error
 Vibrational temperatures:    181.25   313.33   354.11   394.17   572.81
          (Kelvin)            599.65   738.35   997.26  1180.00  1286.06
                             1397.18  1445.42  1569.52  1641.21  1690.71
                             1736.89  1818.68  1917.04  2050.71  2058.75
                             2076.16  2171.53  2381.02  4291.72  4359.07
                             4400.11  5004.94  5126.97  5440.57  5541.04

 Zero-point correction=                           0.102504 (Hartree/Particle)
 Thermal correction to Energy=                    0.108773
 Thermal correction to Enthalpy=                  0.109717
 Thermal correction to Gibbs Free Energy=         0.073382
 Sum of electronic and zero-point Energies=           -285.523888
 Sum of electronic and thermal Energies=              -285.517619
 Sum of electronic and thermal Enthalpies=            -285.516675
 Sum of electronic and thermal Free Energies=         -285.553010

                     E (Thermal)             CV                S
                      KCal/Mol        Cal/Mol-Kelvin    Cal/Mol-Kelvin
 Total                   68.256             21.729             76.473
 Electronic               0.000              0.000              0.000
 Translational            0.889              2.981             38.941
 Rotational               0.889              2.981             25.551
 Vibrational             66.479             15.768             11.981
 Vibration     1          0.611              1.927              3.007
 Vibration     2          0.646              1.814              1.978
 Vibration     3          0.661              1.769              1.758
 Vibration     4          0.676              1.721              1.571
 Vibration     5          0.764              1.474              0.970
 Vibration     6          0.780              1.434              0.903
 Vibration     7          0.868              1.221              0.626

 Normal termination of Gaussian 09 at Thu Aug 25 23:44:47 2022.

 -----------------------------------------------------------------
 #P Geom=AllCheck Guess=TCheck SCRF=Check CCSD(T,E4T,FrzG4)/GTBas1
 -----------------------------------------------------------------

 Structure from the checkpoint file:  "G4.Frag_1009.chk"
 ---------
 Frag_1009
 ---------
 Charge =  0 Multiplicity = 1

 SCF Done:  E(RHF) =  -283.950037361     A.U. after   12 cycles
 E2 =    -0.7832293179D+00 EUMP2 =    -0.28473326667896D+03
 CCSD(T)
 CCSD(T)= -0.28479341568D+03
 421\CCSD=-284.7735741\CCSD(T)=-284.7934157\RMSD=3.992e-09\PG=C01 [X(C2
 Normal termination of Gaussian 09 at Thu Aug 25 23:45:46 2022.

 ---------------------------------------------------------
 #P Geom=AllCheck Guess=TCheck SCRF=Check MP4=FrzG4/GTBas2
 ---------------------------------------------------------

 Structure from the checkpoint file:  "G4.Frag_1009.chk"
 ---------
 Frag_1009
 ---------
 Charge =  0 Multiplicity = 1

 SCF Done:  E(RHF) =  -283.962604774     A.U. after   11 cycles
 E2 =    -0.7985326688D+00 EUMP2 =    -0.28476113744309D+03
 Normal termination of Gaussian 09 at Thu Aug 25 23:46:03 2022.

 ---------------------------------------------------------
 #P Geom=AllCheck Guess=TCheck SCRF=Check MP4=FrzG4/GTBas3
 ---------------------------------------------------------

 Structure from the checkpoint file:  "G4.Frag_1009.chk"
 ---------
 Frag_1009
 ---------
 Charge =  0 Multiplicity = 1

 SCF Done:  E(RHF) =  -283.994068929     A.U. after   11 cycles
 E2 =    -0.9744118578D+00 EUMP2 =    -0.28496848078703D+03
 Normal termination of Gaussian 09 at Thu Aug 25 23:47:32 2022.

 -----------------------------------------------------------
 #P Geom=AllCheck Guess=TCheck SCRF=Check MP2=Full/GTLargeXP
 -----------------------------------------------------------

 Structure from the checkpoint file:  "G4.Frag_1009.chk"
 ---------
 Frag_1009
 ---------
 Charge =  0 Multiplicity = 1

 SCF Done:  E(RHF) =  -284.076654777     A.U. after   11 cycles
 E2 =    -0.1269388307D+01 EUMP2 =    -0.28534604308464D+03
 Normal termination of Gaussian 09 at Thu Aug 25 23:48:23 2022.
 SCF Done:  E(RHF) =  -284.099913833     A.U. after    8 cycles
 Normal termination of Gaussian 09 at Thu Aug 25 23:49:22 2022.

                         Standard orientation:
 ---------------------------------------------------------------------
 Center     Atomic      Atomic             Coordinates (Angstroms)
 Number     Number       Type             X           Y           Z
 ---------------------------------------------------------------------
      1          7           0        1.230133    1.005731   -0.335542
      2          6           0        0.621300   -0.074590    0.435967
      3          8           0        0.803607   -1.317120   -0.203355
      4          6           0       -0.876711    0.129200    0.704894
      5          8           0       -1.500688    0.133902   -0.577611
      6          1           0        0.594601    1.279403   -1.081636
      7          1           0        1.355138    1.823744    0.254179
      8          1           0        1.150169   -0.138276    1.393448
      9          1           0        0.151467   -1.349022   -0.914559
     10          1           0       -1.045296    1.078579    1.235455
     11          1           0       -1.254342   -0.694006    1.327414
     12          1           0       -2.453560    0.097545   -0.462942
 ---------------------------------------------------------------------

 SCF Done:  E(RHF) =  -284.105170751     A.U. after    8 cycles

 The electronic state is 1-A.
 Alpha  occ. eigenvalues --  -20.57751 -20.54572 -15.53831 -11.30806 -11.28716
 Alpha  occ. eigenvalues --   -1.39041  -1.35513  -1.16824  -0.97638  -0.83217
 Alpha  occ. eigenvalues --   -0.73682  -0.66736  -0.65908  -0.65508  -0.62466
 Alpha  occ. eigenvalues --   -0.56184  -0.54437  -0.50394  -0.47339  -0.45767
 Alpha  occ. eigenvalues --   -0.40038
 Alpha virt. eigenvalues --    0.02928   0.04663   0.04971   0.05752   0.07395
 Alpha virt. eigenvalues --    0.07710   0.08422   0.10089   0.10424   0.13199
 Alpha virt. eigenvalues --    0.13396   0.14078   0.15207   0.15598   0.16888

 Mulliken charges:
               1
     1  N   -0.688748
     2  C    0.214226
     3  O   -0.586016
     4  C   -0.152135
     5  O   -0.592190
     6  H    0.299730
     7  H    0.277480
     8  H    0.160668
     9  H    0.377148
    10  H    0.149320
    11  H    0.161943
    12  H    0.378574
 Sum of Mulliken charges =  -0.00000

 Dipole moment (field-independent basis, Debye):
    X=             -3.4855    Y=              1.7316    Z=              1.5724  Tot=              4.1975
 Quadrupole moment (field-independent basis, Debye-Ang):
   XX=            -30.7031   YY=            -31.4208   ZZ=            -29.2054
   XY=              2.5713   XZ=              1.6958   YZ=              1.6422

 Normal termination of Gaussian 09 at Thu Aug 25 23:55:52 2022.
