 Gaussian 09, Revision E.01,
 Gaussian 09:  ES64L-G09RevE.01 30-Nov-2015

 -----
 #P G4
 -----

 ---------
 Frag_1010
 ---------
 Symbolic Z-matrix:
 Charge =  0 Multiplicity = 1

 SCF Done:  E(RB3LYP) =  -304.969236565     A.U. after   13 cycles
 SCF Done:  E(RB3LYP) =  -304.978914258     A.U. after   12 cycles
 SCF Done:  E(RB3LYP) =  -304.981687802     A.U. after   11 cycles
 SCF Done:  E(RB3LYP) =  -304.984026526     A.U. after   12 cycles
 SCF Done:  E(RB3LYP) =  -304.985345271     A.U. after   12 cycles
 SCF Done:  E(RB3LYP) =  -304.987335558     A.U. after   13 cycles
 SCF Done:  E(RB3LYP) =  -304.988918755     A.U. after   11 cycles
 SCF Done:  E(RB3LYP) =  -304.991037651     A.U. after   12 cycles
 SCF Done:  E(RB3LYP) =  -304.992180344     A.U. after   11 cycles
 SCF Done:  E(RB3LYP) =  -304.993033184     A.U. after   12 cycles
 SCF Done:  E(RB3LYP) =  -304.993614088     A.U. after    8 cycles
 SCF Done:  E(RB3LYP) =  -304.993614699     A.U. after    7 cycles
 SCF Done:  E(RB3LYP) =  -304.993614825     A.U. after    6 cycles
 Optimization completed.
    -- Stationary point found.
 Normal termination of Gaussian 09 at Fri Aug 26 08:24:05 2022.

 ----------------------------------------------------------
 #P Geom=AllCheck Guess=TCheck SCRF=Check B3LYP/GTBas3 Freq
 ----------------------------------------------------------

 Structure from the checkpoint file:  "G4.Frag_1010.chk"
 ---------
 Frag_1010
 ---------
 Charge =  0 Multiplicity = 1

 SCF Done:  E(RB3LYP) =  -304.993614825     A.U. after    1 cycles

  Exact polarizability:  59.742  -0.489  51.223   1.144   0.804  52.230
 Approx polarizability:  77.508  -0.397  70.403   1.044   1.844  84.485

                      1                      2                      3
                      A                      A                      A
 Frequencies --    159.3205               223.8947               252.8028
 Red. masses --      2.0006                 1.0835                 1.1736
 Frc consts  --      0.0299                 0.0320                 0.0442
 IR Inten    --     20.0869                 2.2914                 0.3022

                      4                      5                      6
                      A                      A                      A
 Frequencies --    281.8540               311.3673               370.1467
 Red. masses --      1.4066                 1.6631                 2.6968
 Frc consts  --      0.0658                 0.0950                 0.2177
 IR Inten    --     47.7627                26.9668                 9.1705

                      7                      8                      9
                      A                      A                      A
 Frequencies --    410.1954               434.3417               487.6821
 Red. masses --      3.2342                 2.7765                 3.3582
 Frc consts  --      0.3206                 0.3086                 0.4706
 IR Inten    --      1.0837                 9.0836                14.4344

                     10                     11                     12
                      A                      A                      A
 Frequencies --    566.6296               723.8128               863.7215
 Red. masses --      3.5656                 3.3278                 2.2807
 Frc consts  --      0.6745                 1.0272                 1.0024
 IR Inten    --     31.0612                 7.0029                 0.7349

                     13                     14                     15
                      A                      A                      A
 Frequencies --    928.9877               932.3114               975.7873
 Red. masses --      1.4159                 2.2008                 2.8128
 Frc consts  --      0.7200                 1.1271                 1.5780
 IR Inten    --     79.8430                32.6249                24.6316

                     16                     17                     18
                      A                      A                      A
 Frequencies --   1056.2991              1110.6294              1112.8460
 Red. masses --      1.5026                 1.7108                 1.3923
 Frc consts  --      0.9878                 1.2433                 1.0159
 IR Inten    --     10.0575                 4.2019                 5.3151

                     19                     20                     21
                      A                      A                      A
 Frequencies --   1166.7792              1221.7999              1249.3021
 Red. masses --      1.5337                 2.1009                 1.7499
 Frc consts  --      1.2302                 1.8478                 1.6092
 IR Inten    --      7.0734                 5.9761                 2.6919

                     22                     23                     24
                      A                      A                      A
 Frequencies --   1268.7085              1343.9698              1404.9428
 Red. masses --      2.0466                 1.3327                 1.1665
 Frc consts  --      1.9409                 1.4182                 1.3565
 IR Inten    --      1.9969                 2.3358                 2.1713

                     25                     26                     27
                      A                      A                      A
 Frequencies --   1412.5035              1452.0496              1462.2352
 Red. masses --      1.2313                 1.2430                 1.0602
 Frc consts  --      1.4474                 1.5442                 1.3356
 IR Inten    --      3.0063                 7.3292                 5.7017

                     28                     29                     30
                      A                      A                      A
 Frequencies --   1471.6745              1483.3405              1499.4021
 Red. masses --      1.0526                 1.0523                 1.0534
 Frc consts  --      1.3431                 1.3641                 1.3953
 IR Inten    --      5.9338                 3.3015                12.2934

                     31                     32                     33
                      A                      A                      A
 Frequencies --   1507.4747              1597.0622              2993.1601
 Red. masses --      1.0950                 1.0979                 1.0590
 Frc consts  --      1.4662                 1.6499                 5.5900
 IR Inten    --      3.5049                80.9946                50.8934

                     34                     35                     36
                      A                      A                      A
 Frequencies --   3039.4536              3047.5317              3056.9887
 Red. masses --      1.0399                 1.0626                 1.0785
 Frc consts  --      5.6601                 5.8148                 5.9383
 IR Inten    --     15.4029                 9.1508                64.9047

                     37                     38                     39
                      A                      A                      A
 Frequencies --   3146.5149              3156.8022              3177.7737
 Red. masses --      1.0944                 1.0943                 1.1056
 Frc consts  --      6.3837                 6.4251                 6.5783
 IR Inten    --      6.1434                14.8209                 6.7616

                     40                     41                     42
                      A                      A                      A
 Frequencies --   3199.5199              3430.4785              3577.1575
 Red. masses --      1.1056                 1.0554                 1.0844
 Frc consts  --      6.6682                 7.3178                 8.1758
 IR Inten    --      0.9182                34.7485                11.5375

 - Thermochemistry -
 -------------------
 Temperature   298.150 Kelvin.  Pressure   1.00000 Atm.
 Atom     1 has atomic number  6 and mass  12.00000

 Molecular mass:    90.07931 amu.
 Principal axes and moments of inertia in atomic units:
                           1         2         3
     Eigenvalues --   359.00837 622.98213 643.97991
           X            0.99957  -0.01048   0.02749
           Y            0.01034   0.99993   0.00520
           Z           -0.02754  -0.00491   0.99961
 This molecule is an asymmetric top.
 Rotational symmetry number  1.
 Rotational temperatures (Kelvin)      0.24126     0.13903     0.13450
 Rotational constants (GHZ):           5.02702     2.89694     2.80248
 Zero-point vibrational energy     374247.3 (Joules/Mol)
                                   89.44724 (Kcal/Mol)
 Warning -- explicit consideration of  10 degrees of freedom as
           vibrations may cause significant error
 Vibrational temperatures:    229.23   322.13   363.73   405.52   447.99
          (Kelvin)            532.56   590.18   624.92   701.66   815.25
                             1041.40  1242.70  1336.60  1341.39  1403.94
                             1519.78  1597.95  1601.14  1678.73  1757.90
                             1797.46  1825.39  1933.67  2021.40  2032.27
                             2089.17  2103.83  2117.41  2134.19  2157.30
                             2168.92  2297.81  4306.48  4373.09  4384.71
                             4398.32  4527.13  4541.93  4572.10  4603.39
                             4935.69  5146.73

 Zero-point correction=                           0.142543 (Hartree/Particle)
 Thermal correction to Energy=                    0.149688
 Thermal correction to Enthalpy=                  0.150632
 Thermal correction to Gibbs Free Energy=         0.112491
 Sum of electronic and zero-point Energies=           -304.851072
 Sum of electronic and thermal Energies=              -304.843927
 Sum of electronic and thermal Enthalpies=            -304.842983
 Sum of electronic and thermal Free Energies=         -304.881124

                     E (Thermal)             CV                S
                      KCal/Mol        Cal/Mol-Kelvin    Cal/Mol-Kelvin
 Total                   93.931             26.682             80.275
 Electronic               0.000              0.000              0.000
 Translational            0.889              2.981             39.407
 Rotational               0.889              2.981             26.468
 Vibrational             92.153             20.720             14.400
 Vibration     1          0.621              1.892              2.558
 Vibration     2          0.649              1.805              1.927
 Vibration     3          0.664              1.758              1.711
 Vibration     4          0.681              1.707              1.522
 Vibration     5          0.700              1.652              1.355
 Vibration     6          0.742              1.534              1.079
 Vibration     7          0.774              1.448              0.926
 Vibration     8          0.795              1.395              0.845
 Vibration     9          0.844              1.277              0.690
 Vibration    10          0.923              1.103              0.511

 Normal termination of Gaussian 09 at Fri Aug 26 08:24:44 2022.

 -----------------------------------------------------------------
 #P Geom=AllCheck Guess=TCheck SCRF=Check CCSD(T,E4T,FrzG4)/GTBas1
 -----------------------------------------------------------------

 Structure from the checkpoint file:  "G4.Frag_1010.chk"
 ---------
 Frag_1010
 ---------
 Charge =  0 Multiplicity = 1

 SCF Done:  E(RHF) =  -303.070305270     A.U. after   12 cycles
 E2 =    -0.9111583589D+00 EUMP2 =    -0.30398146362898D+03
 CCSD(T)
 CCSD(T)= -0.30406535842D+03
 4SDTQ=-304.0654364\MP4SDQ=-304.0364726\CCSD=-304.036928\CCSD(T)=-304.0
 Normal termination of Gaussian 09 at Fri Aug 26 08:27:17 2022.

 ---------------------------------------------------------
 #P Geom=AllCheck Guess=TCheck SCRF=Check MP4=FrzG4/GTBas2
 ---------------------------------------------------------

 Structure from the checkpoint file:  "G4.Frag_1010.chk"
 ---------
 Frag_1010
 ---------
 Charge =  0 Multiplicity = 1

 SCF Done:  E(RHF) =  -303.083203725     A.U. after   12 cycles
 E2 =    -0.9279575015D+00 EUMP2 =    -0.30401116122621D+03
 Normal termination of Gaussian 09 at Fri Aug 26 08:28:05 2022.

 ---------------------------------------------------------
 #P Geom=AllCheck Guess=TCheck SCRF=Check MP4=FrzG4/GTBas3
 ---------------------------------------------------------

 Structure from the checkpoint file:  "G4.Frag_1010.chk"
 ---------
 Frag_1010
 ---------
 Charge =  0 Multiplicity = 1

 SCF Done:  E(RHF) =  -303.108986627     A.U. after   11 cycles
 E2 =    -0.1127857636D+01 EUMP2 =    -0.30423684426330D+03
 Normal termination of Gaussian 09 at Fri Aug 26 08:32:48 2022.

 -----------------------------------------------------------
 #P Geom=AllCheck Guess=TCheck SCRF=Check MP2=Full/GTLargeXP
 -----------------------------------------------------------

 Structure from the checkpoint file:  "G4.Frag_1010.chk"
 ---------
 Frag_1010
 ---------
 Charge =  0 Multiplicity = 1

 SCF Done:  E(RHF) =  -303.190614003     A.U. after   12 cycles
 E2 =    -0.1469464926D+01 EUMP2 =    -0.30466007892839D+03
 Normal termination of Gaussian 09 at Fri Aug 26 08:34:51 2022.
 SCF Done:  E(RHF) =  -303.214198491     A.U. after    8 cycles
 Normal termination of Gaussian 09 at Fri Aug 26 08:37:14 2022.

                         Standard orientation:
 ---------------------------------------------------------------------
 Center     Atomic      Atomic             Coordinates (Angstroms)
 Number     Number       Type             X           Y           Z
 ---------------------------------------------------------------------
      1          6           0       -0.560714    1.403634   -0.446066
      2          7           0       -0.393447    0.002995    0.073167
      3          6           0       -1.597811   -0.808326   -0.279719
      4          8           0       -0.237534    0.021681    1.420200
      5          6           0        0.834741   -0.642580   -0.555798
      6          7           0        1.976293    0.073402   -0.047784
      7          1           0       -1.369978    1.846491    0.132032
      8          1           0       -0.792543    1.403676   -1.515966
      9          1           0        0.374936    1.923852   -0.255958
     10          1           0       -1.719852   -0.893839   -1.364857
     11          1           0       -1.465899   -1.786502    0.180411
     12          1           0       -2.458204   -0.313369    0.169290
     13          1           0        0.771632   -0.569376   -1.648408
     14          1           0        0.760668   -1.696509   -0.252377
     15          1           0        1.831892    0.091107    0.964600
     16          1           0        2.830395   -0.430134   -0.258544
 ---------------------------------------------------------------------

 SCF Done:  E(RHF) =  -303.219422003     A.U. after    8 cycles

 The electronic state is 1-A.
 Alpha  occ. eigenvalues --  -20.46235 -15.69487 -15.54152 -11.30097 -11.26848
 Alpha  occ. eigenvalues --  -11.25985  -1.38792  -1.18889  -1.10999  -0.98376
 Alpha  occ. eigenvalues --   -0.94065  -0.81755  -0.71117  -0.68379  -0.65289
 Alpha  occ. eigenvalues --   -0.62601  -0.60859  -0.57387  -0.56507  -0.54173
 Alpha  occ. eigenvalues --   -0.53716  -0.51858  -0.40977  -0.37645  -0.37383
 Alpha virt. eigenvalues --    0.03024   0.03736   0.04036   0.05222   0.06308
 Alpha virt. eigenvalues --    0.06642   0.07214   0.07770   0.09162   0.09550
 Alpha virt. eigenvalues --    0.11745   0.11911   0.13058   0.13618   0.14172

 Mulliken charges:
               1
     1  C   -0.532735
     2  N    0.525825
     3  C   -0.511295
     4  O   -0.747619
     5  C   -0.173964
     6  N   -0.710068
     7  H    0.205663
     8  H    0.166440
     9  H    0.237574
    10  H    0.172269
    11  H    0.203125
    12  H    0.202271
    13  H    0.162273
    14  H    0.162094
    15  H    0.351641
    16  H    0.286506
 Sum of Mulliken charges =  -0.00000

 Dipole moment (field-independent basis, Debye):
    X=             -0.4500    Y=             -1.2179    Z=             -4.2928  Tot=              4.4848
 Quadrupole moment (field-independent basis, Debye-Ang):
   XX=            -33.6853   YY=            -36.3866   ZZ=            -43.9033
   XY=             -2.8991   XZ=              2.4172   YZ=              0.5701

 Normal termination of Gaussian 09 at Fri Aug 26 08:46:22 2022.
