 Gaussian 09, Revision E.01,
 Gaussian 09:  ES64L-G09RevE.01 30-Nov-2015

 -----
 #P G4
 -----

 --------
 Frag_909
 --------
 Symbolic Z-matrix:
 Charge =  0 Multiplicity = 1

 SCF Done:  E(RB3LYP) =  -245.880506824     A.U. after   12 cycles
 SCF Done:  E(RB3LYP) =  -245.889846281     A.U. after   11 cycles
 SCF Done:  E(RB3LYP) =  -245.890768277     A.U. after   10 cycles
 SCF Done:  E(RB3LYP) =  -245.890996649     A.U. after   10 cycles
 SCF Done:  E(RB3LYP) =  -245.891043829     A.U. after    9 cycles
 SCF Done:  E(RB3LYP) =  -245.891055894     A.U. after    9 cycles
 SCF Done:  E(RB3LYP) =  -245.891059397     A.U. after    8 cycles
 SCF Done:  E(RB3LYP) =  -245.891059729     A.U. after    7 cycles
 SCF Done:  E(RB3LYP) =  -245.891059813     A.U. after    6 cycles
 Optimization completed.
    -- Stationary point found.
 Normal termination of Gaussian 09 at Fri Aug 26 06:39:27 2022.

 ----------------------------------------------------------
 #P Geom=AllCheck Guess=TCheck SCRF=Check B3LYP/GTBas3 Freq
 ----------------------------------------------------------

 Structure from the checkpoint file:  "G4.Frag_909.chk"
 --------
 Frag_909
 --------
 Charge =  0 Multiplicity = 1

 SCF Done:  E(RB3LYP) =  -245.891059813     A.U. after    1 cycles

  Exact polarizability:  48.989   0.960  45.431  -0.228   0.781  42.470
 Approx polarizability:  62.740   0.369  62.500   1.071   1.381  61.933

                      1                      2                      3
                      A                      A                      A
 Frequencies --    138.3208               199.1949               283.9988
 Red. masses --      1.9625                 1.1591                 2.7059
 Frc consts  --      0.0221                 0.0271                 0.1286
 IR Inten    --      0.5967                 0.2958                 5.2637

                      4                      5                      6
                      A                      A                      A
 Frequencies --    312.7570               337.4039               449.4716
 Red. masses --      1.1371                 1.1366                 2.5600
 Frc consts  --      0.0655                 0.0762                 0.3047
 IR Inten    --     37.0795                26.2258                 5.9764

                      7                      8                      9
                      A                      A                      A
 Frequencies --    481.9350               629.6957               744.4318
 Red. masses --      2.4892                 2.2745                 1.4924
 Frc consts  --      0.3406                 0.5314                 0.4873
 IR Inten    --      0.5444                57.3486               128.7499

                     10                     11                     12
                      A                      A                      A
 Frequencies --    823.1847               884.6634               902.9749
 Red. masses --      2.0034                 1.3531                 1.9406
 Frc consts  --      0.7999                 0.6239                 0.9323
 IR Inten    --    115.6680               113.8001               105.2264

                     13                     14                     15
                      A                      A                      A
 Frequencies --    976.0296              1073.2992              1124.0117
 Red. masses --      2.0464                 2.3633                 1.3648
 Frc consts  --      1.1486                 1.6040                 1.0159
 IR Inten    --     11.6472                10.7084                20.4377

                     16                     17                     18
                      A                      A                      A
 Frequencies --   1159.1304              1172.3501              1222.5859
 Red. masses --      1.3957                 2.5670                 1.5506
 Frc consts  --      1.1048                 2.0787                 1.3656
 IR Inten    --      5.7518                73.4448                26.3014

                     19                     20                     21
                      A                      A                      A
 Frequencies --   1293.6269              1392.6696              1428.0123
 Red. masses --      1.4658                 1.3822                 1.1904
 Frc consts  --      1.4453                 1.5795                 1.4302
 IR Inten    --     17.5984                35.1617                14.9767

                     22                     23                     24
                      A                      A                      A
 Frequencies --   1449.5018              1489.3668              1500.1207
 Red. masses --      1.2076                 1.1869                 1.1307
 Frc consts  --      1.4949                 1.5512                 1.4992
 IR Inten    --     11.9853                11.0978                 0.7689

                     25                     26                     27
                      A                      A                      A
 Frequencies --   1527.2124              1626.7503              1637.9593
 Red. masses --      1.0675                 1.1153                 1.1063
 Frc consts  --      1.4670                 1.7389                 1.7488
 IR Inten    --      8.8277                49.9378                17.6091

                     28                     29                     30
                      A                      A                      A
 Frequencies --   2944.7965              2955.8339              3076.2242
 Red. masses --      1.0833                 1.0599                 1.0739
 Frc consts  --      5.5350                 5.4560                 5.9875
 IR Inten    --     97.2068                73.4771                33.7216

                     31                     32                     33
                      A                      A                      A
 Frequencies --   3128.5789              3491.5484              3516.8586
 Red. masses --      1.1005                 1.0482                 1.0484
 Frc consts  --      6.3467                 7.5287                 7.6401
 IR Inten    --     13.5890                 0.4171                 0.8173

                     34                     35                     36
                      A                      A                      A
 Frequencies --   3532.5888              3581.1021              3608.2335
 Red. masses --      1.0741                 1.0928                 1.0938
 Frc consts  --      7.8971                 8.2572                 8.3903
 IR Inten    --      0.2559                 0.4406                 2.4895

 - Thermochemistry -
 -------------------
 Temperature   298.150 Kelvin.  Pressure   1.00000 Atm.
 Atom     1 has atomic number  6 and mass  12.00000

 Molecular mass:    75.07965 amu.
 Principal axes and moments of inertia in atomic units:
                           1         2         3
     Eigenvalues --   262.57914 440.80357 540.86522
           X            0.99886   0.03871  -0.02777
           Y           -0.03871   0.99925   0.00039
           Z            0.02777   0.00068   0.99961
 This molecule is an asymmetric top.
 Rotational symmetry number  1.
 Rotational temperatures (Kelvin)      0.32986     0.19649     0.16014
 Rotational constants (GHZ):           6.87313     4.09421     3.33677
 Zero-point vibrational energy     335531.1 (Joules/Mol)
                                   80.19386 (Kcal/Mol)
 Warning -- explicit consideration of   7 degrees of freedom as
           vibrations may cause significant error
 Vibrational temperatures:    199.01   286.60   408.61   449.99   485.45
          (Kelvin)            646.69   693.40   905.99  1071.07  1184.38
                             1272.83  1299.18  1404.29  1544.24  1617.20
                             1667.73  1686.75  1759.03  1861.24  2003.74
                             2054.59  2085.51  2142.86  2158.34  2197.32
                             2340.53  2356.66  4236.90  4252.78  4426.00
                             4501.32  5023.55  5059.97  5082.60  5152.40
                             5191.44

 Zero-point correction=                           0.127797 (Hartree/Particle)
 Thermal correction to Energy=                    0.134197
 Thermal correction to Enthalpy=                  0.135142
 Thermal correction to Gibbs Free Energy=         0.098710
 Sum of electronic and zero-point Energies=           -245.763263
 Sum of electronic and thermal Energies=              -245.756862
 Sum of electronic and thermal Enthalpies=            -245.755918
 Sum of electronic and thermal Free Energies=         -245.792350

                     E (Thermal)             CV                S
                      KCal/Mol        Cal/Mol-Kelvin    Cal/Mol-Kelvin
 Total                   84.210             23.046             76.677
 Electronic               0.000              0.000              0.000
 Translational            0.889              2.981             38.864
 Rotational               0.889              2.981             25.640
 Vibrational             82.433             17.084             12.173
 Vibration     1          0.614              1.915              2.827
 Vibration     2          0.637              1.841              2.141
 Vibration     3          0.682              1.703              1.509
 Vibration     4          0.701              1.649              1.348
 Vibration     5          0.718              1.601              1.224
 Vibration     6          0.808              1.362              0.797
 Vibration     7          0.838              1.290              0.705

 Optimization completed.
    -- Stationary point found.
 Normal termination of Gaussian 09 at Fri Aug 26 06:39:52 2022.

 -----------------------------------------------------------------
 #P Geom=AllCheck Guess=TCheck SCRF=Check CCSD(T,E4T,FrzG4)/GTBas1
 -----------------------------------------------------------------

 Structure from the checkpoint file:  "G4.Frag_909.chk"
 --------
 Frag_909
 --------
 Charge =  0 Multiplicity = 1

 SCF Done:  E(RHF) =  -244.294587719     A.U. after   12 cycles
 E2 =    -0.7553362306D+00 EUMP2 =    -0.24504992394959D+03
 CCSD(T)
 CCSD(T)= -0.24512196714D+03
 -245.0996191\CCSD=-245.1007794\CCSD(T)=-245.1219671\RMSD=2.649e-09\PG=
 Normal termination of Gaussian 09 at Fri Aug 26 06:40:53 2022.

 ---------------------------------------------------------
 #P Geom=AllCheck Guess=TCheck SCRF=Check MP4=FrzG4/GTBas2
 ---------------------------------------------------------

 Structure from the checkpoint file:  "G4.Frag_909.chk"
 --------
 Frag_909
 --------
 Charge =  0 Multiplicity = 1

 SCF Done:  E(RHF) =  -244.304550907     A.U. after   11 cycles
 E2 =    -0.7691878127D+00 EUMP2 =    -0.24507373871938D+03
 Normal termination of Gaussian 09 at Fri Aug 26 06:41:12 2022.

 ---------------------------------------------------------
 #P Geom=AllCheck Guess=TCheck SCRF=Check MP4=FrzG4/GTBas3
 ---------------------------------------------------------

 Structure from the checkpoint file:  "G4.Frag_909.chk"
 --------
 Frag_909
 --------
 Charge =  0 Multiplicity = 1

 SCF Done:  E(RHF) =  -244.333251277     A.U. after   11 cycles
 E2 =    -0.9333599177D+00 EUMP2 =    -0.24526661119462D+03
 Normal termination of Gaussian 09 at Fri Aug 26 06:43:03 2022.

 -----------------------------------------------------------
 #P Geom=AllCheck Guess=TCheck SCRF=Check MP2=Full/GTLargeXP
 -----------------------------------------------------------

 Structure from the checkpoint file:  "G4.Frag_909.chk"
 --------
 Frag_909
 --------
 Charge =  0 Multiplicity = 1

 SCF Done:  E(RHF) =  -244.397656273     A.U. after   11 cycles
 E2 =    -0.1216462803D+01 EUMP2 =    -0.24561411907574D+03
 Normal termination of Gaussian 09 at Fri Aug 26 06:44:08 2022.
 SCF Done:  E(RHF) =  -244.416500119     A.U. after    8 cycles
 Normal termination of Gaussian 09 at Fri Aug 26 06:45:26 2022.

                         Standard orientation:
 ---------------------------------------------------------------------
 Center     Atomic      Atomic             Coordinates (Angstroms)
 Number     Number       Type             X           Y           Z
 ---------------------------------------------------------------------
      1          6           0        1.721620   -0.014047   -0.458690
      2          7           0        0.848530   -0.161153    0.702364
      3          6           0       -0.584285    0.003319    0.454507
      4          7           0       -1.056531    1.195425   -0.248740
      5          7           0       -1.015976   -1.128772   -0.348563
      6          1           0        1.429488   -0.742818   -1.217938
      7          1           0        1.701891    0.985925   -0.924858
      8          1           0        2.752736   -0.223691   -0.159822
      9          1           0        1.131235    0.477761    1.437063
     10          1           0       -1.041452    0.044739    1.458420
     11          1           0       -0.751825    2.034522    0.234929
     12          1           0       -0.659517    1.215451   -1.184000
     13          1           0       -2.017847   -1.075481   -0.494254
     14          1           0       -0.800882   -1.990550    0.140141
 ---------------------------------------------------------------------

 SCF Done:  E(RHF) =  -244.420755127     A.U. after    8 cycles

 The electronic state is 1-A.
 Alpha  occ. eigenvalues --  -15.53985 -15.53825 -15.53445 -11.30798 -11.23747
 Alpha  occ. eigenvalues --   -1.25564  -1.14756  -1.12195  -0.92086  -0.80771
 Alpha  occ. eigenvalues --   -0.70580  -0.68528  -0.61438  -0.60735  -0.57921
 Alpha  occ. eigenvalues --   -0.55409  -0.53303  -0.51417  -0.42744  -0.39881
 Alpha  occ. eigenvalues --   -0.36864
 Alpha virt. eigenvalues --    0.03907   0.04357   0.05094   0.05388   0.06953
 Alpha virt. eigenvalues --    0.07451   0.07636   0.09507   0.09772   0.12026
 Alpha virt. eigenvalues --    0.12536   0.12911   0.13582   0.13732   0.14599

 Mulliken charges:
               1
     1  C   -0.451334
     2  N   -0.417995
     3  C    0.151976
     4  N   -0.687387
     5  N   -0.725298
     6  H    0.203612
     7  H    0.129325
     8  H    0.174389
     9  H    0.268221
    10  H    0.162432
    11  H    0.275431
    12  H    0.299318
    13  H    0.310698
    14  H    0.306612
 Sum of Mulliken charges =  -0.00000

 Dipole moment (field-independent basis, Debye):
    X=              0.5970    Y=              0.9040    Z=              0.8330  Tot=              1.3665
 Quadrupole moment (field-independent basis, Debye-Ang):
   XX=            -33.4773   YY=            -30.5099   ZZ=            -32.3708
   XY=              3.9818   XZ=             -1.1336   YZ=              0.5566

 Normal termination of Gaussian 09 at Fri Aug 26 06:50:27 2022.
