 Gaussian 09, Revision E.01,
 Gaussian 09:  ES64L-G09RevE.01 30-Nov-2015

 -----
 #P G4
 -----

 ---------
 Frag_1102
 ---------
 Symbolic Z-matrix:
 Charge =  0 Multiplicity = 1

 SCF Done:  E(RB3LYP) =  -340.989323175     A.U. after   12 cycles
 SCF Done:  E(RB3LYP) =  -340.998084292     A.U. after   11 cycles
 SCF Done:  E(RB3LYP) =  -340.999623192     A.U. after   10 cycles
 SCF Done:  E(RB3LYP) =  -341.000606913     A.U. after   11 cycles
 SCF Done:  E(RB3LYP) =  -341.000800955     A.U. after   10 cycles
 SCF Done:  E(RB3LYP) =  -341.000874609     A.U. after   10 cycles
 SCF Done:  E(RB3LYP) =  -341.000923356     A.U. after   10 cycles
 SCF Done:  E(RB3LYP) =  -341.000996409     A.U. after   10 cycles
 SCF Done:  E(RB3LYP) =  -341.001079409     A.U. after   10 cycles
 SCF Done:  E(RB3LYP) =  -341.001132984     A.U. after   10 cycles
 SCF Done:  E(RB3LYP) =  -341.001164211     A.U. after    8 cycles
 SCF Done:  E(RB3LYP) =  -341.001164229     A.U. after    7 cycles
 SCF Done:  E(RB3LYP) =  -341.001164216     A.U. after    7 cycles
 Optimization completed.
    -- Stationary point found.
 Normal termination of Gaussian 09 at Fri Aug 26 10:29:24 2022.

 ----------------------------------------------------------
 #P Geom=AllCheck Guess=TCheck SCRF=Check B3LYP/GTBas3 Freq
 ----------------------------------------------------------

 Structure from the checkpoint file:  "G4.Frag_1102.chk"
 ---------
 Frag_1102
 ---------
 Charge =  0 Multiplicity = 1

 SCF Done:  E(RB3LYP) =  -341.001164216     A.U. after    1 cycles

  Exact polarizability:  50.851  -1.814  44.354   0.757   0.232  40.415
 Approx polarizability:  63.649  -2.708  63.076  -0.337   0.870  59.106

                      1                      2                      3
                      A                      A                      A
 Frequencies --     95.0625               113.0045               200.4088
 Red. masses --      1.2661                 2.2526                 1.1728
 Frc consts  --      0.0067                 0.0169                 0.0278
 IR Inten    --     60.8276                 0.6583                 1.2183

                      4                      5                      6
                      A                      A                      A
 Frequencies --    264.9135               274.0706               370.1164
 Red. masses --      1.9380                 1.3733                 1.6443
 Frc consts  --      0.0801                 0.0608                 0.1327
 IR Inten    --      4.2251                26.9044                31.3910

                      7                      8                      9
                      A                      A                      A
 Frequencies --    426.9622               454.4466               530.1864
 Red. masses --      2.8567                 1.5778                 3.2345
 Frc consts  --      0.3068                 0.1920                 0.5357
 IR Inten    --      2.8124                72.3917                32.1260

                     10                     11                     12
                      A                      A                      A
 Frequencies --    551.6908               616.8983               759.0929
 Red. masses --      4.1012                 3.9356                 2.1126
 Frc consts  --      0.7354                 0.8825                 0.7172
 IR Inten    --      1.1193                12.4422               112.1478

                     13                     14                     15
                      A                      A                      A
 Frequencies --    833.9726               846.7285               949.2073
 Red. masses --      2.3304                 1.4417                 2.7719
 Frc consts  --      0.9550                 0.6090                 1.4715
 IR Inten    --     81.6503               108.6013               138.7826

                     16                     17                     18
                      A                      A                      A
 Frequencies --   1040.3293              1080.3974              1119.3707
 Red. masses --      2.0116                 1.9259                 3.3944
 Frc consts  --      1.2827                 1.3245                 2.5059
 IR Inten    --    148.9630                73.3698               114.0159

                     19                     20                     21
                      A                      A                      A
 Frequencies --   1162.0144              1198.6669              1294.7329
 Red. masses --      1.4602                 1.5096                 1.6049
 Frc consts  --      1.1617                 1.2780                 1.5851
 IR Inten    --     15.1782                18.2305                70.5256

                     22                     23                     24
                      A                      A                      A
 Frequencies --   1363.3223              1391.7324              1453.4120
 Red. masses --      1.7359                 1.6898                 1.2091
 Frc consts  --      1.9009                 1.9284                 1.5049
 IR Inten    --     44.2507               122.0251                 5.1923

                     25                     26                     27
                      A                      A                      A
 Frequencies --   1489.7535              1500.5731              1524.4876
 Red. masses --      1.1368                 1.1962                 1.0891
 Frc consts  --      1.4865                 1.5869                 1.4913
 IR Inten    --     39.2907                20.6840                21.2242

                     28                     29                     30
                      A                      A                      A
 Frequencies --   1630.2973              2975.8824              3087.2483
 Red. masses --      1.1349                 1.0565                 1.0779
 Frc consts  --      1.7772                 5.5125                 6.0530
 IR Inten    --     68.0132                67.9001                31.7696

                     31                     32                     33
                      A                      A                      A
 Frequencies --   3137.0116              3523.2385              3532.0510
 Red. masses --      1.1010                 1.0733                 1.0479
 Frc consts  --      6.3837                 7.8495                 7.7021
 IR Inten    --     13.6890                 1.1701                 6.0473

                     34                     35                     36
                      A                      A                      A
 Frequencies --   3629.9071              3817.9548              3836.8316
 Red. masses --      1.0950                 1.0651                 1.0655
 Frc consts  --      8.5004                 9.1476                 9.2415
 IR Inten    --     13.0768                51.7999                38.1497

 - Thermochemistry -
 -------------------
 Temperature   298.150 Kelvin.  Pressure   1.00000 Atm.
 Atom     1 has atomic number  6 and mass  12.00000

 Molecular mass:    92.05858 amu.
 Principal axes and moments of inertia in atomic units:
                           1         2         3
     Eigenvalues --   353.39989 633.81842 643.90768
           X            0.99962  -0.01996   0.01903
           Y            0.01988   0.99979   0.00432
           Z           -0.01911  -0.00394   0.99981
 This molecule is an asymmetric top.
 Rotational symmetry number  1.
 Rotational temperatures (Kelvin)      0.24509     0.13665     0.13451
 Rotational constants (GHZ):           5.10680     2.84741     2.80279
 Zero-point vibrational energy     311483.5 (Joules/Mol)
                                   74.44635 (Kcal/Mol)
 Warning -- explicit consideration of  11 degrees of freedom as
           vibrations may cause significant error
 Vibrational temperatures:    136.77   162.59   288.34   381.15   394.33
          (Kelvin)            532.51   614.30   653.85   762.82   793.76
                              887.58  1092.16  1199.90  1218.25  1365.70
                             1496.80  1554.45  1610.52  1671.88  1724.61
                             1862.83  1961.51  2002.39  2091.13  2143.42
                             2158.99  2193.39  2345.63  4281.63  4441.86
                             4513.45  5069.15  5081.83  5222.62  5493.18
                             5520.34

 Zero-point correction=                           0.118638 (Hartree/Particle)
 Thermal correction to Energy=                    0.126270
 Thermal correction to Enthalpy=                  0.127214
 Thermal correction to Gibbs Free Energy=         0.087565
 Sum of electronic and zero-point Energies=           -340.882526
 Sum of electronic and thermal Energies=              -340.874894
 Sum of electronic and thermal Enthalpies=            -340.873950
 Sum of electronic and thermal Free Energies=         -340.913599

                     E (Thermal)             CV                S
                      KCal/Mol        Cal/Mol-Kelvin    Cal/Mol-Kelvin
 Total                   79.236             27.162             83.449
 Electronic               0.000              0.000              0.000
 Translational            0.889              2.981             39.471
 Rotational               0.889              2.981             26.470
 Vibrational             77.458             21.200             17.508
 Vibration     1          0.603              1.953              3.553
 Vibration     2          0.607              1.939              3.217
 Vibration     3          0.638              1.839              2.129
 Vibration     4          0.671              1.737              1.629
 Vibration     5          0.676              1.721              1.570
 Vibration     6          0.742              1.534              1.079
 Vibration     7          0.789              1.412              0.869
 Vibration     8          0.813              1.351              0.782
 Vibration     9          0.885              1.183              0.587
 Vibration    10          0.907              1.136              0.541
 Vibration    11          0.977              0.996              0.421

 Optimization completed.
    -- Stationary point found.
 Normal termination of Gaussian 09 at Fri Aug 26 10:29:56 2022.

 -----------------------------------------------------------------
 #P Geom=AllCheck Guess=TCheck SCRF=Check CCSD(T,E4T,FrzG4)/GTBas1
 -----------------------------------------------------------------

 Structure from the checkpoint file:  "G4.Frag_1102.chk"
 ---------
 Frag_1102
 ---------
 Charge =  0 Multiplicity = 1

 SCF Done:  E(RHF) =  -338.998996372     A.U. after   12 cycles
 E2 =    -0.9475335315D+00 EUMP2 =    -0.33994652990399D+03
 CCSD(T)
 CCSD(T)= -0.34001642106D+03
 339.9908357\CCSD=-339.9911669\CCSD(T)=-340.0164211\RMSD=4.034e-09\PG=C
 Normal termination of Gaussian 09 at Fri Aug 26 10:32:04 2022.

 ---------------------------------------------------------
 #P Geom=AllCheck Guess=TCheck SCRF=Check MP4=FrzG4/GTBas2
 ---------------------------------------------------------

 Structure from the checkpoint file:  "G4.Frag_1102.chk"
 ---------
 Frag_1102
 ---------
 Charge =  0 Multiplicity = 1

 SCF Done:  E(RHF) =  -339.012187104     A.U. after   11 cycles
 E2 =    -0.9661656653D+00 EUMP2 =    -0.33997835276922D+03
 Normal termination of Gaussian 09 at Fri Aug 26 10:32:46 2022.

 ---------------------------------------------------------
 #P Geom=AllCheck Guess=TCheck SCRF=Check MP4=FrzG4/GTBas3
 ---------------------------------------------------------

 Structure from the checkpoint file:  "G4.Frag_1102.chk"
 ---------
 Frag_1102
 ---------
 Charge =  0 Multiplicity = 1

 SCF Done:  E(RHF) =  -339.049862402     A.U. after   11 cycles
 E2 =    -0.1172914617D+01 EUMP2 =    -0.34022277701896D+03
 Normal termination of Gaussian 09 at Fri Aug 26 10:36:38 2022.

 -----------------------------------------------------------
 #P Geom=AllCheck Guess=TCheck SCRF=Check MP2=Full/GTLargeXP
 -----------------------------------------------------------

 Structure from the checkpoint file:  "G4.Frag_1102.chk"
 ---------
 Frag_1102
 ---------
 Charge =  0 Multiplicity = 1

 SCF Done:  E(RHF) =  -339.145703561     A.U. after   11 cycles
 E2 =    -0.1525677792D+01 EUMP2 =    -0.34067138135341D+03
 Normal termination of Gaussian 09 at Fri Aug 26 10:38:32 2022.
 SCF Done:  E(RHF) =  -339.172698345     A.U. after    8 cycles
 Normal termination of Gaussian 09 at Fri Aug 26 10:40:16 2022.

                         Standard orientation:
 ---------------------------------------------------------------------
 Center     Atomic      Atomic             Coordinates (Angstroms)
 Number     Number       Type             X           Y           Z
 ---------------------------------------------------------------------
      1          6           0        2.045682    0.069227   -0.002400
      2          7           0        0.786644    0.807644   -0.106345
      3          6           0       -0.414263    0.001352   -0.019092
      4          7           0       -1.592369    0.793663   -0.278016
      5          8           0       -0.619189   -0.574808    1.267751
      6          8           0       -0.283076   -1.025167   -0.968365
      7          1           0        2.873686    0.782845   -0.016367
      8          1           0        2.147990   -0.590760   -0.865528
      9          1           0        2.131960   -0.537006    0.913622
     10          1           0        0.733434    1.488602    0.644868
     11          1           0       -2.048167    1.034382    0.593217
     12          1           0       -1.338311    1.634818   -0.782686
     13          1           0       -0.250766   -1.462686    1.220616
     14          1           0       -1.180148   -1.183023   -1.283352
 ---------------------------------------------------------------------

 SCF Done:  E(RHF) =  -339.178786288     A.U. after    8 cycles

 The electronic state is 1-A.
 Alpha  occ. eigenvalues --  -20.56517 -20.56304 -15.55100 -15.54945 -11.39640
 Alpha  occ. eigenvalues --  -11.24306  -1.43506  -1.33893  -1.21349  -1.16129
 Alpha  occ. eigenvalues --   -0.92390  -0.83142  -0.76235  -0.70038  -0.67364
 Alpha  occ. eigenvalues --   -0.64004  -0.60839  -0.60535  -0.57362  -0.54482
 Alpha  occ. eigenvalues --   -0.52768  -0.50181  -0.48297  -0.42582  -0.39443
 Alpha virt. eigenvalues --    0.04016   0.04487   0.04772   0.05181   0.06685
 Alpha virt. eigenvalues --    0.07504   0.07814   0.09726   0.10354   0.11655
 Alpha virt. eigenvalues --    0.12159   0.12577   0.14699   0.14907   0.15673

 Mulliken charges:
               1
     1  C   -0.483340
     2  N   -0.384355
     3  C    0.654542
     4  N   -0.789753
     5  O   -0.620722
     6  O   -0.622548
     7  H    0.173727
     8  H    0.204833
     9  H    0.141405
    10  H    0.278431
    11  H    0.328250
    12  H    0.324381
    13  H    0.387616
    14  H    0.407532
 Sum of Mulliken charges =  -0.00000

 Dipole moment (field-independent basis, Debye):
    X=              0.1441    Y=              0.4635    Z=              0.7746  Tot=              0.9141
 Quadrupole moment (field-independent basis, Debye-Ang):
   XX=            -35.8208   YY=            -32.4015   ZZ=            -39.3931
   XY=             -0.6689   XZ=              2.1920   YZ=              0.8261

 Normal termination of Gaussian 09 at Fri Aug 26 10:47:31 2022.
