 Gaussian 09, Revision E.01,
 Gaussian 09:  ES64L-G09RevE.01 30-Nov-2015

 -----
 #P G4
 -----

 --------
 Frag_893
 --------
 Symbolic Z-matrix:
 Charge =  0 Multiplicity = 1

 SCF Done:  E(RB3LYP) =  -285.197300060     A.U. after   12 cycles
 SCF Done:  E(RB3LYP) =  -285.204054027     A.U. after   10 cycles
 SCF Done:  E(RB3LYP) =  -285.204637969     A.U. after   10 cycles
 SCF Done:  E(RB3LYP) =  -285.204864933     A.U. after   10 cycles
 SCF Done:  E(RB3LYP) =  -285.205019207     A.U. after    9 cycles
 SCF Done:  E(RB3LYP) =  -285.205228018     A.U. after   10 cycles
 SCF Done:  E(RB3LYP) =  -285.205422183     A.U. after   13 cycles
 SCF Done:  E(RB3LYP) =  -285.206578911     A.U. after   10 cycles
 SCF Done:  E(RB3LYP) =  -285.208000532     A.U. after   10 cycles
 SCF Done:  E(RB3LYP) =  -285.210331431     A.U. after   13 cycles
 SCF Done:  E(RB3LYP) =  -285.211613685     A.U. after    8 cycles
 SCF Done:  E(RB3LYP) =  -285.211615248     A.U. after    7 cycles
 SCF Done:  E(RB3LYP) =  -285.211615425     A.U. after    6 cycles
 Optimization completed.
    -- Stationary point found.
 Normal termination of Gaussian 09 at Fri Aug 26 04:36:39 2022.

 ----------------------------------------------------------
 #P Geom=AllCheck Guess=TCheck SCRF=Check B3LYP/GTBas3 Freq
 ----------------------------------------------------------

 Structure from the checkpoint file:  "G4.Frag_893.chk"
 --------
 Frag_893
 --------
 Charge =  0 Multiplicity = 1

 SCF Done:  E(RB3LYP) =  -285.211615425     A.U. after    1 cycles

  Exact polarizability:  61.905   0.690  55.937  -0.203   1.764  51.481
 Approx polarizability:  80.260   0.280  79.090   0.867   3.627  74.778

                      1                      2                      3
                      A                      A                      A
 Frequencies --    106.5431               235.0046               254.9072
 Red. masses --      2.9821                 1.1282                 1.2396
 Frc consts  --      0.0199                 0.0367                 0.0475
 IR Inten    --      2.0106                 4.6313                30.6989

                      4                      5                      6
                      A                      A                      A
 Frequencies --    263.2492               277.1638               300.3326
 Red. masses --      1.4162                 2.0268                 1.5356
 Frc consts  --      0.0578                 0.0917                 0.0816
 IR Inten    --      0.0319                 3.6370                 9.5953

                      7                      8                      9
                      A                      A                      A
 Frequencies --    334.4078               384.6264               439.9086
 Red. masses --      1.2003                 2.7821                 2.3280
 Frc consts  --      0.0791                 0.2425                 0.2654
 IR Inten    --     76.5527                 8.2193                16.3946

                     10                     11                     12
                      A                      A                      A
 Frequencies --    536.5387               616.1900               776.7279
 Red. masses --      3.1768                 2.2247                 2.4602
 Frc consts  --      0.5388                 0.4977                 0.8745
 IR Inten    --     22.8829                 3.1721                11.1168

                     13                     14                     15
                      A                      A                      A
 Frequencies --    862.5757               890.0409               909.1967
 Red. masses --      1.7419                 1.6137                 1.5788
 Frc consts  --      0.7636                 0.7532                 0.7690
 IR Inten    --     97.6539                12.2176               270.7471

                     16                     17                     18
                      A                      A                      A
 Frequencies --    940.7835              1007.2205              1038.9304
 Red. masses --      1.2879                 1.3964                 1.8475
 Frc consts  --      0.6716                 0.8347                 1.1749
 IR Inten    --      6.7135                12.9234                21.6381

                     19                     20                     21
                      A                      A                      A
 Frequencies --   1051.5003              1085.5192              1158.2520
 Red. masses --      1.9550                 2.3196                 1.3073
 Frc consts  --      1.2735                 1.6104                 1.0333
 IR Inten    --     11.2656                24.3393                16.2942

                     22                     23                     24
                      A                      A                      A
 Frequencies --   1213.8777              1228.7705              1289.0969
 Red. masses --      1.8801                 1.4136                 1.5593
 Frc consts  --      1.6323                 1.2576                 1.5267
 IR Inten    --      3.8969                 4.2983                 5.1146

                     25                     26                     27
                      A                      A                      A
 Frequencies --   1355.2282              1371.6956              1398.1700
 Red. masses --      1.3263                 1.3056                 1.2733
 Frc consts  --      1.4352                 1.4474                 1.4666
 IR Inten    --     19.1536                 5.2053                11.6018

                     28                     29                     30
                      A                      A                      A
 Frequencies --   1410.9364              1455.3483              1491.6150
 Red. masses --      1.4327                 1.4170                 1.0472
 Frc consts  --      1.6804                 1.7682                 1.3728
 IR Inten    --      1.2509                14.2013                 1.4952

                     31                     32                     33
                      A                      A                      A
 Frequencies --   1506.5193              1642.2484              1646.0265
 Red. masses --      1.0738                 1.0896                 1.0975
 Frc consts  --      1.4358                 1.7315                 1.7519
 IR Inten    --      3.7515                34.2352                33.3199

                     34                     35                     36
                      A                      A                      A
 Frequencies --   1660.6503              2981.8891              2994.5725
 Red. masses --      1.0952                 1.0831                 1.0840
 Frc consts  --      1.7795                 5.6741                 5.7275
 IR Inten    --     24.6996                45.6795                53.5389

                     37                     38                     39
                      A                      A                      A
 Frequencies --   3029.3615              3094.9595              3112.2115
 Red. masses --      1.0351                 1.1013                 1.1009
 Frc consts  --      5.5967                 6.2153                 6.2828
 IR Inten    --     19.9773                33.1442                23.4406

                     40                     41                     42
                      A                      A                      A
 Frequencies --   3470.6171              3472.4743              3492.4700
 Red. masses --      1.0492                 1.0495                 1.0490
 Frc consts  --      7.4461                 7.4557                 7.5385
 IR Inten    --      4.9117                 1.7277                 0.2971

                     43                     44                     45
                      A                      A                      A
 Frequencies --   3552.8962              3553.8772              3573.1540
 Red. masses --      1.0914                 1.0915                 1.0921
 Frc consts  --      8.1174                 8.1219                 8.2149
 IR Inten    --      0.9706                 0.3703                 1.3283

 - Thermochemistry -
 -------------------
 Temperature   298.150 Kelvin.  Pressure   1.00000 Atm.
 Atom     1 has atomic number  6 and mass  12.00000

 Molecular mass:    89.09530 amu.
 Principal axes and moments of inertia in atomic units:
                           1         2         3
     Eigenvalues --   401.85408 655.28446 764.47103
           X            0.99900   0.03746  -0.02433
           Y           -0.03743   0.99930   0.00169
           Z            0.02438  -0.00078   0.99970
 This molecule is an asymmetric top.
 Rotational symmetry number  1.
 Rotational temperatures (Kelvin)      0.21554     0.13218     0.11330
 Rotational constants (GHZ):           4.49104     2.75413     2.36077
 Zero-point vibrational energy     409531.3 (Joules/Mol)
                                   97.88033 (Kcal/Mol)
 Warning -- explicit consideration of  11 degrees of freedom as
           vibrations may cause significant error
 Vibrational temperatures:    153.29   338.12   366.75   378.76   398.78
          (Kelvin)            432.11   481.14   553.39   632.93   771.96
                              886.56  1117.54  1241.05  1280.57  1308.13
                             1353.58  1449.16  1494.79  1512.87  1561.82
                             1666.46  1746.50  1767.92  1854.72  1949.87
                             1973.56  2011.65  2030.02  2093.92  2146.10
                             2167.54  2362.83  2368.26  2389.30  4290.27
                             4308.52  4358.57  4452.95  4477.77  4993.44
                             4996.11  5024.88  5111.82  5113.23  5140.97

 Zero-point correction=                           0.155982 (Hartree/Particle)
 Thermal correction to Energy=                    0.163731
 Thermal correction to Enthalpy=                  0.164676
 Thermal correction to Gibbs Free Energy=         0.125183
 Sum of electronic and zero-point Energies=           -285.055633
 Sum of electronic and thermal Energies=              -285.047884
 Sum of electronic and thermal Enthalpies=            -285.046940
 Sum of electronic and thermal Free Energies=         -285.086432

                     E (Thermal)             CV                S
                      KCal/Mol        Cal/Mol-Kelvin    Cal/Mol-Kelvin
 Total                  102.743             28.839             83.119
 Electronic               0.000              0.000              0.000
 Translational            0.889              2.981             39.374
 Rotational               0.889              2.981             26.801
 Vibrational            100.966             22.877             16.944
 Vibration     1          0.605              1.944              3.331
 Vibration     2          0.655              1.787              1.840
 Vibration     3          0.665              1.755              1.696
 Vibration     4          0.670              1.740              1.640
 Vibration     5          0.678              1.716              1.551
 Vibration     6          0.693              1.673              1.415
 Vibration     7          0.716              1.607              1.239
 Vibration     8          0.754              1.503              1.021
 Vibration     9          0.800              1.383              0.827
 Vibration    10          0.892              1.169              0.573
 Vibration    11          0.976              0.998              0.423

 Optimization completed.
    -- Stationary point found.
 Normal termination of Gaussian 09 at Fri Aug 26 04:37:20 2022.

 -----------------------------------------------------------------
 #P Geom=AllCheck Guess=TCheck SCRF=Check CCSD(T,E4T,FrzG4)/GTBas1
 -----------------------------------------------------------------

 Structure from the checkpoint file:  "G4.Frag_893.chk"
 --------
 Frag_893
 --------
 Charge =  0 Multiplicity = 1

 SCF Done:  E(RHF) =  -283.330703003     A.U. after   12 cycles
 E2 =    -0.8905476705D+00 EUMP2 =    -0.28422125067334D+03
 CCSD(T)
 CCSD(T)= -0.28430916061D+03
 0552\CCSD=-284.2834057\CCSD(T)=-284.3091606\RMSD=1.562e-09\PG=C01 [X(C
 Normal termination of Gaussian 09 at Fri Aug 26 04:39:59 2022.

 ---------------------------------------------------------
 #P Geom=AllCheck Guess=TCheck SCRF=Check MP4=FrzG4/GTBas2
 ---------------------------------------------------------

 Structure from the checkpoint file:  "G4.Frag_893.chk"
 --------
 Frag_893
 --------
 Charge =  0 Multiplicity = 1

 SCF Done:  E(RHF) =  -283.341671107     A.U. after   12 cycles
 E2 =    -0.9061342431D+00 EUMP2 =    -0.28424780534960D+03
 Normal termination of Gaussian 09 at Fri Aug 26 04:40:52 2022.

 ---------------------------------------------------------
 #P Geom=AllCheck Guess=TCheck SCRF=Check MP4=FrzG4/GTBas3
 ---------------------------------------------------------

 Structure from the checkpoint file:  "G4.Frag_893.chk"
 --------
 Frag_893
 --------
 Charge =  0 Multiplicity = 1

 SCF Done:  E(RHF) =  -283.375879137     A.U. after   10 cycles
 E2 =    -0.1101679652D+01 EUMP2 =    -0.28447755878870D+03
 Normal termination of Gaussian 09 at Fri Aug 26 04:45:53 2022.

 -----------------------------------------------------------
 #P Geom=AllCheck Guess=TCheck SCRF=Check MP2=Full/GTLargeXP
 -----------------------------------------------------------

 Structure from the checkpoint file:  "G4.Frag_893.chk"
 --------
 Frag_893
 --------
 Charge =  0 Multiplicity = 1

 SCF Done:  E(RHF) =  -283.448198420     A.U. after   12 cycles
 E2 =    -0.1437835102D+01 EUMP2 =    -0.28488603352181D+03
 Normal termination of Gaussian 09 at Fri Aug 26 04:48:22 2022.
 SCF Done:  E(RHF) =  -283.470156566     A.U. after    8 cycles
 Normal termination of Gaussian 09 at Fri Aug 26 04:50:50 2022.

                         Standard orientation:
 ---------------------------------------------------------------------
 Center     Atomic      Atomic             Coordinates (Angstroms)
 Number     Number       Type             X           Y           Z
 ---------------------------------------------------------------------
      1          6           0       -1.044086   -1.171888    0.775796
      2          6           0       -0.714349   -0.264030   -0.418477
      3          7           0       -1.623300    0.874019   -0.587601
      4          6           0        0.718370    0.306578   -0.356199
      5          7           0        1.691650   -0.793399   -0.414363
      6          7           0        0.888868    1.104538    0.854105
      7          1           0       -0.319476   -1.985994    0.871438
      8          1           0       -2.041122   -1.609579    0.656263
      9          1           0       -1.045143   -0.596886    1.708227
     10          1           0       -0.772788   -0.868049   -1.336124
     11          1           0       -1.449072    1.516094    0.183376
     12          1           0       -2.585517    0.561396   -0.494243
     13          1           0        0.802251    1.009422   -1.199117
     14          1           0        2.629699   -0.410780   -0.496842
     15          1           0        1.538326   -1.351585   -1.251157
     16          1           0        1.103147    0.483073    1.629676
     17          1           0        1.679565    1.732822    0.756802
 ---------------------------------------------------------------------

 SCF Done:  E(RHF) =  -283.475052025     A.U. after    7 cycles

 The electronic state is 1-A.
 Alpha  occ. eigenvalues --  -15.54251 -15.54033 -15.52550 -11.27873 -11.24709
 Alpha  occ. eigenvalues --  -11.20486  -1.23125  -1.16311  -1.12443  -0.98279
 Alpha  occ. eigenvalues --   -0.89002  -0.76916  -0.69064  -0.66352  -0.65465
 Alpha  occ. eigenvalues --   -0.59581  -0.58757  -0.56897  -0.54843  -0.53777
 Alpha  occ. eigenvalues --   -0.48827  -0.47017  -0.41459  -0.39732  -0.38183
 Alpha virt. eigenvalues --    0.03427   0.04182   0.04675   0.05403   0.06668
 Alpha virt. eigenvalues --    0.07044   0.07397   0.08026   0.08612   0.10419
 Alpha virt. eigenvalues --    0.11472   0.11723   0.11898   0.12423   0.12848

 Mulliken charges:
               1
     1  C   -0.569048
     2  C    0.083643
     3  N   -0.735564
     4  C    0.126866
     5  N   -0.722152
     6  N   -0.766137
     7  H    0.188864
     8  H    0.158140
     9  H    0.166453
    10  H    0.135599
    11  H    0.315717
    12  H    0.275507
    13  H    0.172166
    14  H    0.285019
    15  H    0.289318
    16  H    0.305815
    17  H    0.289793
 Sum of Mulliken charges =  -0.00000

 Dipole moment (field-independent basis, Debye):
    X=              1.2837    Y=             -0.5459    Z=             -0.0282  Tot=              1.3952
 Quadrupole moment (field-independent basis, Debye-Ang):
   XX=            -33.7591   YY=            -41.9191   ZZ=            -39.7689
   XY=              3.9809   XZ=             -2.7249   YZ=              3.3102

 Normal termination of Gaussian 09 at Fri Aug 26 04:58:53 2022.
