 Gaussian 09, Revision E.01,
 Gaussian 09:  ES64L-G09RevE.01 30-Nov-2015

 -----
 #P G4
 -----

 --------
 Frag_748
 --------
 Symbolic Z-matrix:
 Charge =  0 Multiplicity = 1

 SCF Done:  E(RB3LYP) =  -307.258964035     A.U. after   14 cycles
 SCF Done:  E(RB3LYP) =  -307.267452712     A.U. after   12 cycles
 SCF Done:  E(RB3LYP) =  -307.268471110     A.U. after   11 cycles
 SCF Done:  E(RB3LYP) =  -307.269823707     A.U. after   12 cycles
 SCF Done:  E(RB3LYP) =  -307.270838161     A.U. after   11 cycles
 SCF Done:  E(RB3LYP) =  -307.271463040     A.U. after   10 cycles
 SCF Done:  E(RB3LYP) =  -307.271621115     A.U. after   10 cycles
 SCF Done:  E(RB3LYP) =  -307.271580894     A.U. after   11 cycles
 SCF Done:  E(RB3LYP) =  -307.271730687     A.U. after   11 cycles
 SCF Done:  E(RB3LYP) =  -307.271754104     A.U. after   10 cycles
 SCF Done:  E(RB3LYP) =  -307.271906179     A.U. after    9 cycles
 SCF Done:  E(RB3LYP) =  -307.271906581     A.U. after    7 cycles
 SCF Done:  E(RB3LYP) =  -307.271906510     A.U. after    6 cycles
 Optimization completed.
    -- Stationary point found.
 Normal termination of Gaussian 09 at Fri Aug 26 03:38:45 2022.

 ----------------------------------------------------------
 #P Geom=AllCheck Guess=TCheck SCRF=Check B3LYP/GTBas3 Freq
 ----------------------------------------------------------

 Structure from the checkpoint file:  "G4.Frag_748.chk"
 --------
 Frag_748
 --------
 Charge =  0 Multiplicity = 1

 SCF Done:  E(RB3LYP) =  -307.271906510     A.U. after    1 cycles

  Exact polarizability:  71.990   0.884  73.209  -0.040  -0.033  59.080
 Approx polarizability:  96.742   6.867 111.139  -0.506  -1.566  86.578

                      1                      2                      3
                      A                      A                      A
 Frequencies --     57.5030               159.7033               213.2474
 Red. masses --      2.8919                 1.0878                 1.3212
 Frc consts  --      0.0056                 0.0163                 0.0354
 IR Inten    --      1.3271                 0.1111                 4.1953

                      4                      5                      6
                      A                      A                      A
 Frequencies --    268.0924               281.2607               290.3648
 Red. masses --      1.2700                 1.6303                 1.8031
 Frc consts  --      0.0538                 0.0760                 0.0896
 IR Inten    --      7.0970                 8.4636                17.2939

                      7                      8                      9
                      A                      A                      A
 Frequencies --    315.9574               364.5830               383.9224
 Red. masses --      1.1961                 2.3327                 2.4558
 Frc consts  --      0.0704                 0.1827                 0.2133
 IR Inten    --      3.0135                 0.9435                 3.3222

                     10                     11                     12
                      A                      A                      A
 Frequencies --    395.2410               483.2485               535.5768
 Red. masses --      2.8741                 2.7615                 2.8445
 Frc consts  --      0.2645                 0.3800                 0.4807
 IR Inten    --      5.8346                 3.7594                 9.5956

                     13                     14                     15
                      A                      A                      A
 Frequencies --    591.8627               678.8559               835.0994
 Red. masses --      2.2567                 3.2857                 2.4540
 Frc consts  --      0.4658                 0.8921                 1.0083
 IR Inten    --      5.5115                 2.9162                36.5012

                     16                     17                     18
                      A                      A                      A
 Frequencies --    883.0876               922.4064               933.3489
 Red. masses --      1.5496                 1.4513                 1.4495
 Frc consts  --      0.7120                 0.7275                 0.7440
 IR Inten    --    106.8016                24.7717                 9.7062

                     19                     20                     21
                      A                      A                      A
 Frequencies --    966.9715               982.9286              1026.4906
 Red. masses --      1.6873                 1.7064                 1.3369
 Frc consts  --      0.9296                 0.9713                 0.8300
 IR Inten    --      0.8456                 3.2504                 9.6940

                     22                     23                     24
                      A                      A                      A
 Frequencies --   1081.0865              1089.9029              1102.1286
 Red. masses --      1.4405                 1.5029                 1.5647
 Frc consts  --      0.9919                 1.0519                 1.1198
 IR Inten    --      5.3188                12.2191                14.9837

                     25                     26                     27
                      A                      A                      A
 Frequencies --   1211.8475              1237.3685              1316.9823
 Red. masses --      2.5210                 2.6159                 1.6782
 Frc consts  --      2.1814                 2.3597                 1.7149
 IR Inten    --     13.8229                28.0100                40.3515

                     28                     29                     30
                      A                      A                      A
 Frequencies --   1358.6994              1394.1324              1403.0265
 Red. masses --      1.6228                 1.2466                 1.5297
 Frc consts  --      1.7651                 1.4276                 1.7742
 IR Inten    --     23.7559                15.0513                40.7169

                     31                     32                     33
                      A                      A                      A
 Frequencies --   1414.7038              1474.2666              1480.5087
 Red. masses --      1.2258                 1.0469                 1.0561
 Frc consts  --      1.4454                 1.3407                 1.3639
 IR Inten    --      5.8452                 6.2120                 6.2547

                     34                     35                     36
                      A                      A                      A
 Frequencies --   1487.6561              1488.1476              1504.2625
 Red. masses --      1.0520                 1.0475                 1.0511
 Frc consts  --      1.3718                 1.3667                 1.4013
 IR Inten    --      3.1748                 1.0810                 3.2834

                     37                     38                     39
                      A                      A                      A
 Frequencies --   1513.7424              1654.2045              1718.8406
 Red. masses --      1.0633                 1.0977                 8.5749
 Frc consts  --      1.4355                 1.7698                14.9263
 IR Inten    --      6.5513                25.6758                59.1134

                     40                     41                     42
                      A                      A                      A
 Frequencies --   3025.6777              3036.1967              3043.0103
 Red. masses --      1.0354                 1.0394                 1.0427
 Frc consts  --      5.5848                 5.6454                 5.6886
 IR Inten    --     15.3136                17.5656                11.2749

                     43                     44                     45
                      A                      A                      A
 Frequencies --   3095.8207              3098.2025              3104.3327
 Red. masses --      1.1012                 1.1003                 1.0981
 Frc consts  --      6.2183                 6.2226                 6.2348
 IR Inten    --     14.3141                14.6179                41.6807

                     46                     47                     48
                      A                      A                      A
 Frequencies --   3111.1563              3138.1491              3156.4510
 Red. masses --      1.0898                 1.1005                 1.1038
 Frc consts  --      6.2149                 6.3853                 6.4793
 IR Inten    --     12.1703                15.6086                 7.3975

                     49                     50                     51
                      A                      A                      A
 Frequencies --   3457.2031              3470.3716              3550.6956
 Red. masses --      1.0726                 1.0488                 1.0925
 Frc consts  --      7.5533                 7.4419                 8.1155
 IR Inten    --      1.8008                 0.4974                 0.0440

 - Thermochemistry -
 -------------------
 Temperature   298.150 Kelvin.  Pressure   1.00000 Atm.
 Atom     1 has atomic number  6 and mass  12.00000

 Molecular mass:   100.10005 amu.
 Principal axes and moments of inertia in atomic units:
                           1         2         3
     Eigenvalues --   560.89869 780.99365 949.83064
           X            0.99474  -0.10229   0.00581
           Y            0.10196   0.99391   0.04179
           Z           -0.01005  -0.04098   0.99911
 This molecule is an asymmetric top.
 Rotational symmetry number  1.
 Warning -- assumption of classical behavior for rotation
           may cause significant error
 Rotational temperatures (Kelvin)      0.15442     0.11090     0.09119
 Rotational constants (GHZ):           3.21759     2.31083     1.90007
 Zero-point vibrational energy     447334.7 (Joules/Mol)
                                  106.91557 (Kcal/Mol)
 Warning -- explicit consideration of  13 degrees of freedom as
           vibrations may cause significant error
 Vibrational temperatures:     82.73   229.78   306.81   385.72   404.67
          (Kelvin)            417.77   454.59   524.55   552.38   568.66
                              695.29   770.57   851.56   976.72  1201.52
                             1270.56  1327.14  1342.88  1391.25  1414.21
                             1476.89  1555.44  1568.13  1585.72  1743.58
                             1780.30  1894.84  1954.86  2005.84  2018.64
                             2035.44  2121.14  2130.12  2140.40  2141.11
                             2164.30  2177.93  2380.03  2473.03  4353.27
                             4368.40  4378.21  4454.19  4457.62  4466.44
                             4476.25  4515.09  4541.42  4974.14  4993.08
                             5108.65

 Zero-point correction=                           0.170381 (Hartree/Particle)
 Thermal correction to Energy=                    0.179167
 Thermal correction to Enthalpy=                  0.180111
 Thermal correction to Gibbs Free Energy=         0.137923
 Sum of electronic and zero-point Energies=           -307.101526
 Sum of electronic and thermal Energies=              -307.092739
 Sum of electronic and thermal Enthalpies=            -307.091795
 Sum of electronic and thermal Free Energies=         -307.133984

                     E (Thermal)             CV                S
                      KCal/Mol        Cal/Mol-Kelvin    Cal/Mol-Kelvin
 Total                  112.429             32.896             88.793
 Electronic               0.000              0.000              0.000
 Translational            0.889              2.981             39.721
 Rotational               0.889              2.981             27.522
 Vibrational            110.652             26.934             21.550
 Vibration     1          0.596              1.975              4.541
 Vibration     2          0.622              1.892              2.553
 Vibration     3          0.644              1.821              2.016
 Vibration     4          0.673              1.732              1.608
 Vibration     5          0.681              1.708              1.526
 Vibration     6          0.686              1.692              1.472
 Vibration     7          0.703              1.643              1.331
 Vibration     8          0.738              1.545              1.102
 Vibration     9          0.753              1.504              1.024
 Vibration    10          0.762              1.480              0.980
 Vibration    11          0.839              1.287              0.701
 Vibration    12          0.891              1.171              0.575
 Vibration    13          0.949              1.049              0.464

 Optimization completed.
    -- Stationary point found.
 Normal termination of Gaussian 09 at Fri Aug 26 03:39:46 2022.

 -----------------------------------------------------------------
 #P Geom=AllCheck Guess=TCheck SCRF=Check CCSD(T,E4T,FrzG4)/GTBas1
 -----------------------------------------------------------------

 Structure from the checkpoint file:  "G4.Frag_748.chk"
 --------
 Frag_748
 --------
 Charge =  0 Multiplicity = 1

 SCF Done:  E(RHF) =  -305.200476753     A.U. after   12 cycles
 E2 =    -0.9836774373D+00 EUMP2 =    -0.30618415419063D+03
 CCSD(T)
 CCSD(T)= -0.30628794969D+03
 869352\MP4SDQ=-306.2530608\CCSD=-306.2540256\CCSD(T)=-306.2879497\RMSD
 Normal termination of Gaussian 09 at Fri Aug 26 03:44:36 2022.

 ---------------------------------------------------------
 #P Geom=AllCheck Guess=TCheck SCRF=Check MP4=FrzG4/GTBas2
 ---------------------------------------------------------

 Structure from the checkpoint file:  "G4.Frag_748.chk"
 --------
 Frag_748
 --------
 Charge =  0 Multiplicity = 1

 SCF Done:  E(RHF) =  -305.209047903     A.U. after   13 cycles
 E2 =    -0.9969881470D+00 EUMP2 =    -0.30620603605012D+03
 Normal termination of Gaussian 09 at Fri Aug 26 03:46:07 2022.

 ---------------------------------------------------------
 #P Geom=AllCheck Guess=TCheck SCRF=Check MP4=FrzG4/GTBas3
 ---------------------------------------------------------

 Structure from the checkpoint file:  "G4.Frag_748.chk"
 --------
 Frag_748
 --------
 Charge =  0 Multiplicity = 1

 SCF Done:  E(RHF) =  -305.242731787     A.U. after   11 cycles
 E2 =    -0.1210140726D+01 EUMP2 =    -0.30645287251277D+03
 Normal termination of Gaussian 09 at Fri Aug 26 03:58:48 2022.

 -----------------------------------------------------------
 #P Geom=AllCheck Guess=TCheck SCRF=Check MP2=Full/GTLargeXP
 -----------------------------------------------------------

 Structure from the checkpoint file:  "G4.Frag_748.chk"
 --------
 Frag_748
 --------
 Charge =  0 Multiplicity = 1

 SCF Done:  E(RHF) =  -305.313442753     A.U. after   12 cycles
 E2 =    -0.1588670162D+01 EUMP2 =    -0.30690211291412D+03
 Normal termination of Gaussian 09 at Fri Aug 26 04:02:51 2022.
 SCF Done:  E(RHF) =  -305.336974519     A.U. after    9 cycles
 Normal termination of Gaussian 09 at Fri Aug 26 04:07:19 2022.

                         Standard orientation:
 ---------------------------------------------------------------------
 Center     Atomic      Atomic             Coordinates (Angstroms)
 Number     Number       Type             X           Y           Z
 ---------------------------------------------------------------------
      1          6           0       -1.907163    0.847601   -0.041405
      2          6           0       -0.927162   -0.300974    0.019662
      3          7           0       -1.395452   -1.482407    0.093517
      4          6           0        0.575721    0.068793   -0.021204
      5          6           0        0.911193    0.983889    1.172661
      6          6           0        1.476383   -1.178119    0.028690
      7          7           0        0.785250    0.856608   -1.254520
      8          1           0       -2.910354    0.455853   -0.212432
      9          1           0       -1.911956    1.402594    0.903953
     10          1           0       -1.628199    1.552466   -0.827573
     11          1           0       -0.649729   -2.179279    0.134661
     12          1           0        0.679557    0.491591    2.121601
     13          1           0        0.356436    1.922257    1.117125
     14          1           0        1.980630    1.224259    1.172051
     15          1           0        2.525462   -0.871154   -0.030648
     16          1           0        1.279204   -1.848177   -0.815140
     17          1           0        1.352601   -1.747835    0.956173
     18          1           0        1.743322    1.197205   -1.276168
     19          1           0        0.680601    0.253672   -2.067006
 ---------------------------------------------------------------------

 SCF Done:  E(RHF) =  -305.341940395     A.U. after    8 cycles

 The electronic state is 1-A.
 Alpha  occ. eigenvalues --  -15.55005 -15.53534 -11.28028 -11.27797 -11.22676
 Alpha  occ. eigenvalues --  -11.22554 -11.20965  -1.22553  -1.17972  -1.02723
 Alpha  occ. eigenvalues --   -0.98122  -0.94079  -0.83560  -0.72392  -0.68868
 Alpha  occ. eigenvalues --   -0.63731  -0.63296  -0.58594  -0.57293  -0.55956
 Alpha  occ. eigenvalues --   -0.54902  -0.54206  -0.52155  -0.50625  -0.49434
 Alpha  occ. eigenvalues --   -0.41613  -0.41327  -0.39386
 Alpha virt. eigenvalues --    0.02915   0.03918   0.04454   0.04829   0.06194
 Alpha virt. eigenvalues --    0.06601   0.07012   0.07217   0.07360   0.09087
 Alpha virt. eigenvalues --    0.09267   0.09719   0.10384   0.10739   0.11308

 Mulliken charges:
               1
     1  C   -0.578678
     2  C    0.277426
     3  N   -0.645954
     4  C    0.407595
     5  C   -0.594994
     6  C   -0.634384
     7  N   -0.765017
     8  H    0.204134
     9  H    0.175110
    10  H    0.216126
    11  H    0.275340
    12  H    0.185417
    13  H    0.182672
    14  H    0.164855
    15  H    0.179314
    16  H    0.177608
    17  H    0.181925
    18  H    0.292635
    19  H    0.298871
 Sum of Mulliken charges =  -0.00000

 Dipole moment (field-independent basis, Debye):
    X=              3.1367    Y=              0.6799    Z=             -0.0607  Tot=              3.2101
 Quadrupole moment (field-independent basis, Debye-Ang):
   XX=            -47.7893   YY=            -47.9907   ZZ=            -44.3432
   XY=             -4.1431   XZ=             -0.8963   YZ=              1.6393

 Normal termination of Gaussian 09 at Fri Aug 26 04:21:46 2022.
