 Gaussian 09, Revision E.01,
 Gaussian 09:  ES64L-G09RevE.01 30-Nov-2015

 -----
 #P G4
 -----

 --------
 Frag_806
 --------
 Symbolic Z-matrix:
 Charge =  0 Multiplicity = 1

 SCF Done:  E(RB3LYP) =  -268.336385497     A.U. after   14 cycles
 SCF Done:  E(RB3LYP) =  -268.361813023     A.U. after   12 cycles
 SCF Done:  E(RB3LYP) =  -268.363899520     A.U. after   11 cycles
 SCF Done:  E(RB3LYP) =  -268.363971282     A.U. after    9 cycles
 SCF Done:  E(RB3LYP) =  -268.363977707     A.U. after    8 cycles
 SCF Done:  E(RB3LYP) =  -268.363978390     A.U. after    7 cycles
 Optimization completed.
    -- Stationary point found.
 Normal termination of Gaussian 09 at Fri Aug 26 08:58:15 2022.

 ----------------------------------------------------------
 #P Geom=AllCheck Guess=TCheck SCRF=Check B3LYP/GTBas3 Freq
 ----------------------------------------------------------

 Structure from the checkpoint file:  "G4.Frag_806.chk"
 --------
 Frag_806
 --------
 Charge =  0 Multiplicity = 1

 SCF Done:  E(RB3LYP) =  -268.363978390     A.U. after    1 cycles

  Exact polarizability:  48.643   2.480  45.389  -0.000  -0.000  26.317
 Approx polarizability:  60.919   2.400  74.358  -0.000  -0.000  37.868

                      1                      2                      3
                      A                      A                      A
 Frequencies --    123.9417               235.1683               318.5553
 Red. masses --      3.6566                 1.0555                 2.8779
 Frc consts  --      0.0331                 0.0344                 0.1721
 IR Inten    --      1.5228                 0.2658                 3.8598

                      4                      5                      6
                      A                      A                      A
 Frequencies --    353.1729               487.6256               565.4929
 Red. masses --      1.0494                 2.6773                 3.9047
 Frc consts  --      0.0771                 0.3751                 0.7357
 IR Inten    --    101.5659                19.5933                 4.3657

                      7                      8                      9
                      A                      A                      A
 Frequencies --    672.9415               677.6279               712.5145
 Red. masses --      1.0878                 2.0542                 2.4305
 Frc consts  --      0.2902                 0.5558                 0.7270
 IR Inten    --      0.9903                 9.7952                73.1612

                     10                     11                     12
                      A                      A                      A
 Frequencies --    893.3316               979.3115              1117.5680
 Red. masses --      3.8837                 1.7107                 4.1150
 Frc consts  --      1.8261                 0.9666                 3.0281
 IR Inten    --     23.3266                13.5152                10.8061

                     13                     14                     15
                      A                      A                      A
 Frequencies --   1182.8516              1219.4981              1230.9604
 Red. masses --      1.2775                 1.4807                 1.7410
 Frc consts  --      1.0531                 1.2974                 1.5543
 IR Inten    --      1.5218               144.7767               187.5607

                     16                     17                     18
                      A                      A                      A
 Frequencies --   1407.0535              1442.0170              1485.8302
 Red. masses --      2.3246                 1.1722                 1.0466
 Frc consts  --      2.7115                 1.4361                 1.3614
 IR Inten    --    124.1384                16.7055                 6.7203

                     19                     20                     21
                      A                      A                      A
 Frequencies --   1496.8247              1509.2452              1717.5488
 Red. masses --      1.3364                 1.0493                 6.1277
 Frc consts  --      1.7641                 1.4083                10.6504
 IR Inten    --     20.6811                12.7546               292.1106

                     22                     23                     24
                      A                      A                      A
 Frequencies --   3016.0998              3078.6923              3142.7498
 Red. masses --      1.0336                 1.1050                 1.1005
 Frc consts  --      5.5396                 6.1706                 6.4042
 IR Inten    --     31.9969                33.2190                17.7266

                     25                     26                     27
                      A                      A                      A
 Frequencies --   3188.9896              3282.6546              3842.4327
 Red. masses --      1.0633                 1.1126                 1.0654
 Frc consts  --      6.3708                 7.0640                 9.2677
 IR Inten    --      2.0845                 5.8834                49.6460

 - Thermochemistry -
 -------------------
 Temperature   298.150 Kelvin.  Pressure   1.00000 Atm.
 Atom     1 has atomic number  6 and mass  12.00000

 Molecular mass:    74.03678 amu.
 Principal axes and moments of inertia in atomic units:
                           1         2         3
     Eigenvalues --   185.24506 418.06061 591.82040
           X            0.99983   0.01841   0.00000
           Y           -0.01841   0.99983  -0.00000
           Z           -0.00000   0.00000   1.00000
 This molecule is an asymmetric top.
 Rotational symmetry number  1.
 Rotational temperatures (Kelvin)      0.46756     0.20718     0.14635
 Rotational constants (GHZ):           9.74245     4.31694     3.04947
 Zero-point vibrational energy     235548.9 (Joules/Mol)
                                   56.29754 (Kcal/Mol)
 Warning -- explicit consideration of   6 degrees of freedom as
           vibrations may cause significant error
 Vibrational temperatures:    178.32   338.35   458.33   508.14   701.58
          (Kelvin)            813.62   968.21   974.95  1025.15  1285.30
                             1409.01  1607.93  1701.86  1754.58  1771.08
                             2024.43  2074.74  2137.78  2153.59  2171.46
                             2471.17  4339.49  4429.55  4521.71  4588.24
                             4723.00  5528.40

 Zero-point correction=                           0.089716 (Hartree/Particle)
 Thermal correction to Energy=                    0.095465
 Thermal correction to Enthalpy=                  0.096410
 Thermal correction to Gibbs Free Energy=         0.061173
 Sum of electronic and zero-point Energies=           -268.274263
 Sum of electronic and thermal Energies=              -268.268513
 Sum of electronic and thermal Enthalpies=            -268.267569
 Sum of electronic and thermal Free Energies=         -268.302806

                     E (Thermal)             CV                S
                      KCal/Mol        Cal/Mol-Kelvin    Cal/Mol-Kelvin
 Total                   59.905             20.054             74.162
 Electronic               0.000              0.000              0.000
 Translational            0.889              2.981             38.822
 Rotational               0.889              2.981             25.331
 Vibrational             58.128             14.092             10.009
 Vibration     1          0.610              1.929              3.038
 Vibration     2          0.655              1.787              1.839
 Vibration     3          0.705              1.638              1.318
 Vibration     4          0.729              1.569              1.152
 Vibration     5          0.844              1.277              0.690
 Vibration     6          0.921              1.106              0.513

 Optimization completed.
    -- Stationary point found.
 Normal termination of Gaussian 09 at Fri Aug 26 08:58:34 2022.

 -----------------------------------------------------------------
 #P Geom=AllCheck Guess=TCheck SCRF=Check CCSD(T,E4T,FrzG4)/GTBas1
 -----------------------------------------------------------------

 Structure from the checkpoint file:  "G4.Frag_806.chk"
 --------
 Frag_806
 --------
 Charge =  0 Multiplicity = 1

 SCF Done:  E(RHF) =  -266.777038400     A.U. after   12 cycles
 E2 =    -0.7367420999D+00 EUMP2 =    -0.26751378049994D+03
 CCSD(T)
 CCSD(T)= -0.26757352814D+03
 3\MP4SDQ=-267.5510189\CCSD=-267.5507361\CCSD(T)=-267.5735281\RMSD=8.55
 Normal termination of Gaussian 09 at Fri Aug 26 08:59:28 2022.

 ---------------------------------------------------------
 #P Geom=AllCheck Guess=TCheck SCRF=Check MP4=FrzG4/GTBas2
 ---------------------------------------------------------

 Structure from the checkpoint file:  "G4.Frag_806.chk"
 --------
 Frag_806
 --------
 Charge =  0 Multiplicity = 1

 SCF Done:  E(RHF) =  -266.785992484     A.U. after   12 cycles
 E2 =    -0.7476465001D+00 EUMP2 =    -0.26753363898378D+03
 Normal termination of Gaussian 09 at Fri Aug 26 08:59:43 2022.

 ---------------------------------------------------------
 #P Geom=AllCheck Guess=TCheck SCRF=Check MP4=FrzG4/GTBas3
 ---------------------------------------------------------

 Structure from the checkpoint file:  "G4.Frag_806.chk"
 --------
 Frag_806
 --------
 Charge =  0 Multiplicity = 1

 SCF Done:  E(RHF) =  -266.813345182     A.U. after   11 cycles
 E2 =    -0.9129273605D+00 EUMP2 =    -0.26772627254204D+03
 Normal termination of Gaussian 09 at Fri Aug 26 09:00:57 2022.

 -----------------------------------------------------------
 #P Geom=AllCheck Guess=TCheck SCRF=Check MP2=Full/GTLargeXP
 -----------------------------------------------------------

 Structure from the checkpoint file:  "G4.Frag_806.chk"
 --------
 Frag_806
 --------
 Charge =  0 Multiplicity = 1

 SCF Done:  E(RHF) =  -266.886743082     A.U. after   12 cycles
 E2 =    -0.1197325523D+01 EUMP2 =    -0.26808406860513D+03
 Normal termination of Gaussian 09 at Fri Aug 26 09:01:42 2022.
 SCF Done:  E(RHF) =  -266.908753037     A.U. after    8 cycles
 Normal termination of Gaussian 09 at Fri Aug 26 09:02:30 2022.

                         Standard orientation:
 ---------------------------------------------------------------------
 Center     Atomic      Atomic             Coordinates (Angstroms)
 Number     Number       Type             X           Y           Z
 ---------------------------------------------------------------------
      1          6           0        0.585150    1.373778    0.000000
      2          6           0        0.500559    0.037465    0.000001
      3          8           0        1.551152   -0.816754   -0.000001
      4          8           0       -0.612345   -0.714566    0.000001
      5          6           0       -1.852018   -0.029816   -0.000000
      6          1           0        1.553329    1.856729   -0.000001
      7          1           0       -0.287814    2.006156    0.000001
      8          1           0        2.360630   -0.296106    0.000002
      9          1           0       -1.957273    0.597645    0.893200
     10          1           0       -1.957272    0.597644   -0.893202
     11          1           0       -2.624201   -0.800069   -0.000000
 ---------------------------------------------------------------------

 SCF Done:  E(RHF) =  -266.913483370     A.U. after    7 cycles

 The electronic state is 1-A.
 Alpha  occ. eigenvalues --  -20.59499 -20.59357 -11.36295 -11.28744 -11.20276
 Alpha  occ. eigenvalues --   -1.46119  -1.38078  -1.01929  -0.96764  -0.80902
 Alpha  occ. eigenvalues --   -0.71950  -0.69323  -0.67273  -0.61601  -0.58826
 Alpha  occ. eigenvalues --   -0.58533  -0.54850  -0.51602  -0.48481  -0.33652
 Alpha virt. eigenvalues --    0.03738   0.04038   0.05136   0.05761   0.06940
 Alpha virt. eigenvalues --    0.07328   0.08000   0.08605   0.09139   0.09778
 Alpha virt. eigenvalues --    0.14141   0.14590   0.15127   0.16241   0.17064

 Mulliken charges:
               1
     1  C   -0.606277
     2  C    0.489686
     3  O   -0.537986
     4  O   -0.293309
     5  C   -0.336892
     6  H    0.159163
     7  H    0.182691
     8  H    0.389327
     9  H    0.177397
    10  H    0.177397
    11  H    0.198804
 Sum of Mulliken charges =  -0.00000

 Dipole moment (field-independent basis, Debye):
    X=             -0.3858    Y=              1.6610    Z=              0.0000  Tot=              1.7052
 Quadrupole moment (field-independent basis, Debye-Ang):
   XX=            -21.5168   YY=            -33.5978   ZZ=            -32.6271
   XY=              1.1290   XZ=              0.0000   YZ=             -0.0000

 CCSD(T)/G3Bas1=-267.5735281\MP2/GTBas2=-267.533639\MP4/GTBas2=-267.595
 Normal termination of Gaussian 09 at Fri Aug 26 09:07:16 2022.
