 Gaussian 09, Revision E.01,
 Gaussian 09:  ES64L-G09RevE.01 30-Nov-2015

 -----
 #P G4
 -----

 --------
 Frag_757
 --------
 Symbolic Z-matrix:
 Charge =  0 Multiplicity = 1

 SCF Done:  E(RB3LYP) =  -132.720078890     A.U. after   13 cycles
 SCF Done:  E(RB3LYP) =  -132.724977698     A.U. after   13 cycles
 SCF Done:  E(RB3LYP) =  -132.724987725     A.U. after   12 cycles
 SCF Done:  E(RB3LYP) =  -132.724858811     A.U. after   11 cycles
 SCF Done:  E(RB3LYP) =  -132.725113979     A.U. after    8 cycles
 SCF Done:  E(RB3LYP) =  -132.724920188     A.U. after   11 cycles
 SCF Done:  E(RB3LYP) =  -132.725184306     A.U. after    8 cycles
 SCF Done:  E(RB3LYP) =  -132.725216694     A.U. after    9 cycles
 SCF Done:  E(RB3LYP) =  -132.725213952     A.U. after    8 cycles
 SCF Done:  E(RB3LYP) =  -132.725217359     A.U. after    8 cycles
 Optimization completed.
    -- Stationary point found.
 Normal termination of Gaussian 09 at Sun Aug 21 09:48:48 2022.

 ----------------------------------------------------------
 #P Geom=AllCheck Guess=TCheck SCRF=Check B3LYP/GTBas3 Freq
 ----------------------------------------------------------

 Structure from the checkpoint file:  "G4.Frag_757.chk"
 --------
 Frag_757
 --------
 Charge =  0 Multiplicity = 1

 SCF Done:  E(RB3LYP) =  -132.725217359     A.U. after    1 cycles

  Exact polarizability:  48.458  -0.000  18.772   1.064  -0.000  16.164
 Approx polarizability:  85.621   0.000  25.911  -0.770  -0.000  22.902

                      1                      2                      3
                      A                      A                      A
 Frequencies --    425.9016               492.2314               707.8904
 Red. masses --      2.3573                 3.4741                 1.2768
 Frc consts  --      0.2519                 0.4959                 0.3770
 IR Inten    --      0.0792                19.4711                80.1617

                      4                      5                      6
                      A                      A                      A
 Frequencies --    909.4965               999.0265              1033.4596
 Red. masses --      1.0955                 1.6936                 1.3145
 Frc consts  --      0.5339                 0.9959                 0.8272
 IR Inten    --     50.4928                 0.2065               196.3552

                      7                      8                      9
                      A                      A                      A
 Frequencies --   1169.3669              1439.9772              2144.0694
 Red. masses --      2.9050                 1.3773                 9.4920
 Frc consts  --      2.3405                 1.6826                25.7091
 IR Inten    --     17.2058                 3.7591               323.1733

                     10                     11                     12
                      A                      A                      A
 Frequencies --   3175.8236              3262.2069              3469.4982
 Red. masses --      1.0576                 1.1151                 1.0769
 Frc consts  --      6.2848                 6.9916                 7.6375
 IR Inten    --      7.6348                 0.5103                11.6463

 - Thermochemistry -
 -------------------
 Temperature   298.150 Kelvin.  Pressure   1.00000 Atm.
 Atom     1 has atomic number  6 and mass  12.00000

 Molecular mass:    41.02655 amu.
 Principal axes and moments of inertia in atomic units:
                           1         2         3
     Eigenvalues --     8.88344 185.98089 189.61192
           X            0.99972  -0.00000   0.02381
           Y            0.00000   1.00000   0.00003
           Z           -0.02381  -0.00003   0.99972
 This molecule is an asymmetric top.
 Rotational symmetry number  1.
 Rotational temperatures (Kelvin)      9.75003     0.46571     0.45680
 Rotational constants (GHZ):         203.15783     9.70391     9.51808
 Zero-point vibrational energy     115014.7 (Joules/Mol)
                                   27.48916 (Kcal/Mol)
 Warning -- explicit consideration of   2 degrees of freedom as
           vibrations may cause significant error
 Vibrational temperatures:    612.78   708.21  1018.50  1308.56  1437.37
          (Kelvin)           1486.92  1682.46  2071.80  3084.83  4569.30
                             4693.58  4991.83

 Zero-point correction=                           0.043807 (Hartree/Particle)
 Thermal correction to Energy=                    0.047411
 Thermal correction to Enthalpy=                  0.048355
 Thermal correction to Gibbs Free Energy=         0.020009
 Sum of electronic and zero-point Energies=           -132.681411
 Sum of electronic and thermal Energies=              -132.677807
 Sum of electronic and thermal Enthalpies=            -132.676862
 Sum of electronic and thermal Free Energies=         -132.705208

                     E (Thermal)             CV                S
                      KCal/Mol        Cal/Mol-Kelvin    Cal/Mol-Kelvin
 Total                   29.751             10.989             59.659
 Electronic               0.000              0.000              0.000
 Translational            0.889              2.981             37.062
 Rotational               0.889              2.981             20.377
 Vibrational             27.973              5.028              2.220
 Vibration     1          0.788              1.414              0.872
 Vibration     2          0.848              1.267              0.678

 Optimization completed.
    -- Stationary point found.
 Normal termination of Gaussian 09 at Sun Aug 21 09:48:58 2022.

 -----------------------------------------------------------------
 #P Geom=AllCheck Guess=TCheck SCRF=Check CCSD(T,E4T,FrzG4)/GTBas1
 -----------------------------------------------------------------

 Structure from the checkpoint file:  "G4.Frag_757.chk"
 --------
 Frag_757
 --------
 Charge =  0 Multiplicity = 1

 SCF Done:  E(RHF) =  -131.870487988     A.U. after   12 cycles
 E2 =    -0.4074499735D+00 EUMP2 =    -0.13227793796154D+03
 CCSD(T)
 CCSD(T)= -0.13231797401D+03
 -132.3014456\CCSD=-132.3012061\CCSD(T)=-132.317974\RMSD=6.817e-09\PG=C
 Normal termination of Gaussian 09 at Sun Aug 21 09:49:06 2022.

 ---------------------------------------------------------
 #P Geom=AllCheck Guess=TCheck SCRF=Check MP4=FrzG4/GTBas2
 ---------------------------------------------------------

 Structure from the checkpoint file:  "G4.Frag_757.chk"
 --------
 Frag_757
 --------
 Charge =  0 Multiplicity = 1

 SCF Done:  E(RHF) =  -131.875891452     A.U. after   13 cycles
 E2 =    -0.4117796152D+00 EUMP2 =    -0.13228767106680D+03
 Normal termination of Gaussian 09 at Sun Aug 21 09:49:09 2022.

 ---------------------------------------------------------
 #P Geom=AllCheck Guess=TCheck SCRF=Check MP4=FrzG4/GTBas3
 ---------------------------------------------------------

 Structure from the checkpoint file:  "G4.Frag_757.chk"
 --------
 Frag_757
 --------
 Charge =  0 Multiplicity = 1

 SCF Done:  E(RHF) =  -131.889811014     A.U. after   12 cycles
 E2 =    -0.4876430616D+00 EUMP2 =    -0.13237745407568D+03
 Normal termination of Gaussian 09 at Sun Aug 21 09:49:20 2022.

 -----------------------------------------------------------
 #P Geom=AllCheck Guess=TCheck SCRF=Check MP2=Full/GTLargeXP
 -----------------------------------------------------------

 Structure from the checkpoint file:  "G4.Frag_757.chk"
 --------
 Frag_757
 --------
 Charge =  0 Multiplicity = 1

 SCF Done:  E(RHF) =  -131.923536587     A.U. after   12 cycles
 E2 =    -0.6464597425D+00 EUMP2 =    -0.13256999632970D+03
 Normal termination of Gaussian 09 at Sun Aug 21 09:49:33 2022.
 SCF Done:  E(RHF) =  -131.933719113     A.U. after    9 cycles
 Normal termination of Gaussian 09 at Sun Aug 21 09:49:58 2022.

                         Standard orientation:
 ---------------------------------------------------------------------
 Center     Atomic      Atomic             Coordinates (Angstroms)
 Number     Number       Type             X           Y           Z
 ---------------------------------------------------------------------
      1          6           0       -1.249262    0.000011    0.014695
      2          6           0        0.058068   -0.000083    0.002800
      3          7           0        1.275266    0.000033   -0.127542
      4          1           0       -1.798820   -0.932247    0.025446
      5          1           0       -1.798499    0.932479    0.025502
      6          1           0        1.817628   -0.000037    0.736874
 ---------------------------------------------------------------------

 SCF Done:  E(RHF) =  -131.935728039     A.U. after    7 cycles

 The electronic state is 1-A.
 Alpha  occ. eigenvalues --  -15.58298 -11.32077 -11.23373  -1.24700  -1.02395
 Alpha  occ. eigenvalues --   -0.76510  -0.67204  -0.62255  -0.55608  -0.46814
 Alpha  occ. eigenvalues --   -0.35775
 Alpha virt. eigenvalues --    0.04108   0.04390   0.05886   0.06380   0.07919
 Alpha virt. eigenvalues --    0.08322   0.09054   0.12738   0.13045   0.13582
 Alpha virt. eigenvalues --    0.15724   0.17127   0.17351   0.18635   0.19540

 Mulliken charges:
               1
     1  C   -0.529226
     2  C    0.418374
     3  N   -0.631938
     4  H    0.211879
     5  H    0.211877
     6  H    0.319034
 Sum of Mulliken charges =  -0.00000

 Dipole moment (field-independent basis, Debye):
    X=             -0.6550    Y=             -0.0002    Z=              1.5088  Tot=              1.6448
 Quadrupole moment (field-independent basis, Debye-Ang):
   XX=            -16.5878   YY=            -17.6675   ZZ=            -19.8798
   XY=             -0.0001   XZ=              3.1582   YZ=              0.0001

 Normal termination of Gaussian 09 at Sun Aug 21 10:01:04 2022.
