 Gaussian 09, Revision E.01,
 Gaussian 09:  ES64L-G09RevE.01 30-Nov-2015

 -----
 #P G4
 -----

 ---------
 Frag_1132
 ---------
 Symbolic Z-matrix:
 Charge =  0 Multiplicity = 1

 SCF Done:  E(RB3LYP) =  -375.618441167     A.U. after   15 cycles
 SCF Done:  E(RB3LYP) =  -375.639851088     A.U. after   12 cycles
 SCF Done:  E(RB3LYP) =  -375.641603191     A.U. after   12 cycles
 SCF Done:  E(RB3LYP) =  -375.642104849     A.U. after   11 cycles
 SCF Done:  E(RB3LYP) =  -375.642449021     A.U. after   11 cycles
 SCF Done:  E(RB3LYP) =  -375.642544174     A.U. after   13 cycles
 SCF Done:  E(RB3LYP) =  -375.643793365     A.U. after   12 cycles
 SCF Done:  E(RB3LYP) =  -375.645835024     A.U. after   12 cycles
 SCF Done:  E(RB3LYP) =  -375.646507996     A.U. after   11 cycles
 SCF Done:  E(RB3LYP) =  -375.646854641     A.U. after   12 cycles
 SCF Done:  E(RB3LYP) =  -375.646974592     A.U. after    9 cycles
 SCF Done:  E(RB3LYP) =  -375.646989713     A.U. after    9 cycles
 SCF Done:  E(RB3LYP) =  -375.646990836     A.U. after    8 cycles
 Optimization completed.
    -- Stationary point found.
 Normal termination of Gaussian 09 at Sun Aug 21 20:08:24 2022.

 ----------------------------------------------------------
 #P Geom=AllCheck Guess=TCheck SCRF=Check B3LYP/GTBas3 Freq
 ----------------------------------------------------------

 Structure from the checkpoint file:  "G4.Frag_1132.chk"
 ---------
 Frag_1132
 ---------
 Charge =  0 Multiplicity = 1

 SCF Done:  E(RB3LYP) =  -375.646990836     A.U. after    1 cycles

  Exact polarizability:  40.579  -0.326  45.986  -1.709   1.210  25.043
 Approx polarizability:  57.020  -4.110  72.447  -3.314   1.812  38.218

                      1                      2                      3
                      A                      A                      A
 Frequencies --    127.6861               235.9076               320.9574
 Red. masses --      5.5559                 1.4370                 1.9197
 Frc consts  --      0.0534                 0.0471                 0.1165
 IR Inten    --      2.3712                24.1405                16.3080

                      4                      5                      6
                      A                      A                      A
 Frequencies --    324.2319               407.5861               479.1187
 Red. masses --      5.0529                 1.2205                 6.2410
 Frc consts  --      0.3130                 0.1195                 0.8441
 IR Inten    --     39.9466                59.4719                16.1988

                      7                      8                      9
                      A                      A                      A
 Frequencies --    569.4011               605.9346               682.9988
 Red. masses --      6.8003                 6.4079                 1.1227
 Frc consts  --      1.2990                 1.3862                 0.3086
 IR Inten    --      6.7998                 3.3598               101.8861

                     10                     11                     12
                      A                      A                      A
 Frequencies --    775.3690               797.0574               817.7210
 Red. masses --     10.4981                 7.8090                 1.9750
 Frc consts  --      3.7186                 2.9230                 0.7781
 IR Inten    --     46.2332                30.3658               130.2183

                     13                     14                     15
                      A                      A                      A
 Frequencies --   1067.0600              1194.8001              1235.2673
 Red. masses --      7.3026                 2.6889                 2.5179
 Frc consts  --      4.8990                 2.2616                 2.2636
 IR Inten    --     33.4779                26.1867                35.0444

                     16                     17                     18
                      A                      A                      A
 Frequencies --   1348.6238              1382.4504              1414.7563
 Red. masses --      1.1522                 1.1865                 2.0920
 Frc consts  --      1.2347                 1.3361                 2.4670
 IR Inten    --      5.3716               109.7426               445.4561

                     19                     20                     21
                      A                      A                      A
 Frequencies --   1701.3115              1875.0029              3466.8739
 Red. masses --      1.0767                 9.6126                 1.0502
 Frc consts  --      1.8361                19.9112                 7.4371
 IR Inten    --     23.0732               296.9438                 7.2544

                     22                     23                     24
                      A                      A                      A
 Frequencies --   3564.6808              3679.4839              3786.6124
 Red. masses --      1.0922                 1.0634                 1.0682
 Frc consts  --      8.1771                 8.4822                 9.0243
 IR Inten    --     10.1026               116.3698                55.2344

 - Thermochemistry -
 -------------------
 Temperature   298.150 Kelvin.  Pressure   1.00000 Atm.
 Atom     1 has atomic number  7 and mass  14.00307

 Molecular mass:    92.02219 amu.
 Principal axes and moments of inertia in atomic units:
                           1         2         3
     Eigenvalues --   342.37103 463.68496 780.67783
           X            0.99597   0.08919  -0.00936
           Y           -0.08909   0.99597   0.01041
           Z            0.01025  -0.00953   0.99990
 This molecule is an asymmetric top.
 Rotational symmetry number  1.
 Rotational temperatures (Kelvin)      0.25298     0.18679     0.11095
 Rotational constants (GHZ):           5.27130     3.89217     2.31176
 Zero-point vibrational energy     190570.5 (Joules/Mol)
                                   45.54743 (Kcal/Mol)
 Warning -- explicit consideration of   8 degrees of freedom as
           vibrations may cause significant error
 Vibrational temperatures:    183.71   339.42   461.79   466.50   586.42
          (Kelvin)            689.34   819.24   871.80   982.68  1115.58
                             1146.79  1176.52  1535.26  1719.05  1777.27
                             1940.37  1989.04  2035.52  2447.80  2697.71
                             4988.05  5128.77  5293.95  5448.08

 Zero-point correction=                           0.072584 (Hartree/Particle)
 Thermal correction to Energy=                    0.078714
 Thermal correction to Enthalpy=                  0.079658
 Thermal correction to Gibbs Free Energy=         0.043090
 Sum of electronic and zero-point Energies=           -375.574406
 Sum of electronic and thermal Energies=              -375.568277
 Sum of electronic and thermal Enthalpies=            -375.567333
 Sum of electronic and thermal Free Energies=         -375.603901

                     E (Thermal)             CV                S
                      KCal/Mol        Cal/Mol-Kelvin    Cal/Mol-Kelvin
 Total                   49.394             21.727             76.963
 Electronic               0.000              0.000              0.000
 Translational            0.889              2.981             39.470
 Rotational               0.889              2.981             26.319
 Vibrational             47.616             15.766             11.174
 Vibration     1          0.611              1.926              2.981
 Vibration     2          0.655              1.786              1.834
 Vibration     3          0.706              1.633              1.305
 Vibration     4          0.709              1.627              1.289
 Vibration     5          0.772              1.454              0.935
 Vibration     6          0.836              1.296              0.712
 Vibration     7          0.925              1.097              0.505
 Vibration     8          0.965              1.019              0.440

 Optimization completed.
    -- Stationary point found.
 Normal termination of Gaussian 09 at Sun Aug 21 20:10:06 2022.

 -----------------------------------------------------------------
 #P Geom=AllCheck Guess=TCheck SCRF=Check CCSD(T,E4T,FrzG4)/GTBas1
 -----------------------------------------------------------------

 Structure from the checkpoint file:  "G4.Frag_1132.chk"
 ---------
 Frag_1132
 ---------
 Charge =  0 Multiplicity = 1

 SCF Done:  E(RHF) =  -373.593949267     A.U. after   13 cycles
 E2 =    -0.9870013718D+00 EUMP2 =    -0.37458095063885D+03
 CCSD(T)
 CCSD(T)= -0.37463503086D+03
 Normal termination of Gaussian 09 at Sun Aug 21 20:14:29 2022.

 ---------------------------------------------------------
 #P Geom=AllCheck Guess=TCheck SCRF=Check MP4=FrzG4/GTBas2
 ---------------------------------------------------------

 Structure from the checkpoint file:  "G4.Frag_1132.chk"
 ---------
 Frag_1132
 ---------
 Charge =  0 Multiplicity = 1

 SCF Done:  E(RHF) =  -373.606383234     A.U. after   12 cycles
 E2 =    -0.1004342891D+01 EUMP2 =    -0.37461072612567D+03
 Normal termination of Gaussian 09 at Sun Aug 21 20:18:46 2022.

 ---------------------------------------------------------
 #P Geom=AllCheck Guess=TCheck SCRF=Check MP4=FrzG4/GTBas3
 ---------------------------------------------------------

 Structure from the checkpoint file:  "G4.Frag_1132.chk"
 ---------
 Frag_1132
 ---------
 Charge =  0 Multiplicity = 1

 SCF Done:  E(RHF) =  -373.643780843     A.U. after   12 cycles
 E2 =    -0.1204323107D+01 EUMP2 =    -0.37484810394989D+03
 Normal termination of Gaussian 09 at Sun Aug 21 21:52:12 2022.

 -----------------------------------------------------------
 #P Geom=AllCheck Guess=TCheck SCRF=Check MP2=Full/GTLargeXP
 -----------------------------------------------------------

 Structure from the checkpoint file:  "G4.Frag_1132.chk"
 ---------
 Frag_1132
 ---------
 Charge =  0 Multiplicity = 1

 SCF Done:  E(RHF) =  -373.751405232     A.U. after   12 cycles
 E2 =    -0.1563008902D+01 EUMP2 =    -0.37531441413340D+03
 Normal termination of Gaussian 09 at Sun Aug 21 21:56:04 2022.
 SCF Done:  E(RHF) =  -373.782097271     A.U. after    9 cycles
 Normal termination of Gaussian 09 at Sun Aug 21 21:59:57 2022.

                         Standard orientation:
 ---------------------------------------------------------------------
 Center     Atomic      Atomic             Coordinates (Angstroms)
 Number     Number       Type             X           Y           Z
 ---------------------------------------------------------------------
      1          7           0       -1.483405   -0.977086   -0.117526
      2          7           0       -0.614769    0.025533    0.307855
      3          8           0       -1.015719    1.311090   -0.195200
      4          6           0        0.766794   -0.187979    0.051607
      5          8           0        1.221856   -1.296183   -0.037915
      6          8           0        1.486545    0.933633   -0.014629
      7          1           0       -1.016883   -1.562546   -0.808742
      8          1           0       -1.702517   -1.558658    0.684091
      9          1           0       -1.590381    1.649182    0.502813
     10          1           0        0.854774    1.672452   -0.038149
 ---------------------------------------------------------------------

 SCF Done:  E(RHF) =  -373.788657356     A.U. after    8 cycles

 The electronic state is 1-A.
 Alpha  occ. eigenvalues --  -20.63783 -20.61981 -20.55041 -15.68837 -15.60681
 Alpha  occ. eigenvalues --  -11.42272  -1.50394  -1.44098  -1.38529  -1.27237
 Alpha  occ. eigenvalues --   -1.05915  -0.84014  -0.80432  -0.76222  -0.72249
 Alpha  occ. eigenvalues --   -0.67229  -0.64797  -0.63778  -0.61356  -0.56804
 Alpha  occ. eigenvalues --   -0.50471  -0.48154  -0.47113  -0.43192
 Alpha virt. eigenvalues --    0.03582   0.04832   0.05393   0.05996   0.07812
 Alpha virt. eigenvalues --    0.08739   0.08926   0.09482   0.10894   0.13295
 Alpha virt. eigenvalues --    0.14235   0.15255   0.15408   0.15904   0.16619

 Mulliken charges:
               1
     1  N   -0.581409
     2  N   -0.016582
     3  O   -0.482396
     4  C    0.698732
     5  O   -0.573811
     6  O   -0.518109
     7  H    0.320778
     8  H    0.325799
     9  H    0.408421
    10  H    0.418579
 Sum of Mulliken charges =   0.00000

 Dipole moment (field-independent basis, Debye):
    X=             -3.0478    Y=              1.8256    Z=              1.2857  Tot=              3.7783
 Quadrupole moment (field-independent basis, Debye-Ang):
   XX=            -39.5832   YY=            -30.2704   ZZ=            -33.3047
   XY=              2.8191   XZ=             -3.1488   YZ=              1.9060

 Normal termination of Gaussian 09 at Sun Aug 21 23:49:06 2022.
