 Gaussian 09, Revision E.01,
 Gaussian 09:  ES64L-G09RevE.01 30-Nov-2015

 -----
 #P G4
 -----

 --------
 Frag_823
 --------
 Symbolic Z-matrix:
 Charge =  0 Multiplicity = 1

 SCF Done:  E(RB3LYP) =  -190.495167061     A.U. after   12 cycles
 SCF Done:  E(RB3LYP) =  -190.500494008     A.U. after   11 cycles
 SCF Done:  E(RB3LYP) =  -190.500983804     A.U. after   10 cycles
 SCF Done:  E(RB3LYP) =  -190.501120636     A.U. after   10 cycles
 SCF Done:  E(RB3LYP) =  -190.501153518     A.U. after    9 cycles
 SCF Done:  E(RB3LYP) =  -190.501242772     A.U. after   10 cycles
 SCF Done:  E(RB3LYP) =  -190.501735920     A.U. after   13 cycles
 SCF Done:  E(RB3LYP) =  -190.502800800     A.U. after   11 cycles
 SCF Done:  E(RB3LYP) =  -190.503927104     A.U. after   10 cycles
 SCF Done:  E(RB3LYP) =  -190.504689585     A.U. after   10 cycles
 SCF Done:  E(RB3LYP) =  -190.505465896     A.U. after   10 cycles
 SCF Done:  E(RB3LYP) =  -190.505479215     A.U. after    9 cycles
 SCF Done:  E(RB3LYP) =  -190.505480693     A.U. after    7 cycles
 Optimization completed.
    -- Stationary point found.
 Normal termination of Gaussian 09 at Mon Aug 22 03:27:06 2022.

 ----------------------------------------------------------
 #P Geom=AllCheck Guess=TCheck SCRF=Check B3LYP/GTBas3 Freq
 ----------------------------------------------------------

 Structure from the checkpoint file:  "G4.Frag_823.chk"
 --------
 Frag_823
 --------
 Charge =  0 Multiplicity = 1

 SCF Done:  E(RB3LYP) =  -190.505480693     A.U. after    1 cycles

  Exact polarizability:  44.765  -1.785  37.531   0.211   0.177  35.044
 Approx polarizability:  54.250  -3.249  51.407   0.064  -0.369  50.284

                      1                      2                      3
                      A                      A                      A
 Frequencies --    157.0737               230.6220               267.0531
 Red. masses --      1.9958                 1.1881                 1.1251
 Frc consts  --      0.0290                 0.0372                 0.0473
 IR Inten    --      5.0531                 3.4693                35.1999

                      4                      5                      6
                      A                      A                      A
 Frequencies --    363.2641               499.5692               772.9285
 Red. masses --      2.2177                 2.2988                 1.7878
 Frc consts  --      0.1724                 0.3380                 0.6293
 IR Inten    --      2.2476                14.4501                29.5904

                      7                      8                      9
                      A                      A                      A
 Frequencies --    819.4536               880.5079               961.0469
 Red. masses --      1.1834                 1.9794                 1.6907
 Frc consts  --      0.4682                 0.9042                 0.9200
 IR Inten    --      6.9928                21.5504                84.5866

                     10                     11                     12
                      A                      A                      A
 Frequencies --   1031.3516              1127.5397              1173.3738
 Red. masses --      1.5946                 1.7381                 1.8522
 Frc consts  --      0.9993                 1.3019                 1.5025
 IR Inten    --      9.7673                19.3777                 5.0111

                     13                     14                     15
                      A                      A                      A
 Frequencies --   1179.6458              1293.1880              1338.3305
 Red. masses --      2.1383                 1.1944                 1.2177
 Frc consts  --      1.7531                 1.1769                 1.2850
 IR Inten    --      5.8862                 5.2052                 3.3583

                     16                     17                     18
                      A                      A                      A
 Frequencies --   1390.7809              1405.8741              1482.2552
 Red. masses --      1.2543                 1.3411                 1.0463
 Frc consts  --      1.4295                 1.5618                 1.3544
 IR Inten    --      1.7917                16.4307                 2.7793

                     19                     20                     21
                      A                      A                      A
 Frequencies --   1489.2879              1502.3547              1514.0537
 Red. masses --      1.0599                 1.1966                 1.0699
 Frc consts  --      1.3851                 1.5913                 1.4450
 IR Inten    --      2.9805                 4.4921                 1.7409

                     22                     23                     24
                      A                      A                      A
 Frequencies --   1669.4619              2934.7020              3042.0845
 Red. masses --      1.0856                 1.0719                 1.0424
 Frc consts  --      1.7826                 5.4393                 5.6837
 IR Inten    --      8.2378                80.6957                24.5100

                     25                     26                     27
                      A                      A                      A
 Frequencies --   3047.9647              3111.3372              3131.2635
 Red. masses --      1.0804                 1.1016                 1.1008
 Frc consts  --      5.9136                 6.2832                 6.3591
 IR Inten    --     30.9128                32.9763                21.8559

                     28                     29                     30
                      A                      A                      A
 Frequencies --   3410.6692              3443.7158              3551.3487
 Red. masses --      1.0565                 1.0730                 1.0867
 Frc consts  --      7.2411                 7.4975                 8.0751
 IR Inten    --     19.5926                 7.9328                 0.4032

 - Thermochemistry -
 -------------------
 Temperature   298.150 Kelvin.  Pressure   1.00000 Atm.
 Atom     1 has atomic number  6 and mass  12.00000

 Molecular mass:    60.06875 amu.
 Principal axes and moments of inertia in atomic units:
                           1         2         3
     Eigenvalues --   117.66955 353.25666 410.44347
           X            0.99990   0.01284   0.00633
           Y           -0.01313   0.99875   0.04829
           Z           -0.00570  -0.04837   0.99881
 This molecule is an asymmetric top.
 Rotational symmetry number  1.
 Rotational temperatures (Kelvin)      0.73608     0.24519     0.21102
 Rotational constants (GHZ):          15.33737     5.10887     4.39705
 Zero-point vibrational energy     288432.2 (Joules/Mol)
                                   68.93696 (Kcal/Mol)
 Warning -- explicit consideration of   5 degrees of freedom as
           vibrations may cause significant error
 Vibrational temperatures:    225.99   331.81   384.23   522.66   718.77
          (Kelvin)           1112.07  1179.01  1266.85  1382.73  1483.88
                             1622.28  1688.22  1697.25  1860.61  1925.56
                             2001.02  2022.74  2132.63  2142.75  2161.55
                             2178.38  2401.98  4222.38  4376.88  4385.34
                             4476.51  4505.18  4907.19  4954.73  5109.59

 Zero-point correction=                           0.109858 (Hartree/Particle)
 Thermal correction to Energy=                    0.115281
 Thermal correction to Enthalpy=                  0.116225
 Thermal correction to Gibbs Free Energy=         0.082281
 Sum of electronic and zero-point Energies=           -190.395623
 Sum of electronic and thermal Energies=              -190.390200
 Sum of electronic and thermal Enthalpies=            -190.389256
 Sum of electronic and thermal Free Energies=         -190.423200

                     E (Thermal)             CV                S
                      KCal/Mol        Cal/Mol-Kelvin    Cal/Mol-Kelvin
 Total                   72.340             18.330             71.442
 Electronic               0.000              0.000              0.000
 Translational            0.889              2.981             38.199
 Rotational               0.889              2.981             24.349
 Vibrational             70.562             12.369              8.895
 Vibration     1          0.621              1.895              2.585
 Vibration     2          0.652              1.794              1.874
 Vibration     3          0.672              1.734              1.615
 Vibration     4          0.737              1.548              1.108
 Vibration     5          0.855              1.251              0.659

 Optimization completed.
    -- Stationary point found.
 Normal termination of Gaussian 09 at Mon Aug 22 03:27:56 2022.

 -----------------------------------------------------------------
 #P Geom=AllCheck Guess=TCheck SCRF=Check CCSD(T,E4T,FrzG4)/GTBas1
 -----------------------------------------------------------------

 Structure from the checkpoint file:  "G4.Frag_823.chk"
 --------
 Frag_823
 --------
 Charge =  0 Multiplicity = 1

 SCF Done:  E(RHF) =  -189.236400634     A.U. after   11 cycles
 E2 =    -0.5907194193D+00 EUMP2 =    -0.18982712005319D+03
 CCSD(T)
 CCSD(T)= -0.18989031558D+03
 D=-189.8738582\CCSD(T)=-189.8903156\RMSD=6.838e-09\PG=C01 [X(C2H8N2)]\
 Normal termination of Gaussian 09 at Mon Aug 22 03:28:35 2022.

 ---------------------------------------------------------
 #P Geom=AllCheck Guess=TCheck SCRF=Check MP4=FrzG4/GTBas2
 ---------------------------------------------------------

 Structure from the checkpoint file:  "G4.Frag_823.chk"
 --------
 Frag_823
 --------
 Charge =  0 Multiplicity = 1

 SCF Done:  E(RHF) =  -189.242945439     A.U. after   12 cycles
 E2 =    -0.6000986325D+00 EUMP2 =    -0.18984304407152D+03
 Normal termination of Gaussian 09 at Mon Aug 22 03:28:56 2022.

 ---------------------------------------------------------
 #P Geom=AllCheck Guess=TCheck SCRF=Check MP4=FrzG4/GTBas3
 ---------------------------------------------------------

 Structure from the checkpoint file:  "G4.Frag_823.chk"
 --------
 Frag_823
 --------
 Charge =  0 Multiplicity = 1

 SCF Done:  E(RHF) =  -189.265623686     A.U. after   11 cycles
 E2 =    -0.7340976650D+00 EUMP2 =    -0.18999972135090D+03
 Normal termination of Gaussian 09 at Mon Aug 22 03:48:16 2022.

 -----------------------------------------------------------
 #P Geom=AllCheck Guess=TCheck SCRF=Check MP2=Full/GTLargeXP
 -----------------------------------------------------------

 Structure from the checkpoint file:  "G4.Frag_823.chk"
 --------
 Frag_823
 --------
 Charge =  0 Multiplicity = 1

 SCF Done:  E(RHF) =  -189.313651314     A.U. after   12 cycles
 E2 =    -0.9586784517D+00 EUMP2 =    -0.19027232976533D+03
 Normal termination of Gaussian 09 at Mon Aug 22 03:49:44 2022.
 SCF Done:  E(RHF) =  -189.328828544     A.U. after    9 cycles
 Normal termination of Gaussian 09 at Mon Aug 22 03:51:56 2022.

                         Standard orientation:
 ---------------------------------------------------------------------
 Center     Atomic      Atomic             Coordinates (Angstroms)
 Number     Number       Type             X           Y           Z
 ---------------------------------------------------------------------
      1          6           0       -1.557577   -0.525260   -0.095207
      2          6           0       -0.617477    0.621741    0.263134
      3          7           0        0.672730    0.491957   -0.415808
      4          7           0        1.431664   -0.578661    0.153560
      5          1           0       -2.513466   -0.421167    0.428009
      6          1           0       -1.747816   -0.542052   -1.172516
      7          1           0       -1.108254   -1.479983    0.187853
      8          1           0       -1.045041    1.578383   -0.061525
      9          1           0       -0.504078    0.677122    1.361304
     10          1           0        1.175297    1.373591   -0.334132
     11          1           0        1.966595   -0.266594    0.965142
     12          1           0        2.096339   -0.891253   -0.545964
 ---------------------------------------------------------------------

 SCF Done:  E(RHF) =  -189.332166614     A.U. after    8 cycles

 The electronic state is 1-A.
 Alpha  occ. eigenvalues --  -15.56803 -15.56642 -11.24349 -11.19940  -1.26698
 Alpha  occ. eigenvalues --   -1.06142  -0.95838  -0.80698  -0.68721  -0.66772
 Alpha  occ. eigenvalues --   -0.61841  -0.57045  -0.51392  -0.50894  -0.48136
 Alpha  occ. eigenvalues --   -0.41131  -0.38334
 Alpha virt. eigenvalues --    0.03991   0.04956   0.05221   0.05759   0.07916
 Alpha virt. eigenvalues --    0.08141   0.08145   0.09051   0.09959   0.12128
 Alpha virt. eigenvalues --    0.12728   0.14197   0.14535   0.14974   0.19720

 Mulliken charges:
               1
     1  C   -0.518525
     2  C   -0.169795
     3  N   -0.342359
     4  N   -0.629666
     5  H    0.153301
     6  H    0.168165
     7  H    0.195152
     8  H    0.152183
     9  H    0.120433
    10  H    0.271944
    11  H    0.277946
    12  H    0.321221
 Sum of Mulliken charges =  -0.00000

 Dipole moment (field-independent basis, Debye):
    X=              1.2182    Y=              1.2818    Z=              0.8217  Tot=              1.9499
 Quadrupole moment (field-independent basis, Debye-Ang):
   XX=            -22.3406   YY=            -26.5826   ZZ=            -27.6914
   XY=              0.2663   XZ=              0.4760   YZ=              1.0640

 Normal termination of Gaussian 09 at Mon Aug 22 04:48:38 2022.
