 Gaussian 09, Revision E.01,
 Gaussian 09:  ES64L-G09RevE.01 30-Nov-2015

 -----
 #P G4
 -----

 --------
 Frag_502
 --------
 Symbolic Z-matrix:
 Charge =  0 Multiplicity = 1

 SCF Done:  E(RB3LYP) =  -269.117827795     A.U. after   12 cycles
 SCF Done:  E(RB3LYP) =  -269.120980090     A.U. after   10 cycles
 SCF Done:  E(RB3LYP) =  -269.121258118     A.U. after   10 cycles
 SCF Done:  E(RB3LYP) =  -269.121310087     A.U. after    9 cycles
 SCF Done:  E(RB3LYP) =  -269.121315173     A.U. after    7 cycles
 SCF Done:  E(RB3LYP) =  -269.121315511     A.U. after    6 cycles
 Optimization completed.
    -- Stationary point found.
 Normal termination of Gaussian 09 at Sun Aug 21 07:03:32 2022.

 ----------------------------------------------------------
 #P Geom=AllCheck Guess=TCheck SCRF=Check B3LYP/GTBas3 Freq
 ----------------------------------------------------------

 Structure from the checkpoint file:  "G4.Frag_502.chk"
 --------
 Frag_502
 --------
 Charge =  0 Multiplicity = 1

 SCF Done:  E(RB3LYP) =  -269.121315511     A.U. after    1 cycles

  Exact polarizability:  68.666   0.059  58.302   0.000  -0.000  56.911
 Approx polarizability:  88.930   0.572  81.373  -0.000  -0.000  80.954

                      1                      2                      3
                      A                      A                      A
 Frequencies --    125.5520               231.0302               235.3710
 Red. masses --      2.4015                 1.0920                 1.0779
 Frc consts  --      0.0223                 0.0343                 0.0352
 IR Inten    --      0.0970                 0.3401                 0.6740

                      4                      5                      6
                      A                      A                      A
 Frequencies --    249.6921               261.8934               281.9371
 Red. masses --      1.0563                 1.1007                 2.1973
 Frc consts  --      0.0388                 0.0445                 0.1029
 IR Inten    --      0.6942                 0.3423                 2.0638

                      7                      8                      9
                      A                      A                      A
 Frequencies --    289.6991               356.1914               437.5126
 Red. masses --      2.2179                 2.1836                 2.1010
 Frc consts  --      0.1097                 0.1632                 0.2370
 IR Inten    --      2.6056                 0.5622                 1.2951

                     10                     11                     12
                      A                      A                      A
 Frequencies --    502.9224               506.0693               735.8030
 Red. masses --      3.0742                 2.8990                 4.0281
 Frc consts  --      0.4581                 0.4374                 1.2849
 IR Inten    --      8.3799                10.9365                11.0834

                     13                     14                     15
                      A                      A                      A
 Frequencies --    911.0927              1020.4303              1037.4537
 Red. masses --      3.3955                 2.4572                 1.6000
 Frc consts  --      1.6607                 1.5075                 1.0146
 IR Inten    --     25.7208                 4.2021                 4.9864

                     16                     17                     18
                      A                      A                      A
 Frequencies --   1044.0710              1111.6814              1121.5288
 Red. masses --      1.5855                 1.2449                 1.2330
 Frc consts  --      1.0183                 0.9065                 0.9138
 IR Inten    --     14.3916                 7.9213                 2.4426

                     19                     20                     21
                      A                      A                      A
 Frequencies --   1171.1345              1187.2856              1235.2585
 Red. masses --      1.4594                 1.5311                 2.3572
 Frc consts  --      1.1793                 1.2716                 2.1191
 IR Inten    --      7.2950                10.3745                 2.3365

                     22                     23                     24
                      A                      A                      A
 Frequencies --   1258.9325              1264.2324              1299.2929
 Red. masses --      2.9844                 2.3443                 2.7947
 Frc consts  --      2.7868                 2.2076                 2.7797
 IR Inten    --      2.4254                 5.9080                 1.6394

                     25                     26                     27
                      A                      A                      A
 Frequencies --   1430.0853              1431.8310              1450.8912
 Red. masses --      1.1569                 1.1492                 1.1816
 Frc consts  --      1.3940                 1.3881                 1.4655
 IR Inten    --      0.0003                 0.0487                 0.8125

                     28                     29                     30
                      A                      A                      A
 Frequencies --   1457.1957              1478.0562              1479.5129
 Red. masses --      1.1250                 1.0623                 1.0482
 Frc consts  --      1.4075                 1.3674                 1.3519
 IR Inten    --      2.9210                12.9981                 2.9956

                     31                     32                     33
                      A                      A                      A
 Frequencies --   1492.4536              1499.3371              1500.5667
 Red. masses --      1.0498                 1.0938                 1.0613
 Frc consts  --      1.3778                 1.4487                 1.4080
 IR Inten    --      0.8093                 9.3134                17.5843

                     34                     35                     36
                      A                      A                      A
 Frequencies --   1507.5899              1514.0945              1517.8830
 Red. masses --      1.0535                 1.0433                 1.0586
 Frc consts  --      1.4107                 1.4091                 1.4370
 IR Inten    --      3.7721                 3.7896                 0.0803

                     37                     38                     39
                      A                      A                      A
 Frequencies --   2929.5312              2930.1372              2945.4409
 Red. masses --      1.0607                 1.0605                 1.0571
 Frc consts  --      5.3634                 5.3645                 5.4035
 IR Inten    --    128.0326                 3.3755                23.9201

                     40                     41                     42
                      A                      A                      A
 Frequencies --   2958.9682              3061.2020              3062.0112
 Red. masses --      1.0586                 1.0730                 1.0739
 Frc consts  --      5.4606                 5.9245                 5.9322
 IR Inten    --    131.6009                33.5173                19.8686

                     43                     44                     45
                      A                      A                      A
 Frequencies --   3068.2681              3068.4437              3111.6056
 Red. masses --      1.0740                 1.0731                 1.1020
 Frc consts  --      5.9573                 5.9530                 6.2864
 IR Inten    --     75.0574                 5.3350                 3.5072

                     46                     47                     48
                      A                      A                      A
 Frequencies --   3112.1240              3128.4145              3128.7944
 Red. masses --      1.1015                 1.1002                 1.0997
 Frc consts  --      6.2859                 6.3438                 6.3429
 IR Inten    --     43.7920                18.0003                21.6931

 - Thermochemistry -
 -------------------
 Temperature   298.150 Kelvin.  Pressure   1.00000 Atm.
 Atom     1 has atomic number  6 and mass  12.00000

 Molecular mass:    88.10005 amu.
 Principal axes and moments of inertia in atomic units:
                           1         2         3
     Eigenvalues --   385.98669 666.59394 695.24586
           X            0.99981  -0.01961   0.00000
           Y            0.01961   0.99981  -0.00000
           Z           -0.00000   0.00000   1.00000
 This molecule is an asymmetric top.
 Rotational symmetry number  1.
 Rotational temperatures (Kelvin)      0.22440     0.12993     0.12458
 Rotational constants (GHZ):           4.67566     2.70741     2.59583
 Zero-point vibrational energy     431496.0 (Joules/Mol)
                                  103.13003 (Kcal/Mol)
 Warning -- explicit consideration of  11 degrees of freedom as
           vibrations may cause significant error
 Vibrational temperatures:    180.64   332.40   338.65   359.25   376.81
          (Kelvin)            405.64   416.81   512.48   629.48   723.59
                              728.12  1058.66  1310.86  1468.17  1492.66
                             1502.18  1599.46  1613.63  1685.00  1708.24
                             1777.26  1811.32  1818.95  1869.39  2057.57
                             2060.08  2087.51  2096.58  2126.59  2128.69
                             2147.31  2157.21  2158.98  2169.08  2178.44
                             2183.89  4214.94  4215.81  4237.83  4257.29
                             4404.38  4405.55  4414.55  4414.80  4476.90
                             4477.65  4501.09  4501.63

 Zero-point correction=                           0.164348 (Hartree/Particle)
 Thermal correction to Energy=                    0.172240
 Thermal correction to Enthalpy=                  0.173184
 Thermal correction to Gibbs Free Energy=         0.133498
 Sum of electronic and zero-point Energies=           -268.956967
 Sum of electronic and thermal Energies=              -268.949075
 Sum of electronic and thermal Enthalpies=            -268.948131
 Sum of electronic and thermal Free Energies=         -268.987817

                     E (Thermal)             CV                S
                      KCal/Mol        Cal/Mol-Kelvin    Cal/Mol-Kelvin
 Total                  108.082             28.687             83.526
 Electronic               0.000              0.000              0.000
 Translational            0.889              2.981             39.340
 Rotational               0.889              2.981             26.684
 Vibrational            106.305             22.725             17.502
 Vibration     1          0.610              1.928              3.013
 Vibration     2          0.653              1.794              1.871
 Vibration     3          0.655              1.787              1.838
 Vibration     4          0.662              1.763              1.733
 Vibration     5          0.669              1.743              1.649
 Vibration     6          0.681              1.707              1.522
 Vibration     7          0.686              1.693              1.476
 Vibration     8          0.732              1.563              1.139
 Vibration     9          0.798              1.388              0.834
 Vibration    10          0.858              1.244              0.651
 Vibration    11          0.861              1.237              0.643

 Optimization completed.
    -- Stationary point found.
 Normal termination of Gaussian 09 at Sun Aug 21 07:07:30 2022.

 -----------------------------------------------------------------
 #P Geom=AllCheck Guess=TCheck SCRF=Check CCSD(T,E4T,FrzG4)/GTBas1
 -----------------------------------------------------------------

 Structure from the checkpoint file:  "G4.Frag_502.chk"
 --------
 Frag_502
 --------
 Charge =  0 Multiplicity = 1

 SCF Done:  E(RHF) =  -267.286614594     A.U. after   12 cycles
 E2 =    -0.8572569850D+00 EUMP2 =    -0.26814387157881D+03
 CCSD(T)
 CCSD(T)= -0.26823918804D+03
 \CCSD(T)=-268.239188\RMSD=2.025e-09\PG=C01 [X(C4H12N2)]\\@
 Normal termination of Gaussian 09 at Sun Aug 21 07:15:39 2022.

 ---------------------------------------------------------
 #P Geom=AllCheck Guess=TCheck SCRF=Check MP4=FrzG4/GTBas2
 ---------------------------------------------------------

 Structure from the checkpoint file:  "G4.Frag_502.chk"
 --------
 Frag_502
 --------
 Charge =  0 Multiplicity = 1

 SCF Done:  E(RHF) =  -267.291901492     A.U. after   11 cycles
 E2 =    -0.8689077544D+00 EUMP2 =    -0.26816080924672D+03
 Normal termination of Gaussian 09 at Sun Aug 21 07:26:34 2022.

 ---------------------------------------------------------
 #P Geom=AllCheck Guess=TCheck SCRF=Check MP4=FrzG4/GTBas3
 ---------------------------------------------------------

 Structure from the checkpoint file:  "G4.Frag_502.chk"
 --------
 Frag_502
 --------
 Charge =  0 Multiplicity = 1

 SCF Done:  E(RHF) =  -267.320325218     A.U. after   10 cycles
 E2 =    -0.1066393214D+01 EUMP2 =    -0.26838671843246D+03
 Normal termination of Gaussian 09 at Sun Aug 21 12:06:18 2022.

 -----------------------------------------------------------
 #P Geom=AllCheck Guess=TCheck SCRF=Check MP2=Full/GTLargeXP
 -----------------------------------------------------------

 Structure from the checkpoint file:  "G4.Frag_502.chk"
 --------
 Frag_502
 --------
 Charge =  0 Multiplicity = 1

 SCF Done:  E(RHF) =  -267.380990551     A.U. after   11 cycles
 E2 =    -0.1394871781D+01 EUMP2 =    -0.26877586233131D+03
 Normal termination of Gaussian 09 at Sun Aug 21 12:16:12 2022.
 SCF Done:  E(RHF) =  -267.401472159     A.U. after    8 cycles
 Normal termination of Gaussian 09 at Sun Aug 21 12:23:58 2022.

                         Standard orientation:
 ---------------------------------------------------------------------
 Center     Atomic      Atomic             Coordinates (Angstroms)
 Number     Number       Type             X           Y           Z
 ---------------------------------------------------------------------
      1          6           0        1.652122   -0.688873   -0.700240
      2          7           0        0.651291    0.292448   -0.321921
      3          6           0        1.014148    1.030633    0.883609
      4          7           0       -0.651291   -0.292448   -0.321921
      5          6           0       -1.652121    0.688872   -0.700241
      6          6           0       -1.014148   -1.030632    0.883609
      7          1           0        1.826316   -1.469940    0.063682
      8          1           0        1.338808   -1.176012   -1.625493
      9          1           0        2.606196   -0.178356   -0.869786
     10          1           0        1.190925    0.392802    1.767611
     11          1           0        1.933914    1.590381    0.687074
     12          1           0        0.230752    1.752715    1.130155
     13          1           0       -1.338807    1.176012   -1.625493
     14          1           0       -1.826316    1.469940    0.063681
     15          1           0       -2.606195    0.178355   -0.869787
     16          1           0       -1.933915   -1.590380    0.687074
     17          1           0       -1.190925   -0.392800    1.767611
     18          1           0       -0.230753   -1.752715    1.130156
 ---------------------------------------------------------------------

 SCF Done:  E(RHF) =  -267.405991026     A.U. after    8 cycles

 The electronic state is 1-A.
 Alpha  occ. eigenvalues --  -15.56643 -15.56595 -11.24064 -11.24064 -11.23550
 Alpha  occ. eigenvalues --  -11.23549  -1.29192  -1.11292  -0.95202  -0.94916
 Alpha  occ. eigenvalues --   -0.88685  -0.77474  -0.66298  -0.64280  -0.64264
 Alpha  occ. eigenvalues --   -0.58654  -0.57925  -0.56277  -0.53821  -0.52895
 Alpha  occ. eigenvalues --   -0.51042  -0.50935  -0.49744  -0.36326  -0.35536
 Alpha virt. eigenvalues --    0.03722   0.03982   0.04222   0.04508   0.06431
 Alpha virt. eigenvalues --    0.06491   0.06709   0.06880   0.07294   0.09354
 Alpha virt. eigenvalues --    0.09852   0.09951   0.10509   0.12799   0.14157

 Mulliken charges:
               1
     1  C   -0.499439
     2  N    0.012075
     3  C   -0.500029
     4  N    0.012076
     5  C   -0.499439
     6  C   -0.500030
     7  H    0.136566
     8  H    0.187975
     9  H    0.166967
    10  H    0.147298
    11  H    0.177725
    12  H    0.170862
    13  H    0.187975
    14  H    0.136566
    15  H    0.166967
    16  H    0.177725
    17  H    0.147298
    18  H    0.170862
 Sum of Mulliken charges =  -0.00000

 Dipole moment (field-independent basis, Debye):
    X=             -0.0000    Y=              0.0000    Z=              1.1291  Tot=              1.1291
 Quadrupole moment (field-independent basis, Debye-Ang):
   XX=            -38.0507   YY=            -40.2343   ZZ=            -41.0389
   XY=             -0.2342   XZ=             -0.0000   YZ=             -0.0000

 Normal termination of Gaussian 09 at Sun Aug 21 16:11:20 2022.
