 Gaussian 09, Revision E.01,
 Gaussian 09:  ES64L-G09RevE.01 30-Nov-2015

 -----
 #P G4
 -----

 --------
 Frag_780
 --------
 Symbolic Z-matrix:
 Charge =  0 Multiplicity = 1

 SCF Done:  E(RB3LYP) =  -248.481767400     A.U. after   13 cycles
 SCF Done:  E(RB3LYP) =  -248.486970933     A.U. after   12 cycles
 SCF Done:  E(RB3LYP) =  -248.488461500     A.U. after   11 cycles
 SCF Done:  E(RB3LYP) =  -248.490191908     A.U. after   12 cycles
 SCF Done:  E(RB3LYP) =  -248.490940212     A.U. after   11 cycles
 SCF Done:  E(RB3LYP) =  -248.491354170     A.U. after   11 cycles
 SCF Done:  E(RB3LYP) =  -248.491495859     A.U. after   11 cycles
 SCF Done:  E(RB3LYP) =  -248.491530836     A.U. after    9 cycles
 SCF Done:  E(RB3LYP) =  -248.491537354     A.U. after    8 cycles
 SCF Done:  E(RB3LYP) =  -248.491538601     A.U. after    7 cycles
 SCF Done:  E(RB3LYP) =  -248.491539258     A.U. after    8 cycles
 SCF Done:  E(RB3LYP) =  -248.491539373     A.U. after    7 cycles
 Optimization completed.
    -- Stationary point found.
 Normal termination of Gaussian 09 at Sun Aug 21 12:06:47 2022.

 ----------------------------------------------------------
 #P Geom=AllCheck Guess=TCheck SCRF=Check B3LYP/GTBas3 Freq
 ----------------------------------------------------------

 Structure from the checkpoint file:  "G4.Frag_780.chk"
 --------
 Frag_780
 --------
 Charge =  0 Multiplicity = 1

 SCF Done:  E(RB3LYP) =  -248.491539373     A.U. after    1 cycles

  Exact polarizability:  53.385   1.918  42.846   4.111   3.808  35.814
 Approx polarizability:  74.287   9.042  61.450   8.146   7.344  54.306

                      1                      2                      3
                      A                      A                      A
 Frequencies --    118.0035               264.4763               288.9117
 Red. masses --      2.4903                 1.1112                 2.7958
 Frc consts  --      0.0204                 0.0458                 0.1375
 IR Inten    --      0.2798                28.7747                 1.2932

                      4                      5                      6
                      A                      A                      A
 Frequencies --    349.3704               403.5425               520.6717
 Red. masses --      1.5961                 1.5367                 2.2131
 Frc consts  --      0.1148                 0.1474                 0.3535
 IR Inten    --     14.5642                61.8050                64.1320

                      7                      8                      9
                      A                      A                      A
 Frequencies --    589.0111               715.1011               850.9574
 Red. masses --      2.3618                 2.0422                 1.8268
 Frc consts  --      0.4828                 0.6153                 0.7794
 IR Inten    --      7.8166                 7.2789                39.6001

                     10                     11                     12
                      A                      A                      A
 Frequencies --    916.8088               973.1668               982.4755
 Red. masses --      1.8063                 1.4083                 1.9684
 Frc consts  --      0.8945                 0.7858                 1.1194
 IR Inten    --     98.0999                34.1819                32.3270

                     13                     14                     15
                      A                      A                      A
 Frequencies --   1046.2680              1052.4471              1153.4944
 Red. masses --      1.0955                 2.1206                 2.0696
 Frc consts  --      0.7065                 1.3839                 1.6224
 IR Inten    --      5.3487                89.3245                20.9941

                     16                     17                     18
                      A                      A                      A
 Frequencies --   1214.2235              1311.5796              1325.1597
 Red. masses --      1.2402                 1.3681                 1.3058
 Frc consts  --      1.0773                 1.3866                 1.3510
 IR Inten    --     30.0380                 3.3284                 1.8072

                     19                     20                     21
                      A                      A                      A
 Frequencies --   1403.8991              1435.6273              1450.4705
 Red. masses --      1.4714                 1.1603                 1.2878
 Frc consts  --      1.7086                 1.4090                 1.5963
 IR Inten    --     28.7271                38.7054                39.2297

                     22                     23                     24
                      A                      A                      A
 Frequencies --   1634.1434              1714.1368              2960.4276
 Red. masses --      1.1070                 4.8218                 1.0823
 Frc consts  --      1.7418                 8.3474                 5.5885
 IR Inten    --     42.6255                 2.0005                70.1308

                     25                     26                     27
                      A                      A                      A
 Frequencies --   3148.4106              3162.9728              3236.7007
 Red. masses --      1.0627                 1.0878                 1.1145
 Frc consts  --      6.2064                 6.4118                 6.8792
 IR Inten    --      9.5956                 8.7113                 8.8317

                     28                     29                     30
                      A                      A                      A
 Frequencies --   3494.8036              3578.8596              3776.1631
 Red. masses --      1.0490                 1.0926                 1.0651
 Frc consts  --      7.5485                 8.2454                 8.9487
 IR Inten    --      0.5126                 1.1712                16.0818

 - Thermochemistry -
 -------------------
 Temperature   298.150 Kelvin.  Pressure   1.00000 Atm.
 Atom     1 has atomic number  6 and mass  12.00000

 Molecular mass:    73.05276 amu.
 Principal axes and moments of inertia in atomic units:
                           1         2         3
     Eigenvalues --   223.57967 436.43557 577.94101
           X            0.99909  -0.04026   0.01376
           Y            0.04020   0.99918   0.00477
           Z           -0.01394  -0.00422   0.99989
 This molecule is an asymmetric top.
 Rotational symmetry number  1.
 Rotational temperatures (Kelvin)      0.38740     0.19846     0.14987
 Rotational constants (GHZ):           8.07203     4.13518     3.12271
 Zero-point vibrational energy     269592.1 (Joules/Mol)
                                   64.43406 (Kcal/Mol)
 Warning -- explicit consideration of   7 degrees of freedom as
           vibrations may cause significant error
 Vibrational temperatures:    169.78   380.52   415.68   502.67   580.61
          (Kelvin)            749.13   847.45  1028.87  1224.34  1319.08
                             1400.17  1413.56  1505.34  1514.23  1659.62
                             1746.99  1887.07  1906.61  2019.90  2065.54
                             2086.90  2351.16  2466.26  4259.39  4529.85
                             4550.81  4656.88  5028.24  5149.17  5433.05

 Zero-point correction=                           0.102682 (Hartree/Particle)
 Thermal correction to Energy=                    0.108604
 Thermal correction to Enthalpy=                  0.109548
 Thermal correction to Gibbs Free Energy=         0.073958
 Sum of electronic and zero-point Energies=           -248.388857
 Sum of electronic and thermal Energies=              -248.382935
 Sum of electronic and thermal Enthalpies=            -248.381991
 Sum of electronic and thermal Free Energies=         -248.417581

                     E (Thermal)             CV                S
                      KCal/Mol        Cal/Mol-Kelvin    Cal/Mol-Kelvin
 Total                   68.150             21.013             74.905
 Electronic               0.000              0.000              0.000
 Translational            0.889              2.981             38.782
 Rotational               0.889              2.981             25.537
 Vibrational             66.373             15.051             10.587
 Vibration     1          0.608              1.934              3.133
 Vibration     2          0.671              1.738              1.632
 Vibration     3          0.685              1.694              1.480
 Vibration     4          0.727              1.577              1.169
 Vibration     5          0.769              1.462              0.950
 Vibration     6          0.876              1.204              0.608
 Vibration     7          0.946              1.055              0.469

 Optimization completed.
    -- Stationary point found.
 Normal termination of Gaussian 09 at Sun Aug 21 12:08:15 2022.

 -----------------------------------------------------------------
 #P Geom=AllCheck Guess=TCheck SCRF=Check CCSD(T,E4T,FrzG4)/GTBas1
 -----------------------------------------------------------------

 Structure from the checkpoint file:  "G4.Frag_780.chk"
 --------
 Frag_780
 --------
 Charge =  0 Multiplicity = 1

 SCF Done:  E(RHF) =  -246.946965899     A.U. after   12 cycles
 E2 =    -0.7253108752D+00 EUMP2 =    -0.24767227677418D+03
 CCSD(T)
 CCSD(T)= -0.24773975628D+03
 \CCSD=-247.7171935\CCSD(T)=-247.7397563\RMSD=6.236e-09\PG=C01 [X(C3H7N
 Normal termination of Gaussian 09 at Sun Aug 21 12:10:11 2022.

 ---------------------------------------------------------
 #P Geom=AllCheck Guess=TCheck SCRF=Check MP4=FrzG4/GTBas2
 ---------------------------------------------------------

 Structure from the checkpoint file:  "G4.Frag_780.chk"
 --------
 Frag_780
 --------
 Charge =  0 Multiplicity = 1

 SCF Done:  E(RHF) =  -246.958142669     A.U. after   12 cycles
 E2 =    -0.7374029317D+00 EUMP2 =    -0.24769554560032D+03
 Normal termination of Gaussian 09 at Sun Aug 21 12:12:13 2022.

 ---------------------------------------------------------
 #P Geom=AllCheck Guess=TCheck SCRF=Check MP4=FrzG4/GTBas3
 ---------------------------------------------------------

 Structure from the checkpoint file:  "G4.Frag_780.chk"
 --------
 Frag_780
 --------
 Charge =  0 Multiplicity = 1

 SCF Done:  E(RHF) =  -246.982773791     A.U. after   11 cycles
 E2 =    -0.8934200165D+00 EUMP2 =    -0.24787619380772D+03
 Normal termination of Gaussian 09 at Sun Aug 21 12:51:07 2022.

 -----------------------------------------------------------
 #P Geom=AllCheck Guess=TCheck SCRF=Check MP2=Full/GTLargeXP
 -----------------------------------------------------------

 Structure from the checkpoint file:  "G4.Frag_780.chk"
 --------
 Frag_780
 --------
 Charge =  0 Multiplicity = 1

 SCF Done:  E(RHF) =  -247.050251033     A.U. after   11 cycles
 E2 =    -0.1172952277D+01 EUMP2 =    -0.24822320330932D+03
 Normal termination of Gaussian 09 at Sun Aug 21 12:53:44 2022.
 SCF Done:  E(RHF) =  -247.070148836     A.U. after    8 cycles
 Normal termination of Gaussian 09 at Sun Aug 21 12:56:46 2022.

                         Standard orientation:
 ---------------------------------------------------------------------
 Center     Atomic      Atomic             Coordinates (Angstroms)
 Number     Number       Type             X           Y           Z
 ---------------------------------------------------------------------
      1          6           0       -1.902190   -0.089654   -0.278918
      2          6           0       -0.910147    0.541936    0.339699
      3          6           0        0.525229    0.073850    0.414370
      4          7           0        0.677010   -1.285024   -0.087936
      5          8           0        1.371688    0.934672   -0.329561
      6          1           0       -2.903372    0.326705   -0.317467
      7          1           0       -1.746291   -1.040621   -0.776893
      8          1           0       -1.081441    1.505241    0.815163
      9          1           0        0.882009    0.201783    1.450031
     10          1           0        1.650503   -1.556610    0.010787
     11          1           0        0.124806   -1.931836    0.467750
     12          1           0        1.083866    0.856330   -1.248232
 ---------------------------------------------------------------------

 SCF Done:  E(RHF) =  -247.074426450     A.U. after    8 cycles

 The electronic state is 1-A.
 Alpha  occ. eigenvalues --  -20.55729 -15.54908 -11.31607 -11.23475 -11.22964
 Alpha  occ. eigenvalues --   -1.37327  -1.17915  -1.04872  -0.89959  -0.76776
 Alpha  occ. eigenvalues --   -0.71125  -0.67466  -0.62256  -0.61430  -0.59409
 Alpha  occ. eigenvalues --   -0.53734  -0.51365  -0.46158  -0.41245  -0.37734
 Alpha virt. eigenvalues --    0.03946   0.04459   0.04984   0.05871   0.06774
 Alpha virt. eigenvalues --    0.07274   0.07642   0.08634   0.08917   0.10676
 Alpha virt. eigenvalues --    0.11568   0.12164   0.13237   0.15083   0.15592

 Mulliken charges:
               1
     1  C   -0.429455
     2  C   -0.223557
     3  C    0.228124
     4  N   -0.726203
     5  O   -0.578200
     6  H    0.195878
     7  H    0.204951
     8  H    0.200078
     9  H    0.153741
    10  H    0.302159
    11  H    0.300738
    12  H    0.371745
 Sum of Mulliken charges =  -0.00000

 Dipole moment (field-independent basis, Debye):
    X=             -0.8722    Y=             -1.1589    Z=              0.6328  Tot=              1.5824
 Quadrupole moment (field-independent basis, Debye-Ang):
   XX=            -31.7274   YY=            -30.8992   ZZ=            -30.2860
   XY=             -3.0666   XZ=              0.7928   YZ=             -1.6270

 Normal termination of Gaussian 09 at Sun Aug 21 14:28:36 2022.
