 Gaussian 09, Revision E.01,
 Gaussian 09:  ES64L-G09RevE.01 30-Nov-2015

 -----
 #P G4
 -----

 --------
 Frag_678
 --------
 Symbolic Z-matrix:
 Charge =  0 Multiplicity = 1

 SCF Done:  E(RB3LYP) =  -346.950160612     A.U. after   14 cycles
 SCF Done:  E(RB3LYP) =  -346.987872470     A.U. after   12 cycles
 SCF Done:  E(RB3LYP) =  -346.994852159     A.U. after   12 cycles
 SCF Done:  E(RB3LYP) =  -346.995530364     A.U. after   11 cycles
 SCF Done:  E(RB3LYP) =  -346.996065766     A.U. after   12 cycles
 SCF Done:  E(RB3LYP) =  -346.993126571     A.U. after   13 cycles
 SCF Done:  E(RB3LYP) =  -346.996588501     A.U. after   11 cycles
 SCF Done:  E(RB3LYP) =  -346.997745981     A.U. after   12 cycles
 SCF Done:  E(RB3LYP) =  -346.998942127     A.U. after   12 cycles
 SCF Done:  E(RB3LYP) =  -346.999458833     A.U. after   11 cycles
 SCF Done:  E(RB3LYP) =  -346.999703029     A.U. after    8 cycles
 SCF Done:  E(RB3LYP) =  -346.999703537     A.U. after    7 cycles
 SCF Done:  E(RB3LYP) =  -346.999703654     A.U. after    7 cycles
 Optimization completed.
    -- Stationary point found.
 Normal termination of Gaussian 09 at Tue Aug 30 10:01:39 2022.

 ----------------------------------------------------------
 #P Geom=AllCheck Guess=TCheck SCRF=Check B3LYP/GTBas3 Freq
 ----------------------------------------------------------

 Structure from the checkpoint file:  "G4.Frag_678.chk"
 --------
 Frag_678
 --------
 Charge =  0 Multiplicity = 1

 SCF Done:  E(RB3LYP) =  -346.999703654     A.U. after    1 cycles

  Exact polarizability:  70.711  -5.511  66.782  -0.575   0.785  48.396
 Approx polarizability:  94.425 -10.954 101.473  -1.965   4.663  71.468

                      1                      2                      3
                      A                      A                      A
 Frequencies --     70.6853               207.8357               233.3995
 Red. masses --      4.3022                 1.0924                 1.2616
 Frc consts  --      0.0127                 0.0278                 0.0405
 IR Inten    --      0.6408                93.8071                 4.2247

                      4                      5                      6
                      A                      A                      A
 Frequencies --    263.4401               272.3161               295.6947
 Red. masses --      1.4837                 2.8688                 1.3170
 Frc consts  --      0.0607                 0.1253                 0.0678
 IR Inten    --      1.6432                 0.7430                 3.6900

                      7                      8                      9
                      A                      A                      A
 Frequencies --    356.2924               381.3811               389.6363
 Red. masses --      2.4060                 2.9978                 3.0420
 Frc consts  --      0.1799                 0.2569                 0.2721
 IR Inten    --      2.1921                 3.5816                 5.2963

                     10                     11                     12
                      A                      A                      A
 Frequencies --    426.6335               496.3245               537.0201
 Red. masses --      1.1341                 2.4743                 3.2416
 Frc consts  --      0.1216                 0.3591                 0.5508
 IR Inten    --     82.8735                 5.5040                23.9296

                     13                     14                     15
                      A                      A                      A
 Frequencies --    671.0809               708.7529               731.4534
 Red. masses --      2.3592                 3.1474                 1.3648
 Frc consts  --      0.6260                 0.9315                 0.4302
 IR Inten    --      3.1922                 1.7550                 0.2049

                     16                     17                     18
                      A                      A                      A
 Frequencies --    828.1590               882.1128               923.6243
 Red. masses --      1.4543                 2.4666                 1.5197
 Frc consts  --      0.5877                 1.1308                 0.7638
 IR Inten    --     49.4274                19.5811                 1.0609

                     19                     20                     21
                      A                      A                      A
 Frequencies --    968.0758               987.7485              1014.0053
 Red. masses --      2.0996                 1.7997                 1.2989
 Frc consts  --      1.1593                 1.0345                 0.7869
 IR Inten    --     12.3586                18.5872                 1.4914

                     22                     23                     24
                      A                      A                      A
 Frequencies --   1138.3247              1162.3348              1194.3298
 Red. masses --      1.5574                 2.0533                 2.7132
 Frc consts  --      1.1890                 1.6344                 2.2802
 IR Inten    --     65.6647               201.9804                45.8851

                     25                     26                     27
                      A                      A                      A
 Frequencies --   1238.6841              1339.9335              1388.2796
 Red. masses --      2.3874                 1.5501                 1.3033
 Frc consts  --      2.1582                 1.6398                 1.4799
 IR Inten    --      8.1756                21.9055                17.8134

                     28                     29                     30
                      A                      A                      A
 Frequencies --   1406.9406              1412.0832              1456.0040
 Red. masses --      1.5605                 1.4770                 1.1892
 Frc consts  --      1.8200                 1.7352                 1.4853
 IR Inten    --     13.8009                 7.9759                11.8283

                     31                     32                     33
                      A                      A                      A
 Frequencies --   1479.7972              1487.8102              1495.2120
 Red. masses --      1.0508                 1.0514                 1.0526
 Frc consts  --      1.3557                 1.3713                 1.3864
 IR Inten    --      1.1798                 0.7666                 0.9978

                     34                     35                     36
                      A                      A                      A
 Frequencies --   1518.1565              1720.0021              3030.6540
 Red. masses --      1.1271                 6.0088                 1.0395
 Frc consts  --      1.5306                10.4735                 5.6253
 IR Inten    --      6.6882               103.0239                14.9204

                     37                     38                     39
                      A                      A                      A
 Frequencies --   3039.1134              3096.9939              3105.6146
 Red. masses --      1.0372                 1.0986                 1.0988
 Frc consts  --      5.6440                 6.2082                 6.2443
 IR Inten    --     21.3677                 5.0413                45.5807

                     40                     41                     42
                      A                      A                      A
 Frequencies --   3130.3334              3146.8592              3156.2919
 Red. masses --      1.1022                 1.0995                 1.0687
 Frc consts  --      6.3633                 6.4150                 6.2726
 IR Inten    --     17.6845                10.2679                 9.3320

                     43                     44                     45
                      A                      A                      A
 Frequencies --   3269.7330              3806.3820              3811.5812
 Red. masses --      1.1068                 1.0660                 1.0655
 Frc consts  --      6.9721                 9.1001                 9.1202
 IR Inten    --      4.7876                10.5235                26.7365

 - Thermochemistry -
 -------------------
 Temperature   298.150 Kelvin.  Pressure   1.00000 Atm.
 Atom     1 has atomic number  6 and mass  12.00000

 Molecular mass:   102.06808 amu.
 Principal axes and moments of inertia in atomic units:
                           1         2         3
     Eigenvalues --   539.81788 755.01714 925.02651
           X            0.99952  -0.02320   0.02030
           Y            0.02405   0.99880  -0.04272
           Z           -0.01928   0.04318   0.99888
 This molecule is an asymmetric top.
 Rotational symmetry number  1.
 Warning -- assumption of classical behavior for rotation
           may cause significant error
 Rotational temperatures (Kelvin)      0.16045     0.11472     0.09363
 Rotational constants (GHZ):           3.34324     2.39033     1.95102
 Zero-point vibrational energy     380873.8 (Joules/Mol)
                                   91.03101 (Kcal/Mol)
 Warning -- explicit consideration of  12 degrees of freedom as
           vibrations may cause significant error
 Vibrational temperatures:    101.70   299.03   335.81   379.03   391.80
          (Kelvin)            425.44   512.62   548.72   560.60   613.83
                              714.10   772.65   965.53  1019.74  1052.40
                             1191.53  1269.16  1328.89  1392.84  1421.15
                             1458.93  1637.79  1672.34  1718.37  1782.19
                             1927.86  1997.42  2024.27  2031.67  2094.86
                             2129.10  2140.62  2151.27  2184.29  2474.70
                             4360.43  4372.60  4455.88  4468.28  4503.85
                             4527.62  4541.19  4704.41  5476.53  5484.01

 Zero-point correction=                           0.145067 (Hartree/Particle)
 Thermal correction to Energy=                    0.153571
 Thermal correction to Enthalpy=                  0.154515
 Thermal correction to Gibbs Free Energy=         0.113091
 Sum of electronic and zero-point Energies=           -346.854636
 Sum of electronic and thermal Energies=              -346.846133
 Sum of electronic and thermal Enthalpies=            -346.845189
 Sum of electronic and thermal Free Energies=         -346.886612

                     E (Thermal)             CV                S
                      KCal/Mol        Cal/Mol-Kelvin    Cal/Mol-Kelvin
 Total                   96.367             32.072             87.184
 Electronic               0.000              0.000              0.000
 Translational            0.889              2.981             39.779
 Rotational               0.889              2.981             27.424
 Vibrational             94.590             26.111             19.981
 Vibration     1          0.598              1.968              4.134
 Vibration     2          0.641              1.829              2.063
 Vibration     3          0.654              1.790              1.853
 Vibration     4          0.670              1.740              1.639
 Vibration     5          0.675              1.724              1.581
 Vibration     6          0.690              1.682              1.441
 Vibration     7          0.732              1.562              1.138
 Vibration     8          0.751              1.510              1.034
 Vibration     9          0.758              1.492              1.002
 Vibration    10          0.788              1.412              0.870
 Vibration    11          0.852              1.258              0.667
 Vibration    12          0.892              1.168              0.572

 Optimization completed.
    -- Stationary point found.
 Normal termination of Gaussian 09 at Tue Aug 30 10:02:30 2022.

 -----------------------------------------------------------------
 #P Geom=AllCheck Guess=TCheck SCRF=Check CCSD(T,E4T,FrzG4)/GTBas1
 -----------------------------------------------------------------

 Structure from the checkpoint file:  "G4.Frag_678.chk"
 --------
 Frag_678
 --------
 Charge =  0 Multiplicity = 1

 SCF Done:  E(RHF) =  -344.845347323     A.U. after   12 cycles
 E2 =    -0.1009089584D+01 EUMP2 =    -0.34585443690787D+03
 CCSD(T)
 CCSD(T)= -0.34594602883D+03
 .9134675\CCSD=-345.9137038\CCSD(T)=-345.9460288\RMSD=5.979e-09\PG=C01
 Normal termination of Gaussian 09 at Tue Aug 30 10:07:04 2022.

 ---------------------------------------------------------
 #P Geom=AllCheck Guess=TCheck SCRF=Check MP4=FrzG4/GTBas2
 ---------------------------------------------------------

 Structure from the checkpoint file:  "G4.Frag_678.chk"
 --------
 Frag_678
 --------
 Charge =  0 Multiplicity = 1

 SCF Done:  E(RHF) =  -344.856580218     A.U. after   12 cycles
 E2 =    -0.1024727543D+01 EUMP2 =    -0.34588130776163D+03
 Normal termination of Gaussian 09 at Tue Aug 30 10:08:28 2022.

 ---------------------------------------------------------
 #P Geom=AllCheck Guess=TCheck SCRF=Check MP4=FrzG4/GTBas3
 ---------------------------------------------------------

 Structure from the checkpoint file:  "G4.Frag_678.chk"
 --------
 Frag_678
 --------
 Charge =  0 Multiplicity = 1

 SCF Done:  E(RHF) =  -344.893888047     A.U. after   11 cycles
 E2 =    -0.1249708868D+01 EUMP2 =    -0.34614359691427D+03
 Normal termination of Gaussian 09 at Tue Aug 30 10:20:06 2022.

 -----------------------------------------------------------
 #P Geom=AllCheck Guess=TCheck SCRF=Check MP2=Full/GTLargeXP
 -----------------------------------------------------------

 Structure from the checkpoint file:  "G4.Frag_678.chk"
 --------
 Frag_678
 --------
 Charge =  0 Multiplicity = 1

 SCF Done:  E(RHF) =  -344.982979727     A.U. after   12 cycles
 E2 =    -0.1640876209D+01 EUMP2 =    -0.34662385593633D+03
 Normal termination of Gaussian 09 at Tue Aug 30 10:24:00 2022.
 SCF Done:  E(RHF) =  -345.010945427     A.U. after    8 cycles
 Normal termination of Gaussian 09 at Tue Aug 30 10:27:40 2022.

                         Standard orientation:
 ---------------------------------------------------------------------
 Center     Atomic      Atomic             Coordinates (Angstroms)
 Number     Number       Type             X           Y           Z
 ---------------------------------------------------------------------
      1          6           0       -1.666802    1.205910    0.117984
      2          6           0       -0.944615    0.091079    0.003811
      3          8           0       -1.490852   -1.156051   -0.073109
      4          6           0        0.575629    0.007593   -0.029302
      5          6           0        1.243456    1.385887    0.029582
      6          6           0        1.063538   -0.881695    1.129445
      7          8           0        0.880118   -0.616234   -1.283958
      8          1           0       -2.751456    1.171755    0.156409
      9          1           0       -1.207029    2.180637    0.169900
     10          1           0       -2.450748   -1.073398   -0.066204
     11          1           0        0.927930    2.001767   -0.815562
     12          1           0        2.330271    1.261555   -0.028001
     13          1           0        1.018178    1.911778    0.961709
     14          1           0        0.808961   -0.441648    2.098569
     15          1           0        0.609014   -1.870961    1.062058
     16          1           0        2.154038   -0.987021    1.085024
     17          1           0        1.819475   -0.828832   -1.276482
 ---------------------------------------------------------------------

 SCF Done:  E(RHF) =  -345.016935044     A.U. after    8 cycles

 The electronic state is 1-A.
 Alpha  occ. eigenvalues --  -20.58039 -20.55181 -11.29879 -11.29815 -11.21915
 Alpha  occ. eigenvalues --  -11.21824 -11.20877  -1.40378  -1.35787  -1.07421
 Alpha  occ. eigenvalues --   -0.99800  -0.94277  -0.86648  -0.75729  -0.68811
 Alpha  occ. eigenvalues --   -0.66626  -0.66422  -0.60119  -0.59443  -0.58170
 Alpha  occ. eigenvalues --   -0.56024  -0.54896  -0.53163  -0.51564  -0.50987
 Alpha  occ. eigenvalues --   -0.47798  -0.44007  -0.34512
 Alpha virt. eigenvalues --    0.03255   0.03998   0.04289   0.05534   0.05884
 Alpha virt. eigenvalues --    0.06680   0.06871   0.07523   0.07817   0.09234
 Alpha virt. eigenvalues --    0.09544   0.09760   0.10604   0.10810   0.11344

 Mulliken charges:
               1
     1  C   -0.561035
     2  C    0.286939
     3  O   -0.576302
     4  C    0.510484
     5  C   -0.643037
     6  C   -0.588421
     7  O   -0.607784
     8  H    0.154778
     9  H    0.182675
    10  H    0.385268
    11  H    0.194765
    12  H    0.170480
    13  H    0.184995
    14  H    0.178859
    15  H    0.204036
    16  H    0.157341
    17  H    0.365958
 Sum of Mulliken charges =  -0.00000

 Dipole moment (field-independent basis, Debye):
    X=              0.4482    Y=              0.7828    Z=              1.3918  Tot=              1.6586
 Quadrupole moment (field-independent basis, Debye-Ang):
   XX=            -33.9416   YY=            -44.8686   ZZ=            -48.1615
   XY=             -0.2290   XZ=             -0.7128   YZ=             -0.6480

 Normal termination of Gaussian 09 at Tue Aug 30 10:40:13 2022.
