 Gaussian 09, Revision E.01,
 Gaussian 09:  ES64L-G09RevE.01 30-Nov-2015

 -----
 #P G4
 -----

 --------
 Frag_994
 --------
 Symbolic Z-matrix:
 Charge =  0 Multiplicity = 1

 SCF Done:  E(RB3LYP) =  -228.621289352     A.U. after   13 cycles
 SCF Done:  E(RB3LYP) =  -228.628360891     A.U. after   12 cycles
 SCF Done:  E(RB3LYP) =  -228.628693979     A.U. after   11 cycles
 SCF Done:  E(RB3LYP) =  -228.629039712     A.U. after   12 cycles
 SCF Done:  E(RB3LYP) =  -228.628591006     A.U. after   15 cycles
 SCF Done:  E(RB3LYP) =  -228.629666561     A.U. after   12 cycles
 SCF Done:  E(RB3LYP) =  -228.630252661     A.U. after   12 cycles
 SCF Done:  E(RB3LYP) =  -228.631519668     A.U. after   14 cycles
 SCF Done:  E(RB3LYP) =  -228.631661015     A.U. after   11 cycles
 SCF Done:  E(RB3LYP) =  -228.631694768     A.U. after   11 cycles
 SCF Done:  E(RB3LYP) =  -228.631702676     A.U. after    9 cycles
 SCF Done:  E(RB3LYP) =  -228.631704832     A.U. after    7 cycles
 SCF Done:  E(RB3LYP) =  -228.631704982     A.U. after    7 cycles
 Optimization completed.
    -- Stationary point found.
 Normal termination of Gaussian 09 at Mon Aug 22 22:54:48 2022.

 ----------------------------------------------------------
 #P Geom=AllCheck Guess=TCheck SCRF=Check B3LYP/GTBas3 Freq
 ----------------------------------------------------------

 Structure from the checkpoint file:  "G4.Frag_994.chk"
 --------
 Frag_994
 --------
 Charge =  0 Multiplicity = 1

 SCF Done:  E(RB3LYP) =  -228.631704982     A.U. after    1 cycles

  Exact polarizability:  58.869  -1.057  42.315   2.159  -0.263  43.257
 Approx polarizability:  82.381  -3.840  57.868   7.825  -0.369  65.998

                      1                      2                      3
                      A                      A                      A
 Frequencies --     94.6204               227.0385               284.7745
 Red. masses --      3.5133                 1.0534                 1.0966
 Frc consts  --      0.0185                 0.0320                 0.0524
 IR Inten    --      6.2016                 0.8540                34.9299

                      4                      5                      6
                      A                      A                      A
 Frequencies --    324.6737               348.2454               371.1462
 Red. masses --      1.8966                 2.5941                 2.3854
 Frc consts  --      0.1178                 0.1854                 0.1936
 IR Inten    --     11.3910                 8.5175                 5.1122

                      7                      8                      9
                      A                      A                      A
 Frequencies --    553.9560               803.3320               840.5593
 Red. masses --      3.3681                 1.4766                 1.9217
 Frc consts  --      0.6090                 0.5614                 0.8000
 IR Inten    --      8.2315                64.7107               100.7675

                     10                     11                     12
                      A                      A                      A
 Frequencies --    901.1262               946.5057              1015.0664
 Red. masses --      1.6294                 1.7211                 1.3723
 Frc consts  --      0.7796                 0.9085                 0.8331
 IR Inten    --     62.4289                21.6011                 3.5437

                     13                     14                     15
                      A                      A                      A
 Frequencies --   1095.6840              1119.2065              1140.3183
 Red. masses --      1.4910                 1.2570                 2.1768
 Frc consts  --      1.0546                 0.9277                 1.6677
 IR Inten    --     14.6649                10.2769                16.7103

                     16                     17                     18
                      A                      A                      A
 Frequencies --   1227.5563              1282.4634              1323.8087
 Red. masses --      1.3922                 1.5121                 1.3238
 Frc consts  --      1.2360                 1.4652                 1.3669
 IR Inten    --     28.9771                19.5202                 4.6065

                     19                     20                     21
                      A                      A                      A
 Frequencies --   1390.3179              1408.4013              1417.3008
 Red. masses --      1.2172                 1.3532                 1.4680
 Frc consts  --      1.3862                 1.5815                 1.7374
 IR Inten    --      3.1676                10.4023                22.0259

                     22                     23                     24
                      A                      A                      A
 Frequencies --   1490.2974              1495.7470              1656.3324
 Red. masses --      1.0467                 1.0520                 1.0936
 Frc consts  --      1.3697                 1.3868                 1.7676
 IR Inten    --      5.2328                 2.0589                23.7031

                     25                     26                     27
                      A                      A                      A
 Frequencies --   1728.1396              2962.5569              3028.3858
 Red. masses --      6.7104                 1.0848                 1.0408
 Frc consts  --     11.8075                 5.6094                 5.6239
 IR Inten    --     62.1699                59.5019                20.0663

                     28                     29                     30
                      A                      A                      A
 Frequencies --   3063.4692              3100.6197              3127.3019
 Red. masses --      1.0838                 1.0950                 1.1028
 Frc consts  --      5.9929                 6.2022                 6.3544
 IR Inten    --     10.9716                31.3418                14.3817

                     31                     32                     33
                      A                      A                      A
 Frequencies --   3435.9643              3471.0768              3555.4996
 Red. masses --      1.0756                 1.0492                 1.0919
 Frc consts  --      7.4814                 7.4477                 8.1330
 IR Inten    --      1.9747                 0.3371                 0.1817

 - Thermochemistry -
 -------------------
 Temperature   298.150 Kelvin.  Pressure   1.00000 Atm.
 Atom     1 has atomic number  6 and mass  12.00000

 Molecular mass:    72.06875 amu.
 Principal axes and moments of inertia in atomic units:
                           1         2         3
     Eigenvalues --   225.72911 489.95609 638.41160
           X            0.99926   0.03731  -0.00945
           Y           -0.03740   0.99926  -0.00883
           Z            0.00911   0.00918   0.99992
 This molecule is an asymmetric top.
 Rotational symmetry number  1.
 Rotational temperatures (Kelvin)      0.38371     0.17678     0.13567
 Rotational constants (GHZ):           7.99516     3.68348     2.82692
 Zero-point vibrational energy     300451.0 (Joules/Mol)
                                   71.80952 (Kcal/Mol)
 Warning -- explicit consideration of   7 degrees of freedom as
           vibrations may cause significant error
 Vibrational temperatures:    136.14   326.66   409.73   467.13   501.05
          (Kelvin)            534.00   797.02  1155.81  1209.38  1296.52
                             1361.81  1460.45  1576.44  1610.29  1640.66
                             1766.18  1845.18  1904.66  2000.35  2026.37
                             2039.18  2144.20  2152.04  2383.09  2486.40
                             4262.45  4357.17  4407.64  4461.09  4499.48
                             4943.58  4994.10  5115.56

 Zero-point correction=                           0.114436 (Hartree/Particle)
 Thermal correction to Energy=                    0.120674
 Thermal correction to Enthalpy=                  0.121618
 Thermal correction to Gibbs Free Energy=         0.085213
 Sum of electronic and zero-point Energies=           -228.517269
 Sum of electronic and thermal Energies=              -228.511031
 Sum of electronic and thermal Enthalpies=            -228.510087
 Sum of electronic and thermal Free Energies=         -228.546492

                     E (Thermal)             CV                S
                      KCal/Mol        Cal/Mol-Kelvin    Cal/Mol-Kelvin
 Total                   75.724             21.633             76.619
 Electronic               0.000              0.000              0.000
 Translational            0.889              2.981             38.742
 Rotational               0.889              2.981             25.760
 Vibrational             73.946             15.671             12.118
 Vibration     1          0.603              1.953              3.562
 Vibration     2          0.651              1.800              1.902
 Vibration     3          0.683              1.702              1.505
 Vibration     4          0.709              1.626              1.286
 Vibration     5          0.726              1.579              1.174
 Vibration     6          0.743              1.531              1.075
 Vibration     7          0.909              1.131              0.536

 Optimization completed.
    -- Stationary point found.
 Normal termination of Gaussian 09 at Mon Aug 22 22:56:27 2022.

 -----------------------------------------------------------------
 #P Geom=AllCheck Guess=TCheck SCRF=Check CCSD(T,E4T,FrzG4)/GTBas1
 -----------------------------------------------------------------

 Structure from the checkpoint file:  "G4.Frag_994.chk"
 --------
 Frag_994
 --------
 Charge =  0 Multiplicity = 1

 SCF Done:  E(RHF) =  -227.127316725     A.U. after   13 cycles
 E2 =    -0.7134317367D+00 EUMP2 =    -0.22784074846132D+03
 CCSD(T)
 CCSD(T)= -0.22791386860D+03
 TQ=-227.9126785\MP4SDQ=-227.8892474\CCSD=-227.8901806\CCSD(T)=-227.913
 Normal termination of Gaussian 09 at Mon Aug 22 22:58:32 2022.

 ---------------------------------------------------------
 #P Geom=AllCheck Guess=TCheck SCRF=Check MP4=FrzG4/GTBas2
 ---------------------------------------------------------

 Structure from the checkpoint file:  "G4.Frag_994.chk"
 --------
 Frag_994
 --------
 Charge =  0 Multiplicity = 1

 SCF Done:  E(RHF) =  -227.136239896     A.U. after   13 cycles
 E2 =    -0.7236601164D+00 EUMP2 =    -0.22785990001266D+03
 Normal termination of Gaussian 09 at Mon Aug 22 23:00:47 2022.

 ---------------------------------------------------------
 #P Geom=AllCheck Guess=TCheck SCRF=Check MP4=FrzG4/GTBas3
 ---------------------------------------------------------

 Structure from the checkpoint file:  "G4.Frag_994.chk"
 --------
 Frag_994
 --------
 Charge =  0 Multiplicity = 1

 SCF Done:  E(RHF) =  -227.160112497     A.U. after   12 cycles
 E2 =    -0.8732470037D+00 EUMP2 =    -0.22803335950062D+03
 Normal termination of Gaussian 09 at Mon Aug 22 23:45:59 2022.

 -----------------------------------------------------------
 #P Geom=AllCheck Guess=TCheck SCRF=Check MP2=Full/GTLargeXP
 -----------------------------------------------------------

 Structure from the checkpoint file:  "G4.Frag_994.chk"
 --------
 Frag_994
 --------
 Charge =  0 Multiplicity = 1

 SCF Done:  E(RHF) =  -227.217495599     A.U. after   12 cycles
 E2 =    -0.1146402159D+01 EUMP2 =    -0.22836389775811D+03
 Normal termination of Gaussian 09 at Mon Aug 22 23:48:57 2022.
 SCF Done:  E(RHF) =  -227.235146997     A.U. after    9 cycles
 Normal termination of Gaussian 09 at Mon Aug 22 23:52:44 2022.

                         Standard orientation:
 ---------------------------------------------------------------------
 Center     Atomic      Atomic             Coordinates (Angstroms)
 Number     Number       Type             X           Y           Z
 ---------------------------------------------------------------------
      1          6           0        1.289777    1.146707    0.031482
      2          6           0        0.377765   -0.026242   -0.332462
      3          7           0        1.059768   -1.292201   -0.014059
      4          6           0       -0.957397    0.077793    0.368276
      5          7           0       -2.055378    0.106019   -0.268430
      6          1           0        0.849090    2.097985   -0.279563
      7          1           0        2.261020    1.026676   -0.455321
      8          1           0        1.457530    1.191850    1.114936
      9          1           0        0.179283   -0.018521   -1.409215
     10          1           0        0.445882   -2.074318   -0.225751
     11          1           0        1.252139   -1.341423    0.984296
     12          1           0       -0.886455    0.087329    1.470051
     13          1           0       -2.850087    0.144146    0.374217
 ---------------------------------------------------------------------

 SCF Done:  E(RHF) =  -227.238895476     A.U. after    7 cycles

 The electronic state is 1-A.
 Alpha  occ. eigenvalues --  -15.55556 -15.55002 -11.28304 -11.26347 -11.22262
 Alpha  occ. eigenvalues --   -1.22365  -1.17902  -1.00624  -0.87995  -0.77616
 Alpha  occ. eigenvalues --   -0.69790  -0.65510  -0.62345  -0.59201  -0.53807
 Alpha  occ. eigenvalues --   -0.52576  -0.49988  -0.45326  -0.42980  -0.39351
 Alpha virt. eigenvalues --    0.03262   0.04254   0.05041   0.05192   0.07090
 Alpha virt. eigenvalues --    0.07441   0.07478   0.08049   0.09171   0.10630
 Alpha virt. eigenvalues --    0.11597   0.12417   0.12924   0.13350   0.13987

 Mulliken charges:
               1
     1  C   -0.538614
     2  C    0.089109
     3  N   -0.691517
     4  C   -0.009150
     5  N   -0.604431
     6  H    0.178128
     7  H    0.191262
     8  H    0.153257
     9  H    0.198118
    10  H    0.297435
    11  H    0.279961
    12  H    0.168785
    13  H    0.287656
 Sum of Mulliken charges =  -0.00000

 Dipole moment (field-independent basis, Debye):
    X=              0.0277    Y=              0.0714    Z=              2.5217  Tot=              2.5228
 Quadrupole moment (field-independent basis, Debye-Ang):
   XX=            -35.6077   YY=            -31.6604   ZZ=            -31.3776
   XY=              2.0701   XZ=             -2.7645   YZ=             -0.9897

 Normal termination of Gaussian 09 at Tue Aug 23 01:20:32 2022.
