 Gaussian 09, Revision E.01,
 Gaussian 09:  ES64L-G09RevE.01 30-Nov-2015

 -----
 #P G4
 -----

 --------
 Frag_433
 --------
 Symbolic Z-matrix:
 Charge =  0 Multiplicity = 1

 SCF Done:  E(RB3LYP) =  -323.710718598     A.U. after   13 cycles
 SCF Done:  E(RB3LYP) =  -323.723209887     A.U. after   12 cycles
 SCF Done:  E(RB3LYP) =  -323.725412258     A.U. after   12 cycles
 SCF Done:  E(RB3LYP) =  -323.726503721     A.U. after   11 cycles
 SCF Done:  E(RB3LYP) =  -323.727070539     A.U. after   11 cycles
 SCF Done:  E(RB3LYP) =  -323.727282558     A.U. after   11 cycles
 SCF Done:  E(RB3LYP) =  -323.727376207     A.U. after   11 cycles
 SCF Done:  E(RB3LYP) =  -323.727429654     A.U. after   10 cycles
 SCF Done:  E(RB3LYP) =  -323.727454791     A.U. after   10 cycles
 SCF Done:  E(RB3LYP) =  -323.727457763     A.U. after    8 cycles
 SCF Done:  E(RB3LYP) =  -323.727461444     A.U. after    8 cycles
 SCF Done:  E(RB3LYP) =  -323.727462167     A.U. after    8 cycles
 SCF Done:  E(RB3LYP) =  -323.727462357     A.U. after    7 cycles
 Optimization completed.
    -- Stationary point found.
 Normal termination of Gaussian 09 at Sun Aug 21 20:36:55 2022.

 ----------------------------------------------------------
 #P Geom=AllCheck Guess=TCheck SCRF=Check B3LYP/GTBas3 Freq
 ----------------------------------------------------------

 Structure from the checkpoint file:  "G4.Frag_433.chk"
 --------
 Frag_433
 --------
 Charge =  0 Multiplicity = 1

 SCF Done:  E(RB3LYP) =  -323.727462357     A.U. after    1 cycles

  Exact polarizability:  51.153  -3.943  59.049   1.152  -0.899  34.241
 Approx polarizability:  69.094  -8.563  92.517   2.340  -1.640  51.985

                      1                      2                      3
                      A                      A                      A
 Frequencies --     63.7874               196.5152               297.7500
 Red. masses --      4.3058                 1.1380                 3.9480
 Frc consts  --      0.0103                 0.0259                 0.2062
 IR Inten    --      0.3659                25.3240                 7.4548

                      4                      5                      6
                      A                      A                      A
 Frequencies --    338.6930               394.3512               448.9526
 Red. masses --      2.1033                 1.5606                 1.1546
 Frc consts  --      0.1422                 0.1430                 0.1371
 IR Inten    --     36.6444                40.5691               101.1372

                      7                      8                      9
                      A                      A                      A
 Frequencies --    467.0281               495.1494               532.4548
 Red. masses --      1.7417                 3.6461                 3.1680
 Frc consts  --      0.2238                 0.5267                 0.5292
 IR Inten    --     18.7576                29.8941                49.3464

                     10                     11                     12
                      A                      A                      A
 Frequencies --    567.7721               673.8478               749.4553
 Red. masses --      1.4410                 3.4786                 1.1175
 Frc consts  --      0.2737                 0.9306                 0.3698
 IR Inten    --    173.0642                 5.7946                 0.9467

                     13                     14                     15
                      A                      A                      A
 Frequencies --    816.5306               858.0693               991.0772
 Red. masses --      1.3697                 3.3712                 1.5973
 Frc consts  --      0.5380                 1.4624                 0.9244
 IR Inten    --     64.2907                 7.6371                 0.3065

                     16                     17                     18
                      A                      A                      A
 Frequencies --   1053.9047              1095.4231              1130.8729
 Red. masses --      4.1751                 4.2509                 1.5435
 Frc consts  --      2.7322                 3.0054                 1.1630
 IR Inten    --    142.4288               187.8547                25.5196

                     19                     20                     21
                      A                      A                      A
 Frequencies --   1248.6223              1277.3285              1365.8087
 Red. masses --      1.2030                 1.3512                 2.4601
 Frc consts  --      1.1050                 1.2989                 2.7038
 IR Inten    --     29.5531                 3.7562                54.1194

                     22                     23                     24
                      A                      A                      A
 Frequencies --   1426.2503              1440.6580              1449.0335
 Red. masses --      1.1785                 1.2509                 1.3046
 Frc consts  --      1.4124                 1.5296                 1.6139
 IR Inten    --     28.4182                31.5462                63.2758

                     25                     26                     27
                      A                      A                      A
 Frequencies --   1625.2021              1702.4522              3051.6862
 Red. masses --      1.1562                 5.9154                 1.0847
 Frc consts  --      1.7992                10.1014                 5.9515
 IR Inten    --     58.0783               111.7137                25.6214

                     28                     29                     30
                      A                      A                      A
 Frequencies --   3164.4863              3260.1537              3577.3276
 Red. masses --      1.0624                 1.1121                 1.0457
 Frc consts  --      6.2682                 6.9639                 7.8843
 IR Inten    --      6.0265                 4.8763                25.7760

                     31                     32                     33
                      A                      A                      A
 Frequencies --   3690.5479              3772.4409              3785.8008
 Red. masses --      1.1002                 1.0654                 1.0655
 Frc consts  --      8.8291                 8.9333                 8.9975
 IR Inten    --     31.2436                22.3148                20.9684

 - Thermochemistry -
 -------------------
 Temperature   298.150 Kelvin.  Pressure   1.00000 Atm.
 Atom     1 has atomic number  6 and mass  12.00000

 Molecular mass:    89.04768 amu.
 Principal axes and moments of inertia in atomic units:
                           1         2         3
     Eigenvalues --   369.83688 515.56815 840.31420
           X            0.99977  -0.02112  -0.00474
           Y            0.02109   0.99976  -0.00609
           Z            0.00486   0.00599   0.99997
 This molecule is an asymmetric top.
 Rotational symmetry number  1.
 Rotational temperatures (Kelvin)      0.23419     0.16800     0.10307
 Rotational constants (GHZ):           4.87983     3.50049     2.14770
 Zero-point vibrational energy     281178.9 (Joules/Mol)
                                   67.20336 (Kcal/Mol)
 Warning -- explicit consideration of  10 degrees of freedom as
           vibrations may cause significant error
 Vibrational temperatures:     91.78   282.74   428.40   487.30   567.38
          (Kelvin)            645.94   671.95   712.41   766.08   816.90
                              969.52  1078.30  1174.80  1234.57  1425.94
                             1516.33  1576.07  1627.07  1796.49  1837.79
                             1965.09  2052.05  2072.78  2084.83  2338.30
                             2449.45  4390.69  4552.98  4690.63  5146.97
                             5309.87  5427.69  5446.92

 Zero-point correction=                           0.107095 (Hartree/Particle)
 Thermal correction to Energy=                    0.114063
 Thermal correction to Enthalpy=                  0.115007
 Thermal correction to Gibbs Free Energy=         0.076632
 Sum of electronic and zero-point Energies=           -323.620367
 Sum of electronic and thermal Energies=              -323.613399
 Sum of electronic and thermal Enthalpies=            -323.612455
 Sum of electronic and thermal Free Energies=         -323.650831

                     E (Thermal)             CV                S
                      KCal/Mol        Cal/Mol-Kelvin    Cal/Mol-Kelvin
 Total                   71.576             25.628             80.769
 Electronic               0.000              0.000              0.000
 Translational            0.889              2.981             39.372
 Rotational               0.889              2.981             26.574
 Vibrational             69.798             19.666             14.822
 Vibration     1          0.597              1.972              4.336
 Vibration     2          0.636              1.845              2.165
 Vibration     3          0.691              1.678              1.430
 Vibration     4          0.719              1.598              1.218
 Vibration     5          0.761              1.482              0.984
 Vibration     6          0.808              1.363              0.799
 Vibration     7          0.824              1.323              0.746
 Vibration     8          0.851              1.261              0.670
 Vibration     9          0.887              1.178              0.582
 Vibration    10          0.924              1.101              0.509

 Optimization completed.
    -- Stationary point found.
 Normal termination of Gaussian 09 at Sun Aug 21 20:38:58 2022.

 -----------------------------------------------------------------
 #P Geom=AllCheck Guess=TCheck SCRF=Check CCSD(T,E4T,FrzG4)/GTBas1
 -----------------------------------------------------------------

 Structure from the checkpoint file:  "G4.Frag_433.chk"
 --------
 Frag_433
 --------
 Charge =  0 Multiplicity = 1

 SCF Done:  E(RHF) =  -321.807315665     A.U. after   12 cycles
 E2 =    -0.9060425069D+00 EUMP2 =    -0.32271335817170D+03
 CCSD(T)
 CCSD(T)= -0.32278348283D+03
 P4SDTQ=-322.7838749\MP4SDQ=-322.7559596\CCSD=-322.7559931\CCSD(T)=-322
 Normal termination of Gaussian 09 at Sun Aug 21 20:44:08 2022.

 ---------------------------------------------------------
 #P Geom=AllCheck Guess=TCheck SCRF=Check MP4=FrzG4/GTBas2
 ---------------------------------------------------------

 Structure from the checkpoint file:  "G4.Frag_433.chk"
 --------
 Frag_433
 --------
 Charge =  0 Multiplicity = 1

 SCF Done:  E(RHF) =  -321.820004125     A.U. after   13 cycles
 E2 =    -0.9220014698D+00 EUMP2 =    -0.32274200559473D+03
 Normal termination of Gaussian 09 at Sun Aug 21 20:49:29 2022.

 ---------------------------------------------------------
 #P Geom=AllCheck Guess=TCheck SCRF=Check MP4=FrzG4/GTBas3
 ---------------------------------------------------------

 Structure from the checkpoint file:  "G4.Frag_433.chk"
 --------
 Frag_433
 --------
 Charge =  0 Multiplicity = 1

 SCF Done:  E(RHF) =  -321.855070545     A.U. after   11 cycles
 E2 =    -0.1115513409D+01 EUMP2 =    -0.32297058395314D+03
 Normal termination of Gaussian 09 at Sun Aug 21 23:04:42 2022.

 -----------------------------------------------------------
 #P Geom=AllCheck Guess=TCheck SCRF=Check MP2=Full/GTLargeXP
 -----------------------------------------------------------

 Structure from the checkpoint file:  "G4.Frag_433.chk"
 --------
 Frag_433
 --------
 Charge =  0 Multiplicity = 1

 SCF Done:  E(RHF) =  -321.945340151     A.U. after   12 cycles
 E2 =    -0.1459661650D+01 EUMP2 =    -0.32340500180146D+03
 Normal termination of Gaussian 09 at Sun Aug 21 23:10:08 2022.
 SCF Done:  E(RHF) =  -321.971398325     A.U. after    9 cycles
 Normal termination of Gaussian 09 at Sun Aug 21 23:15:31 2022.

                         Standard orientation:
 ---------------------------------------------------------------------
 Center     Atomic      Atomic             Coordinates (Angstroms)
 Number     Number       Type             X           Y           Z
 ---------------------------------------------------------------------
      1          6           0       -1.431040    1.229423   -0.028548
      2          6           0       -0.770981    0.066043    0.069946
      3          7           0       -1.335102   -1.187296   -0.112936
      4          6           0        0.728904    0.027323    0.373854
      5          8           0        1.321724   -1.176950   -0.076271
      6          8           0        1.389062    1.163738   -0.104695
      7          1           0       -0.923040    2.168565    0.138355
      8          1           0       -2.495416    1.265663   -0.232898
      9          1           0       -0.779381   -1.956184    0.228452
     10          1           0       -2.323547   -1.269063    0.066798
     11          1           0        0.890933    0.003457    1.457832
     12          1           0        1.228838   -1.210450   -1.036475
     13          1           0        0.899738    1.478039   -0.875298
 ---------------------------------------------------------------------

 SCF Done:  E(RHF) =  -321.977098847     A.U. after    8 cycles

 The electronic state is 1-A.
 Alpha  occ. eigenvalues --  -20.57125 -20.56956 -15.56997 -11.34928 -11.28705
 Alpha  occ. eigenvalues --  -11.21074  -1.41978  -1.34540  -1.22483  -1.02066
 Alpha  occ. eigenvalues --   -0.92224  -0.79613  -0.72776  -0.71453  -0.67480
 Alpha  occ. eigenvalues --   -0.66669  -0.60813  -0.57107  -0.56097  -0.53837
 Alpha  occ. eigenvalues --   -0.50795  -0.48273  -0.46853  -0.32778
 Alpha virt. eigenvalues --    0.03524   0.04483   0.05192   0.05383   0.07025
 Alpha virt. eigenvalues --    0.07485   0.07625   0.08394   0.08712   0.10191
 Alpha virt. eigenvalues --    0.12098   0.12534   0.13301   0.13787   0.14357

 Mulliken charges:
               1
     1  C   -0.545722
     2  C    0.204544
     3  N   -0.728724
     4  C    0.254532
     5  O   -0.561849
     6  O   -0.583731
     7  H    0.213067
     8  H    0.168744
     9  H    0.341122
    10  H    0.312402
    11  H    0.189575
    12  H    0.363120
    13  H    0.372919
 Sum of Mulliken charges =  -0.00000

 Dipole moment (field-independent basis, Debye):
    X=             -2.2621    Y=             -0.7737    Z=             -0.6485  Tot=              2.4772
 Quadrupole moment (field-independent basis, Debye-Ang):
   XX=            -38.9426   YY=            -36.0471   ZZ=            -35.1018
   XY=              1.2642   XZ=             -2.5176   YZ=             -1.3949

 Normal termination of Gaussian 09 at Mon Aug 22 01:42:34 2022.
