 Gaussian 09, Revision E.01,
 Gaussian 09:  ES64L-G09RevE.01 30-Nov-2015

 -----
 #P G4
 -----

 --------
 Frag_696
 --------
 Symbolic Z-matrix:
 Charge =  0 Multiplicity = 1

 SCF Done:  E(RB3LYP) =  -188.074776140     A.U. after   13 cycles
 SCF Done:  E(RB3LYP) =  -188.087385093     A.U. after   12 cycles
 SCF Done:  E(RB3LYP) =  -188.087734186     A.U. after   10 cycles
 SCF Done:  E(RB3LYP) =  -188.087747893     A.U. after    8 cycles
 Optimization completed.
    -- Stationary point found.
 Normal termination of Gaussian 09 at Fri Aug 26 10:58:46 2022.

 ----------------------------------------------------------
 #P Geom=AllCheck Guess=TCheck SCRF=Check B3LYP/GTBas3 Freq
 ----------------------------------------------------------

 Structure from the checkpoint file:  "G4.Frag_696.chk"
 --------
 Frag_696
 --------
 Charge =  0 Multiplicity = 1

 SCF Done:  E(RB3LYP) =  -188.087747893     A.U. after    1 cycles

  Exact polarizability:  44.621  -0.185  39.441  -0.000  -0.000  17.965
 Approx polarizability:  66.683  -0.016  65.029  -0.000   0.000  27.464

                      1                      2                      3
                      A                      A                      A
 Frequencies --    166.1371               306.0272               638.2881
 Red. masses --      1.8304                 4.2139                 1.2700
 Frc consts  --      0.0298                 0.2325                 0.3048
 IR Inten    --     23.9728                 6.5561                 5.6909

                      4                      5                      6
                      A                      A                      A
 Frequencies --    737.7765               903.8288               930.7640
 Red. masses --      3.3031                 3.1770                 1.8634
 Frc consts  --      1.0593                 1.5291                 0.9511
 IR Inten    --     46.3771                 7.0271                47.5397

                      7                      8                      9
                      A                      A                      A
 Frequencies --   1121.0524              1170.7782              1177.8055
 Red. masses --      1.2573                 1.0797                 1.0743
 Frc consts  --      0.9310                 0.8720                 0.8780
 IR Inten    --     14.7290                40.0090                43.4856

                     10                     11                     12
                      A                      A                      A
 Frequencies --   1272.8768              1404.0738              1443.1498
 Red. masses --      1.2298                 1.3564                 1.3426
 Frc consts  --      1.1740                 1.5754                 1.6475
 IR Inten    --    101.5643                40.1514                19.2280

                     13                     14                     15
                      A                      A                      A
 Frequencies --   1678.2956              1734.2130              3032.7255
 Red. masses --      8.7041                 6.4059                 1.0874
 Frc consts  --     14.4449                11.3511                 5.8927
 IR Inten    --     15.0734                 7.3423                50.5301

                     16                     17                     18
                      A                      A                      A
 Frequencies --   3100.1951              3384.4217              3472.3710
 Red. masses --      1.0897                 1.0722                 1.0763
 Frc consts  --      6.1705                 7.2356                 7.6463
 IR Inten    --     44.4823                 1.1084                 1.5174

 - Thermochemistry -
 -------------------
 Temperature   298.150 Kelvin.  Pressure   1.00000 Atm.
 Atom     1 has atomic number  7 and mass  14.00307

 Molecular mass:    56.03745 amu.
 Principal axes and moments of inertia in atomic units:
                           1         2         3
     Eigenvalues --    76.67431 287.29300 363.96731
           X            1.00000   0.00278   0.00000
           Y           -0.00278   1.00000  -0.00000
           Z           -0.00000   0.00000   1.00000
 This molecule is an asymmetric top.
 Rotational symmetry number  1.
 Rotational temperatures (Kelvin)      1.12963     0.30148     0.23797
 Rotational constants (GHZ):          23.53776     6.28188     4.95853
 Zero-point vibrational energy     165531.9 (Joules/Mol)
                                   39.56308 (Kcal/Mol)
 Warning -- explicit consideration of   2 degrees of freedom as
           vibrations may cause significant error
 Vibrational temperatures:    239.03   440.30   918.35  1061.49  1300.41
          (Kelvin)           1339.16  1612.94  1684.49  1694.60  1831.38
                             2020.15  2076.37  2414.69  2495.14  4363.41
                             4460.48  4869.42  4995.96

 Zero-point correction=                           0.063048 (Hartree/Particle)
 Thermal correction to Energy=                    0.067339
 Thermal correction to Enthalpy=                  0.068283
 Thermal correction to Gibbs Free Energy=         0.036645
 Sum of electronic and zero-point Energies=           -188.024700
 Sum of electronic and thermal Energies=              -188.020409
 Sum of electronic and thermal Enthalpies=            -188.019465
 Sum of electronic and thermal Free Energies=         -188.051103

                     E (Thermal)             CV                S
                      KCal/Mol        Cal/Mol-Kelvin    Cal/Mol-Kelvin
 Total                   42.256             13.310             66.588
 Electronic               0.000              0.000              0.000
 Translational            0.889              2.981             37.992
 Rotational               0.889              2.981             23.598
 Vibrational             40.478              7.348              4.998
 Vibration     1          0.624              1.884              2.479
 Vibration     2          0.696              1.662              1.384

 Optimization completed.
    -- Stationary point found.
 Normal termination of Gaussian 09 at Fri Aug 26 10:58:58 2022.

 -----------------------------------------------------------------
 #P Geom=AllCheck Guess=TCheck SCRF=Check CCSD(T,E4T,FrzG4)/GTBas1
 -----------------------------------------------------------------

 Structure from the checkpoint file:  "G4.Frag_696.chk"
 --------
 Frag_696
 --------
 Charge =  0 Multiplicity = 1

 SCF Done:  E(RHF) =  -186.913028031     A.U. after   13 cycles
 E2 =    -0.5716650389D+00 EUMP2 =    -0.18748469306946D+03
 CCSD(T)
 CCSD(T)= -0.18753803857D+03
 .5378537\MP4SDQ=-187.5154252\CCSD=-187.515742\CCSD(T)=-187.5380386\RMS
 Normal termination of Gaussian 09 at Fri Aug 26 10:59:18 2022.

 ---------------------------------------------------------
 #P Geom=AllCheck Guess=TCheck SCRF=Check MP4=FrzG4/GTBas2
 ---------------------------------------------------------

 Structure from the checkpoint file:  "G4.Frag_696.chk"
 --------
 Frag_696
 --------
 Charge =  0 Multiplicity = 1

 SCF Done:  E(RHF) =  -186.919797245     A.U. after   12 cycles
 E2 =    -0.5788545767D+00 EUMP2 =    -0.18749865182125D+03
 Normal termination of Gaussian 09 at Fri Aug 26 10:59:24 2022.

 ---------------------------------------------------------
 #P Geom=AllCheck Guess=TCheck SCRF=Check MP4=FrzG4/GTBas3
 ---------------------------------------------------------

 Structure from the checkpoint file:  "G4.Frag_696.chk"
 --------
 Frag_696
 --------
 Charge =  0 Multiplicity = 1

 SCF Done:  E(RHF) =  -186.936211105     A.U. after   12 cycles
 E2 =    -0.6829338220D+00 EUMP2 =    -0.18761914492705D+03
 Normal termination of Gaussian 09 at Fri Aug 26 10:59:47 2022.

 -----------------------------------------------------------
 #P Geom=AllCheck Guess=TCheck SCRF=Check MP2=Full/GTLargeXP
 -----------------------------------------------------------

 Structure from the checkpoint file:  "G4.Frag_696.chk"
 --------
 Frag_696
 --------
 Charge =  0 Multiplicity = 1

 SCF Done:  E(RHF) =  -186.984044583     A.U. after   12 cycles
 E2 =    -0.8989731465D+00 EUMP2 =    -0.18788301772947D+03
 Normal termination of Gaussian 09 at Fri Aug 26 11:00:02 2022.
 SCF Done:  E(RHF) =  -186.998346830     A.U. after    8 cycles
 Normal termination of Gaussian 09 at Fri Aug 26 11:00:21 2022.

                         Standard orientation:
 ---------------------------------------------------------------------
 Center     Atomic      Atomic             Coordinates (Angstroms)
 Number     Number       Type             X           Y           Z
 ---------------------------------------------------------------------
      1          7           0        1.357480   -0.568419   -0.000005
      2          6           0        0.717241    0.529122    0.000006
      3          6           0       -0.777451    0.524117   -0.000005
      4          7           0       -1.506241   -0.515508    0.000002
      5          1           0        2.366538   -0.413920    0.000003
      6          1           0        1.191551    1.519329    0.000012
      7          1           0       -1.260980    1.505048   -0.000011
      8          1           0       -0.894524   -1.342402    0.000012
 ---------------------------------------------------------------------

 SCF Done:  E(RHF) =  -187.001202047     A.U. after    8 cycles

 The electronic state is 1-A.
 Alpha  occ. eigenvalues --  -15.58077 -15.56660 -11.30638 -11.28921  -1.25238
 Alpha  occ. eigenvalues --   -1.19603  -0.92600  -0.78091  -0.71512  -0.65919
 Alpha  occ. eigenvalues --   -0.59565  -0.51296  -0.46662  -0.43405  -0.41742
 Alpha virt. eigenvalues --    0.03184   0.04498   0.05018   0.05617   0.06665
 Alpha virt. eigenvalues --    0.07256   0.08196   0.08678   0.11105   0.12419
 Alpha virt. eigenvalues --    0.13160   0.13383   0.14904   0.14994   0.15895

 Mulliken charges:
               1
     1  N   -0.568448
     2  C    0.042274
     3  C    0.067428
     4  N   -0.546749
     5  H    0.303346
     6  H    0.185953
     7  H    0.203166
     8  H    0.313031
 Sum of Mulliken charges =  -0.00000

 Dipole moment (field-independent basis, Debye):
    X=              2.6531    Y=              2.4200    Z=              0.0000  Tot=              3.5910
 Quadrupole moment (field-independent basis, Debye-Ang):
   XX=            -25.9480   YY=            -22.2260   ZZ=            -25.6108
   XY=              0.1520   XZ=              0.0000   YZ=             -0.0000

 Normal termination of Gaussian 09 at Fri Aug 26 11:02:17 2022.
