 Gaussian 09, Revision E.01,
 Gaussian 09:  ES64L-G09RevE.01 30-Nov-2015

 -----
 #P G4
 -----

 --------
 Frag_842
 --------
 Symbolic Z-matrix:
 Charge =  0 Multiplicity = 1

 SCF Done:  E(RB3LYP) =  -344.821211524     A.U. after   12 cycles
 SCF Done:  E(RB3LYP) =  -344.827974894     A.U. after   11 cycles
 SCF Done:  E(RB3LYP) =  -344.830046559     A.U. after   11 cycles
 SCF Done:  E(RB3LYP) =  -344.831238514     A.U. after   11 cycles
 SCF Done:  E(RB3LYP) =  -344.831196435     A.U. after   11 cycles
 SCF Done:  E(RB3LYP) =  -344.831462981     A.U. after   10 cycles
 SCF Done:  E(RB3LYP) =  -344.831532186     A.U. after   10 cycles
 SCF Done:  E(RB3LYP) =  -344.831556635     A.U. after    9 cycles
 SCF Done:  E(RB3LYP) =  -344.831564476     A.U. after    8 cycles
 SCF Done:  E(RB3LYP) =  -344.831566230     A.U. after    7 cycles
 SCF Done:  E(RB3LYP) =  -344.831566693     A.U. after    7 cycles
 Optimization completed.
    -- Stationary point found.
 Normal termination of Gaussian 09 at Fri Aug 26 13:22:22 2022.

 ----------------------------------------------------------
 #P Geom=AllCheck Guess=TCheck SCRF=Check B3LYP/GTBas3 Freq
 ----------------------------------------------------------

 Structure from the checkpoint file:  "G4.Frag_842.chk"
 --------
 Frag_842
 --------
 Charge =  0 Multiplicity = 1

 SCF Done:  E(RB3LYP) =  -344.831566693     A.U. after    1 cycles

  Exact polarizability:  48.477   0.790  45.386  -0.374   0.178  42.216
 Approx polarizability:  63.283   0.418  62.855  -0.223   0.713  62.840

                      1                      2                      3
                      A                      A                      A
 Frequencies --    146.9479               212.4590               239.6293
 Red. masses --      3.2998                 1.0476                 3.4870
 Frc consts  --      0.0420                 0.0279                 0.1180
 IR Inten    --     10.2728                 0.1269                 0.8761

                      4                      5                      6
                      A                      A                      A
 Frequencies --    294.4215               355.2376               380.3383
 Red. masses --      1.2156                 2.6987                 2.8132
 Frc consts  --      0.0621                 0.2006                 0.2398
 IR Inten    --     61.2869                 7.7781                28.6622

                      7                      8                      9
                      A                      A                      A
 Frequencies --    424.8525               491.3577               517.7653
 Red. masses --      2.2877                 1.3670                 2.1067
 Frc consts  --      0.2433                 0.1944                 0.3327
 IR Inten    --      5.5683                57.6987                46.2150

                     10                     11                     12
                      A                      A                      A
 Frequencies --    595.9326               644.1711               801.6123
 Red. masses --      2.7005                 1.3987                 4.2387
 Frc consts  --      0.5650                 0.3420                 1.6047
 IR Inten    --     19.1879               129.3240                20.2094

                     13                     14                     15
                      A                      A                      A
 Frequencies --    904.4713               926.5116               986.1236
 Red. masses --      2.4989                 2.0970                 1.4261
 Frc consts  --      1.2045                 1.0606                 0.8171
 IR Inten    --     71.2127                 5.5588                24.5716

                     16                     17                     18
                      A                      A                      A
 Frequencies --   1072.2357              1099.2600              1123.7359
 Red. masses --      3.9296                 1.7508                 1.6612
 Frc consts  --      2.6618                 1.2465                 1.2360
 IR Inten    --     96.3910                21.9854                85.0965

                     19                     20                     21
                      A                      A                      A
 Frequencies --   1169.4172              1246.0834              1353.0926
 Red. masses --      2.0202                 1.5911                 1.4266
 Frc consts  --      1.6277                 1.4556                 1.5389
 IR Inten    --     76.2513                53.9287                 5.5997

                     22                     23                     24
                      A                      A                      A
 Frequencies --   1362.1287              1400.6937              1423.9923
 Red. masses --      1.3758                 1.2843                 1.2947
 Frc consts  --      1.5040                 1.4846                 1.5468
 IR Inten    --     47.1829                19.5600                82.3915

                     25                     26                     27
                      A                      A                      A
 Frequencies --   1449.9937              1485.0887              1492.0556
 Red. masses --      1.5497                 1.0681                 1.1005
 Frc consts  --      1.9197                 1.3879                 1.4434
 IR Inten    --     53.7565                 5.7660                 3.8924

                     28                     29                     30
                      A                      A                      A
 Frequencies --   1497.3688              3018.5348              3047.3621
 Red. masses --      1.1240                 1.0660                 1.0354
 Frc consts  --      1.4848                 5.7225                 5.6651
 IR Inten    --      6.2112                39.2894                11.4269

                     31                     32                     33
                      A                      A                      A
 Frequencies --   3105.9223              3119.6678              3134.1630
 Red. masses --      1.0986                 1.1011                 1.1027
 Frc consts  --      6.2439                 6.3138                 6.3819
 IR Inten    --     15.5295                21.1916                19.0694

                     34                     35                     36
                      A                      A                      A
 Frequencies --   3720.8311              3772.2754              3808.3241
 Red. masses --      1.0645                 1.0650                 1.0655
 Frc consts  --      8.6827                 8.9287                 9.1051
 IR Inten    --     50.6146                34.5472                29.3710

 - Thermochemistry -
 -------------------
 Temperature   298.150 Kelvin.  Pressure   1.00000 Atm.
 Atom     1 has atomic number  6 and mass  12.00000

 Molecular mass:    92.04734 amu.
 Principal axes and moments of inertia in atomic units:
                           1         2         3
     Eigenvalues --   356.33373 648.65329 653.43016
           X            0.99941   0.03010  -0.01640
           Y           -0.03385   0.94234  -0.33295
           Z            0.00544   0.33331   0.94280
 This molecule is an asymmetric top.
 Rotational symmetry number  1.
 Rotational temperatures (Kelvin)      0.24307     0.13353     0.13255
 Rotational constants (GHZ):           5.06475     2.78229     2.76195
 Zero-point vibrational energy     309976.7 (Joules/Mol)
                                   74.08621 (Kcal/Mol)
 Warning -- explicit consideration of  10 degrees of freedom as
           vibrations may cause significant error
 Vibrational temperatures:    211.42   305.68   344.77   423.61   511.11
          (Kelvin)            547.22   611.27   706.95   744.95   857.41
                              926.82  1153.34  1301.33  1333.04  1418.81
                             1542.71  1581.59  1616.80  1682.53  1792.83
                             1946.80  1959.80  2015.28  2048.80  2086.21
                             2136.71  2146.73  2154.38  4342.99  4384.47
                             4468.72  4488.50  4509.36  5353.44  5427.46
                             5479.32

 Zero-point correction=                           0.118064 (Hartree/Particle)
 Thermal correction to Energy=                    0.125107
 Thermal correction to Enthalpy=                  0.126051
 Thermal correction to Gibbs Free Energy=         0.087980
 Sum of electronic and zero-point Energies=           -344.713503
 Sum of electronic and thermal Energies=              -344.706460
 Sum of electronic and thermal Enthalpies=            -344.705515
 Sum of electronic and thermal Free Energies=         -344.743587

                     E (Thermal)             CV                S
                      KCal/Mol        Cal/Mol-Kelvin    Cal/Mol-Kelvin
 Total                   78.506             26.123             80.128
 Electronic               0.000              0.000              0.000
 Translational            0.889              2.981             39.471
 Rotational               0.889              2.981             26.515
 Vibrational             76.728             20.161             14.142
 Vibration     1          0.617              1.906              2.711
 Vibration     2          0.643              1.822              2.022
 Vibration     3          0.657              1.780              1.806
 Vibration     4          0.689              1.684              1.448
 Vibration     5          0.731              1.565              1.143
 Vibration     6          0.750              1.512              1.038
 Vibration     7          0.787              1.416              0.876
 Vibration     8          0.847              1.269              0.680
 Vibration     9          0.873              1.211              0.615
 Vibration    10          0.954              1.040              0.457

 Optimization completed.
    -- Stationary point found.
 Normal termination of Gaussian 09 at Fri Aug 26 13:22:55 2022.

 -----------------------------------------------------------------
 #P Geom=AllCheck Guess=TCheck SCRF=Check CCSD(T,E4T,FrzG4)/GTBas1
 -----------------------------------------------------------------

 Structure from the checkpoint file:  "G4.Frag_842.chk"
 --------
 Frag_842
 --------
 Charge =  0 Multiplicity = 1

 SCF Done:  E(RHF) =  -342.834599247     A.U. after   11 cycles
 E2 =    -0.9333580673D+00 EUMP2 =    -0.34376795731417D+03
 CCSD(T)
 CCSD(T)= -0.34383734499D+03
 =-343.8128099\CCSD=-343.8127402\CCSD(T)=-343.837345\RMSD=9.076e-09\PG=
 Normal termination of Gaussian 09 at Fri Aug 26 13:25:03 2022.

 ---------------------------------------------------------
 #P Geom=AllCheck Guess=TCheck SCRF=Check MP4=FrzG4/GTBas2
 ---------------------------------------------------------

 Structure from the checkpoint file:  "G4.Frag_842.chk"
 --------
 Frag_842
 --------
 Charge =  0 Multiplicity = 1

 SCF Done:  E(RHF) =  -342.846931540     A.U. after   11 cycles
 E2 =    -0.9507317064D+00 EUMP2 =    -0.34379766324598D+03
 Normal termination of Gaussian 09 at Fri Aug 26 13:25:47 2022.

 ---------------------------------------------------------
 #P Geom=AllCheck Guess=TCheck SCRF=Check MP4=FrzG4/GTBas3
 ---------------------------------------------------------

 Structure from the checkpoint file:  "G4.Frag_842.chk"
 --------
 Frag_842
 --------
 Charge =  0 Multiplicity = 1

 SCF Done:  E(RHF) =  -342.883002790     A.U. after   11 cycles
 E2 =    -0.1163335352D+01 EUMP2 =    -0.34404633814183D+03
 Normal termination of Gaussian 09 at Fri Aug 26 13:29:43 2022.

 -----------------------------------------------------------
 #P Geom=AllCheck Guess=TCheck SCRF=Check MP2=Full/GTLargeXP
 -----------------------------------------------------------

 Structure from the checkpoint file:  "G4.Frag_842.chk"
 --------
 Frag_842
 --------
 Charge =  0 Multiplicity = 1

 SCF Done:  E(RHF) =  -342.980055916     A.U. after   11 cycles
 E2 =    -0.1516173726D+01 EUMP2 =    -0.34449622964153D+03
 Normal termination of Gaussian 09 at Fri Aug 26 13:31:44 2022.
 SCF Done:  E(RHF) =  -343.008093128     A.U. after    8 cycles
 Normal termination of Gaussian 09 at Fri Aug 26 13:33:32 2022.

                         Standard orientation:
 ---------------------------------------------------------------------
 Center     Atomic      Atomic             Coordinates (Angstroms)
 Number     Number       Type             X           Y           Z
 ---------------------------------------------------------------------
      1          6           0        1.736411    0.723674   -0.093475
      2          6           0        0.410513   -0.014496    0.012680
      3          8           0        0.278710   -0.996190   -1.019736
      4          8           0        0.355284   -0.632606    1.272490
      5          6           0       -0.818381    0.883510   -0.178087
      6          8           0       -1.991177    0.117399    0.052291
      7          1           0        2.561254    0.025201    0.076754
      8          1           0        1.800449    1.513792    0.659511
      9          1           0        1.848093    1.160902   -1.088463
     10          1           0        0.825827   -1.743427   -0.752583
     11          1           0       -0.583217   -0.823632    1.421280
     12          1           0       -0.810553    1.686530    0.563215
     13          1           0       -0.808769    1.325031   -1.183658
     14          1           0       -1.946879   -0.609346   -0.583126
 ---------------------------------------------------------------------

 SCF Done:  E(RHF) =  -343.014376233     A.U. after    8 cycles

 The electronic state is 1-A.
 Alpha  occ. eigenvalues --  -20.56826 -20.56715 -20.56507 -11.34445 -11.28299
 Alpha  occ. eigenvalues --  -11.22516  -1.42573  -1.36596  -1.33745  -1.03401
 Alpha  occ. eigenvalues --   -0.94026  -0.81447  -0.75110  -0.68865  -0.67727
 Alpha  occ. eigenvalues --   -0.64017  -0.62339  -0.58573  -0.56000  -0.54871
 Alpha  occ. eigenvalues --   -0.54339  -0.50492  -0.48853  -0.47998  -0.44388
 Alpha virt. eigenvalues --    0.03605   0.04491   0.04623   0.05513   0.06804
 Alpha virt. eigenvalues --    0.07093   0.07546   0.07670   0.09106   0.09976
 Alpha virt. eigenvalues --    0.12372   0.14376   0.14535   0.15290   0.15629

 Mulliken charges:
               1
     1  C   -0.546484
     2  C    0.484223
     3  O   -0.633845
     4  O   -0.606252
     5  C   -0.130468
     6  O   -0.594699
     7  H    0.175294
     8  H    0.175981
     9  H    0.185047
    10  H    0.378120
    11  H    0.388686
    12  H    0.171214
    13  H    0.158325
    14  H    0.394858
 Sum of Mulliken charges =  -0.00000

 Dipole moment (field-independent basis, Debye):
    X=              1.0018    Y=              0.0329    Z=             -0.7861  Tot=              1.2738
 Quadrupole moment (field-independent basis, Debye-Ang):
   XX=            -38.8840   YY=            -32.7148   ZZ=            -39.9303
   XY=              1.3211   XZ=             -0.4872   YZ=              0.2710

 Normal termination of Gaussian 09 at Fri Aug 26 13:41:11 2022.
