 Gaussian 09, Revision E.01,
 Gaussian 09:  ES64L-G09RevE.01 30-Nov-2015

 -----
 #P G4
 -----

 --------
 Frag_862
 --------
 Symbolic Z-matrix:
 Charge =  0 Multiplicity = 1

 SCF Done:  E(RB3LYP) =  -327.015551747     A.U. after   14 cycles
 SCF Done:  E(RB3LYP) =  -327.070615069     A.U. after   13 cycles
 SCF Done:  E(RB3LYP) =  -327.079911271     A.U. after   13 cycles
 SCF Done:  E(RB3LYP) =  -327.082602089     A.U. after   13 cycles
 SCF Done:  E(RB3LYP) =  -327.082842556     A.U. after   12 cycles
 SCF Done:  E(RB3LYP) =  -327.082919465     A.U. after   12 cycles
 SCF Done:  E(RB3LYP) =  -327.082956212     A.U. after   11 cycles
 SCF Done:  E(RB3LYP) =  -327.082963928     A.U. after   10 cycles
 SCF Done:  E(RB3LYP) =  -327.082971408     A.U. after   10 cycles
 SCF Done:  E(RB3LYP) =  -327.083331030     A.U. after   15 cycles
 SCF Done:  E(RB3LYP) =  -327.086499377     A.U. after    9 cycles
 SCF Done:  E(RB3LYP) =  -327.086501789     A.U. after    8 cycles
 SCF Done:  E(RB3LYP) =  -327.086502413     A.U. after    7 cycles
 Optimization completed.
    -- Stationary point found.
 Normal termination of Gaussian 09 at Tue Aug 30 11:46:09 2022.

 ----------------------------------------------------------
 #P Geom=AllCheck Guess=TCheck SCRF=Check B3LYP/GTBas3 Freq
 ----------------------------------------------------------

 Structure from the checkpoint file:  "G4.Frag_862.chk"
 --------
 Frag_862
 --------
 Charge =  0 Multiplicity = 1

 SCF Done:  E(RB3LYP) =  -327.086502413     A.U. after    1 cycles

  Exact polarizability:  71.755   5.298  73.863   0.003   0.004  55.280
 Approx polarizability:  98.265   7.892 134.354   0.007   0.024  77.668

                      1                      2                      3
                      A                      A                      A
 Frequencies --     76.5993               198.7054               254.9780
 Red. masses --      3.8893                 1.0641                 1.0277
 Frc consts  --      0.0134                 0.0248                 0.0394
 IR Inten    --      4.8685                 0.0057                 0.8898

                      4                      5                      6
                      A                      A                      A
 Frequencies --    288.0736               304.5622               317.8366
 Red. masses --      2.2677                 2.7007                 1.1005
 Frc consts  --      0.1109                 0.1476                 0.0655
 IR Inten    --      2.2813                 3.2987                 0.3357

                      7                      8                      9
                      A                      A                      A
 Frequencies --    365.0577               377.5661               391.6306
 Red. masses --      2.8696                 2.1012                 2.7797
 Frc consts  --      0.2253                 0.1765                 0.2512
 IR Inten    --      6.2391                 0.0678                 1.0858

                     10                     11                     12
                      A                      A                      A
 Frequencies --    501.9243               547.9269               626.7971
 Red. masses --      2.9431                 3.0847                 1.5115
 Frc consts  --      0.4369                 0.5456                 0.3499
 IR Inten    --      3.7418                 8.0792                 0.0495

                     13                     14                     15
                      A                      A                      A
 Frequencies --    707.9251               709.0421               809.1487
 Red. masses --      1.6406                 3.0918                 1.6314
 Frc consts  --      0.4844                 0.9158                 0.6293
 IR Inten    --     18.1728                 2.5179                30.9795

                     16                     17                     18
                      A                      A                      A
 Frequencies --    822.7933               935.3981               935.5153
 Red. masses --      2.6182                 1.6590                 1.5825
 Frc consts  --      1.0443                 0.8553                 0.8160
 IR Inten    --      0.4880                 0.2862                 0.3550

                     19                     20                     21
                      A                      A                      A
 Frequencies --    966.9648              1047.7339              1050.7583
 Red. masses --      1.2093                 1.4089                 1.4269
 Frc consts  --      0.6662                 0.9112                 0.9282
 IR Inten    --      0.2292                 0.0058                 0.3465

                     22                     23                     24
                      A                      A                      A
 Frequencies --   1105.1932              1220.1304              1256.4150
 Red. masses --      1.9988                 2.1273                 2.8559
 Frc consts  --      1.4385                 1.8659                 2.6562
 IR Inten    --     33.6668                26.1966                 7.2449

                     25                     26                     27
                      A                      A                      A
 Frequencies --   1272.3963              1332.3047              1387.4425
 Red. masses --      2.9839                 2.5227                 1.2416
 Frc consts  --      2.8463                 2.6383                 1.4082
 IR Inten    --     25.2389                29.5189                 9.7227

                     28                     29                     30
                      A                      A                      A
 Frequencies --   1390.8844              1425.8430              1458.0384
 Red. masses --      1.2493                 1.2548                 1.3773
 Frc consts  --      1.4240                 1.5031                 1.7250
 IR Inten    --     19.5053                 7.2405                15.0699

                     31                     32                     33
                      A                      A                      A
 Frequencies --   1469.3476              1493.4794              1495.1126
 Red. masses --      1.0479                 1.0455                 1.0666
 Frc consts  --      1.3330                 1.3740                 1.4048
 IR Inten    --      0.0171                 0.0018                 3.1534

                     34                     35                     36
                      A                      A                      A
 Frequencies --   1495.9042              1502.2578              1525.7814
 Red. masses --      1.0751                 1.0501                 1.0578
 Frc consts  --      1.4175                 1.3963                 1.4509
 IR Inten    --      4.9745                 4.7226                 9.8565

                     37                     38                     39
                      A                      A                      A
 Frequencies --   1633.3268              3039.1903              3044.3546
 Red. masses --      6.2263                 1.0352                 1.0367
 Frc consts  --      9.7864                 5.6336                 5.6608
 IR Inten    --    114.6329                 9.2791                25.6255

                     40                     41                     42
                      A                      A                      A
 Frequencies --   3049.6518              3109.3364              3110.8485
 Red. masses --      1.0380                 1.1012                 1.1019
 Frc consts  --      5.6876                 6.2725                 6.2827
 IR Inten    --     11.0104                 0.8420                 1.7764

                     43                     44                     45
                      A                      A                      A
 Frequencies --   3116.9287              3117.6651              3153.4235
 Red. masses --      1.1024                 1.1001                 1.1003
 Frc consts  --      6.3102                 6.3000                 6.4463
 IR Inten    --     29.8267                46.6026                 0.3843

                     46                     47                     48
                      A                      A                      A
 Frequencies --   3157.2516              3206.4407              3339.8793
 Red. masses --      1.0997                 1.0537                 1.1209
 Frc consts  --      6.4588                 6.3831                 7.3671
 IR Inten    --      7.7514                 1.0761                 0.1355

 - Thermochemistry -
 -------------------
 Temperature   298.150 Kelvin.  Pressure   1.00000 Atm.
 Atom     1 has atomic number  6 and mass  12.00000

 Molecular mass:   101.08406 amu.
 Principal axes and moments of inertia in atomic units:
                           1         2         3
     Eigenvalues --   543.86539 735.50248 878.80221
           X            0.99712   0.07584  -0.00001
           Y           -0.07584   0.99712  -0.00007
           Z            0.00000   0.00007   1.00000
 This molecule is an asymmetric top.
 Rotational symmetry number  1.
 Warning -- assumption of classical behavior for rotation
           may cause significant error
 Rotational temperatures (Kelvin)      0.15926     0.11776     0.09856
 Rotational constants (GHZ):           3.31836     2.45375     2.05364
 Zero-point vibrational energy     413583.5 (Joules/Mol)
                                   98.84883 (Kcal/Mol)
 Warning -- explicit consideration of  11 degrees of freedom as
           vibrations may cause significant error
 Vibrational temperatures:    110.21   285.89   366.86   414.47   438.20
          (Kelvin)            457.30   525.24   543.23   563.47   722.16
                              788.34   901.82  1018.55  1020.15  1164.18
                             1183.81  1345.83  1346.00  1391.24  1507.45
                             1511.80  1590.12  1755.49  1807.70  1830.69
                             1916.89  1996.22  2001.17  2051.47  2097.79
                             2114.06  2148.78  2151.13  2152.27  2161.41
                             2195.26  2349.99  4372.71  4380.14  4387.76
                             4473.64  4475.81  4484.56  4485.62  4537.07
                             4542.58  4613.35  4805.34

 Zero-point correction=                           0.157526 (Hartree/Particle)
 Thermal correction to Energy=                    0.165683
 Thermal correction to Enthalpy=                  0.166627
 Thermal correction to Gibbs Free Energy=         0.125914
 Sum of electronic and zero-point Energies=           -326.928977
 Sum of electronic and thermal Energies=              -326.920820
 Sum of electronic and thermal Enthalpies=            -326.919875
 Sum of electronic and thermal Free Energies=         -326.960589

                     E (Thermal)             CV                S
                      KCal/Mol        Cal/Mol-Kelvin    Cal/Mol-Kelvin
 Total                  103.968             31.128             85.688
 Electronic               0.000              0.000              0.000
 Translational            0.889              2.981             39.750
 Rotational               0.889              2.981             27.355
 Vibrational            102.190             25.167             18.583
 Vibration     1          0.599              1.965              3.976
 Vibration     2          0.637              1.842              2.145
 Vibration     3          0.665              1.754              1.696
 Vibration     4          0.685              1.696              1.485
 Vibration     5          0.695              1.665              1.392
 Vibration     6          0.704              1.640              1.321
 Vibration     7          0.738              1.544              1.100
 Vibration     8          0.748              1.518              1.049
 Vibration     9          0.759              1.488              0.994
 Vibration    10          0.857              1.246              0.653
 Vibration    11          0.903              1.144              0.548

 Normal termination of Gaussian 09 at Tue Aug 30 11:47:04 2022.

 -----------------------------------------------------------------
 #P Geom=AllCheck Guess=TCheck SCRF=Check CCSD(T,E4T,FrzG4)/GTBas1
 -----------------------------------------------------------------

 Structure from the checkpoint file:  "G4.Frag_862.chk"
 --------
 Frag_862
 --------
 Charge =  0 Multiplicity = 1

 SCF Done:  E(RHF) =  -324.954123110     A.U. after   14 cycles
 E2 =    -0.1018583903D+01 EUMP2 =    -0.32597270701309D+03
 CCSD(T)
 CCSD(T)= -0.32606934970D+03
 305034\CCSD(T)=-326.0693497\RMSD=2.503e-09\PG=C01 [X(C5H11N1O1)]\\@
 Normal termination of Gaussian 09 at Tue Aug 30 11:52:24 2022.

 ---------------------------------------------------------
 #P Geom=AllCheck Guess=TCheck SCRF=Check MP4=FrzG4/GTBas2
 ---------------------------------------------------------

 Structure from the checkpoint file:  "G4.Frag_862.chk"
 --------
 Frag_862
 --------
 Charge =  0 Multiplicity = 1

 SCF Done:  E(RHF) =  -324.963175478     A.U. after   13 cycles
 E2 =    -0.1031919819D+01 EUMP2 =    -0.32599509529698D+03
 Normal termination of Gaussian 09 at Tue Aug 30 11:53:50 2022.

 ---------------------------------------------------------
 #P Geom=AllCheck Guess=TCheck SCRF=Check MP4=FrzG4/GTBas3
 ---------------------------------------------------------

 Structure from the checkpoint file:  "G4.Frag_862.chk"
 --------
 Frag_862
 --------
 Charge =  0 Multiplicity = 1

 SCF Done:  E(RHF) =  -324.993063240     A.U. after   12 cycles
 E2 =    -0.1251881648D+01 EUMP2 =    -0.32624494488830D+03
 Normal termination of Gaussian 09 at Tue Aug 30 12:07:31 2022.

 -----------------------------------------------------------
 #P Geom=AllCheck Guess=TCheck SCRF=Check MP2=Full/GTLargeXP
 -----------------------------------------------------------

 Structure from the checkpoint file:  "G4.Frag_862.chk"
 --------
 Frag_862
 --------
 Charge =  0 Multiplicity = 1

 SCF Done:  E(RHF) =  -325.070946876     A.U. after   13 cycles
 E2 =    -0.1635687808D+01 EUMP2 =    -0.32670663468435D+03
 Normal termination of Gaussian 09 at Tue Aug 30 12:11:31 2022.
 SCF Done:  E(RHF) =  -325.096723316     A.U. after   10 cycles
 Normal termination of Gaussian 09 at Tue Aug 30 12:16:01 2022.

                         Standard orientation:
 ---------------------------------------------------------------------
 Center     Atomic      Atomic             Coordinates (Angstroms)
 Number     Number       Type             X           Y           Z
 ---------------------------------------------------------------------
      1          6           0       -1.694059   -1.061974   -0.000305
      2          7           0       -0.969793    0.020658    0.000061
      3          8           0       -1.453063    1.189147    0.000216
      4          6           0        0.561642   -0.028743   -0.000114
      5          6           0        1.004567    0.718771    1.265351
      6          6           0        1.107874   -1.457891   -0.000284
      7          6           0        1.004414    0.719362   -1.265147
      8          1           0       -1.232443   -2.032652    0.000995
      9          1           0       -2.766073   -0.929574   -0.000179
     10          1           0        0.546473    1.707626    1.290805
     11          1           0        0.708071    0.171599    2.165852
     12          1           0        2.093151    0.822901    1.270313
     13          1           0        0.804270   -2.015465   -0.890975
     14          1           0        2.200679   -1.408683   -0.000710
     15          1           0        0.805022   -2.015111    0.890905
     16          1           0        0.545899    1.708020   -1.290385
     17          1           0        0.708436    0.172363   -2.165951
     18          1           0        2.092954    0.824044   -1.269820
 ---------------------------------------------------------------------

 SCF Done:  E(RHF) =  -325.102080030     A.U. after    8 cycles

 The electronic state is 1-A.
 Alpha  occ. eigenvalues --  -20.50205 -15.71610 -11.29575 -11.27380 -11.23757
 Alpha  occ. eigenvalues --  -11.22088 -11.22086  -1.44131  -1.15587  -1.08824
 Alpha  occ. eigenvalues --   -0.95498  -0.94555  -0.87680  -0.75694  -0.69711
 Alpha  occ. eigenvalues --   -0.66390  -0.64150  -0.60564  -0.59713  -0.59091
 Alpha  occ. eigenvalues --   -0.56017  -0.53442  -0.52785  -0.52666  -0.48625
 Alpha  occ. eigenvalues --   -0.48279  -0.40761  -0.33693
 Alpha virt. eigenvalues --    0.02708   0.03616   0.04120   0.04562   0.05695
 Alpha virt. eigenvalues --    0.06385   0.06666   0.07202   0.07301   0.09225
 Alpha virt. eigenvalues --    0.09503   0.09634   0.09877   0.12192   0.12524

 Mulliken charges:
               1
     1  C   -0.384062
     2  N    0.272845
     3  O   -0.617653
     4  C    0.375188
     5  C   -0.593154
     6  C   -0.642251
     7  C   -0.593216
     8  H    0.227006
     9  H    0.237069
    10  H    0.225502
    11  H    0.173112
    12  H    0.175042
    13  H    0.185621
    14  H    0.199685
    15  H    0.185565
    16  H    0.225547
    17  H    0.173118
    18  H    0.175037
 Sum of Mulliken charges =  -0.00000

 Dipole moment (field-independent basis, Debye):
    X=              2.3238    Y=             -3.5610    Z=              0.0004  Tot=              4.2522
 Quadrupole moment (field-independent basis, Debye-Ang):
   XX=            -45.0426   YY=            -45.7702   ZZ=            -45.0481
   XY=              6.3083   XZ=             -0.0006   YZ=             -0.0032

 Normal termination of Gaussian 09 at Tue Aug 30 12:30:16 2022.
