 Gaussian 09, Revision E.01,
 Gaussian 09:  ES64L-G09RevE.01 30-Nov-2015

 -----
 #P G4
 -----

 --------
 Frag_719
 --------
 Symbolic Z-matrix:
 Charge =  0 Multiplicity = 1

 SCF Done:  E(RB3LYP) =  -363.051730591     A.U. after   14 cycles
 SCF Done:  E(RB3LYP) =  -363.058495497     A.U. after   12 cycles
 SCF Done:  E(RB3LYP) =  -363.059162487     A.U. after   12 cycles
 SCF Done:  E(RB3LYP) =  -363.059087386     A.U. after   12 cycles
 SCF Done:  E(RB3LYP) =  -363.059351590     A.U. after    8 cycles
 SCF Done:  E(RB3LYP) =  -363.059716581     A.U. after   12 cycles
 SCF Done:  E(RB3LYP) =  -363.060443683     A.U. after   13 cycles
 SCF Done:  E(RB3LYP) =  -363.061098252     A.U. after   12 cycles
 SCF Done:  E(RB3LYP) =  -363.061735505     A.U. after   12 cycles
 SCF Done:  E(RB3LYP) =  -363.062204451     A.U. after   13 cycles
 SCF Done:  E(RB3LYP) =  -363.063461019     A.U. after    7 cycles
 SCF Done:  E(RB3LYP) =  -363.063461076     A.U. after    7 cycles
 SCF Done:  E(RB3LYP) =  -363.063461074     A.U. after    7 cycles
 Optimization completed.
    -- Stationary point found.
 Normal termination of Gaussian 09 at Fri Aug 19 13:37:20 2022.

 ----------------------------------------------------------
 #P Geom=AllCheck Guess=TCheck SCRF=Check B3LYP/GTBas3 Freq
 ----------------------------------------------------------

 Structure from the checkpoint file:  "G4.Frag_719.chk"
 --------
 Frag_719
 --------
 Charge =  0 Multiplicity = 1

 SCF Done:  E(RB3LYP) =  -363.063461074     A.U. after    1 cycles

  Exact polarizability:  62.643   0.089  60.341  -0.199  -0.291  47.143
 Approx polarizability:  82.361   5.227  91.053  -1.022  -2.960  70.325

                      1                      2                      3
                      A                      A                      A
 Frequencies --     63.3097               144.2164               161.1010
 Red. masses --      4.5062                 1.0611                 1.0997
 Frc consts  --      0.0106                 0.0130                 0.0168
 IR Inten    --      3.8209                 8.2140                70.8647

                      4                      5                      6
                      A                      A                      A
 Frequencies --    222.3037               261.5355               272.5746
 Red. masses --      1.7628                 1.8849                 1.5874
 Frc consts  --      0.0513                 0.0760                 0.0695
 IR Inten    --      0.8009                19.8668                 0.6322

                      7                      8                      9
                      A                      A                      A
 Frequencies --    297.0234               367.4757               388.7534
 Red. masses --      1.2734                 3.0537                 3.9715
 Frc consts  --      0.0662                 0.2430                 0.3536
 IR Inten    --     29.5029                 6.4354                 2.1003

                     10                     11                     12
                      A                      A                      A
 Frequencies --    427.9806               500.6536               568.8014
 Red. masses --      2.6730                 3.0514                 3.6707
 Frc consts  --      0.2885                 0.4506                 0.6997
 IR Inten    --      9.8871                21.5596                22.8018

                     13                     14                     15
                      A                      A                      A
 Frequencies --    611.3921               689.6377               816.9330
 Red. masses --      2.4423                 3.1492                 1.9675
 Frc consts  --      0.5379                 0.8824                 0.7737
 IR Inten    --     13.6118                 1.3514                86.9484

                     16                     17                     18
                      A                      A                      A
 Frequencies --    874.0983               947.0172               968.2406
 Red. masses --      2.4075                 2.1332                 1.9032
 Frc consts  --      1.0838                 1.1272                 1.0512
 IR Inten    --    106.7521                14.1227                11.0208

                     19                     20                     21
                      A                      A                      A
 Frequencies --   1028.4543              1043.5560              1115.6261
 Red. masses --      1.5874                 1.5327                 2.3911
 Frc consts  --      0.9893                 0.9834                 1.7534
 IR Inten    --     28.4120                 6.2544                78.1653

                     22                     23                     24
                      A                      A                      A
 Frequencies --   1178.9381              1211.6042              1279.3292
 Red. masses --      2.5403                 1.1851                 3.7960
 Frc consts  --      2.0803                 1.0250                 3.6605
 IR Inten    --     82.0512                20.5524                26.9001

                     25                     26                     27
                      A                      A                      A
 Frequencies --   1376.2564              1403.1802              1412.1790
 Red. masses --      1.3225                 1.2704                 1.8409
 Frc consts  --      1.4758                 1.4737                 2.1630
 IR Inten    --     29.5051                 8.3082                22.7253

                     28                     29                     30
                      A                      A                      A
 Frequencies --   1463.3628              1476.2069              1489.5150
 Red. masses --      1.0480                 1.0549                 1.0459
 Frc consts  --      1.3223                 1.3544                 1.3672
 IR Inten    --     10.8231                 9.8700                 3.9604

                     31                     32                     33
                      A                      A                      A
 Frequencies --   1499.7782              1629.8878              1825.7136
 Red. masses --      1.1111                 1.1159                10.2655
 Frc consts  --      1.4725                 1.7466                20.1602
 IR Inten    --      4.0732                65.2147               130.4028

                     34                     35                     36
                      A                      A                      A
 Frequencies --   3030.5934              3046.2149              3103.5739
 Red. masses --      1.0428                 1.0387                 1.0912
 Frc consts  --      5.6429                 5.6788                 6.1925
 IR Inten    --     16.5283                 2.3567                19.9284

                     37                     38                     39
                      A                      A                      A
 Frequencies --   3117.5236              3138.7954              3159.4161
 Red. masses --      1.0937                 1.1032                 1.1042
 Frc consts  --      6.2627                 6.4039                 6.4938
 IR Inten    --      5.2251                14.8411                 7.2591

                     40                     41                     42
                      A                      A                      A
 Frequencies --   3509.3563              3599.7569              3799.0873
 Red. masses --      1.0476                 1.0939                 1.0664
 Frc consts  --      7.6018                 8.3520                 9.0688
 IR Inten    --      6.0851                 7.2472                15.0336

 - Thermochemistry -
 -------------------
 Temperature   298.150 Kelvin.  Pressure   1.00000 Atm.
 Atom     1 has atomic number  6 and mass  12.00000

 Molecular mass:   103.06333 amu.
 Principal axes and moments of inertia in atomic units:
                           1         2         3
     Eigenvalues --   537.02408 749.94470 919.69564
           X            0.99646  -0.08328   0.01157
           Y            0.08234   0.99443   0.06585
           Z           -0.01698  -0.06466   0.99776
 This molecule is an asymmetric top.
 Rotational symmetry number  1.
 Warning -- assumption of classical behavior for rotation
           may cause significant error
 Rotational temperatures (Kelvin)      0.16128     0.11549     0.09418
 Rotational constants (GHZ):           3.36063     2.40650     1.96232
 Zero-point vibrational energy     350033.0 (Joules/Mol)
                                   83.65990 (Kcal/Mol)
 Warning -- explicit consideration of  13 degrees of freedom as
           vibrations may cause significant error
 Vibrational temperatures:     91.09   207.50   231.79   319.85   376.29
          (Kelvin)            392.17   427.35   528.71   559.33   615.77
                              720.33   818.38   879.66   992.23  1175.38
                             1257.63  1362.54  1393.08  1479.71  1501.44
                             1605.14  1696.23  1743.23  1840.67  1980.12
                             2018.86  2031.81  2105.45  2123.93  2143.08
                             2157.84  2345.04  2626.79  4360.34  4382.82
                             4465.35  4485.42  4516.02  4545.69  5049.17
                             5179.24  5466.03

 Zero-point correction=                           0.133321 (Hartree/Particle)
 Thermal correction to Energy=                    0.142135
 Thermal correction to Enthalpy=                  0.143079
 Thermal correction to Gibbs Free Energy=         0.100627
 Sum of electronic and zero-point Energies=           -362.930141
 Sum of electronic and thermal Energies=              -362.921326
 Sum of electronic and thermal Enthalpies=            -362.920382
 Sum of electronic and thermal Free Energies=         -362.962835

                     E (Thermal)             CV                S
                      KCal/Mol        Cal/Mol-Kelvin    Cal/Mol-Kelvin
 Total                   89.191             31.577             89.348
 Electronic               0.000              0.000              0.000
 Translational            0.889              2.981             39.808
 Rotational               0.889              2.981             27.407
 Vibrational             87.413             25.615             22.134
 Vibration     1          0.597              1.972              4.351
 Vibration     2          0.616              1.909              2.747
 Vibration     3          0.622              1.890              2.537
 Vibration     4          0.648              1.807              1.940
 Vibration     5          0.669              1.743              1.652
 Vibration     6          0.676              1.724              1.580
 Vibration     7          0.691              1.679              1.434
 Vibration     8          0.740              1.539              1.090
 Vibration     9          0.757              1.494              1.005
 Vibration    10          0.789              1.409              0.865
 Vibration    11          0.856              1.249              0.656
 Vibration    12          0.925              1.099              0.507
 Vibration    13          0.971              1.008              0.430

 Optimization completed.
    -- Stationary point found.
 Normal termination of Gaussian 09 at Fri Aug 19 13:41:44 2022.

 -----------------------------------------------------------------
 #P Geom=AllCheck Guess=TCheck SCRF=Check CCSD(T,E4T,FrzG4)/GTBas1
 -----------------------------------------------------------------

 Structure from the checkpoint file:  "G4.Frag_719.chk"
 --------
 Frag_719
 --------
 Charge =  0 Multiplicity = 1

 SCF Done:  E(RHF) =  -360.871652299     A.U. after   13 cycles
 E2 =    -0.1038911572D+01 EUMP2 =    -0.36191056387117D+03
 CCSD(T)
 CCSD(T)= -0.36199570027D+03
 P4SDTQ=-361.9985506\MP4SDQ=-361.9643763\CCSD=-361.9630386\CCSD(T)=-361
 Normal termination of Gaussian 09 at Fri Aug 19 13:56:50 2022.

 ---------------------------------------------------------
 #P Geom=AllCheck Guess=TCheck SCRF=Check MP4=FrzG4/GTBas2
 ---------------------------------------------------------

 Structure from the checkpoint file:  "G4.Frag_719.chk"
 --------
 Frag_719
 --------
 Charge =  0 Multiplicity = 1

 SCF Done:  E(RHF) =  -360.883554034     A.U. after   14 cycles
 E2 =    -0.1056362268D+01 EUMP2 =    -0.36193991630231D+03
 Normal termination of Gaussian 09 at Fri Aug 19 14:15:47 2022.

 ---------------------------------------------------------
 #P Geom=AllCheck Guess=TCheck SCRF=Check MP4=FrzG4/GTBas3
 ---------------------------------------------------------

 Structure from the checkpoint file:  "G4.Frag_719.chk"
 --------
 Frag_719
 --------
 Charge =  0 Multiplicity = 1

 SCF Done:  E(RHF) =  -360.918675382     A.U. after   13 cycles
 E2 =    -0.1279712453D+01 EUMP2 =    -0.36219838783495D+03
 Normal termination of Gaussian 09 at Fri Aug 19 18:34:13 2022.

 -----------------------------------------------------------
 #P Geom=AllCheck Guess=TCheck SCRF=Check MP2=Full/GTLargeXP
 -----------------------------------------------------------

 Structure from the checkpoint file:  "G4.Frag_719.chk"
 --------
 Frag_719
 --------
 Charge =  0 Multiplicity = 1

 SCF Done:  E(RHF) =  -361.013962775     A.U. after   13 cycles
 E2 =    -0.1675210128D+01 EUMP2 =    -0.36268917290343D+03
 Normal termination of Gaussian 09 at Fri Aug 19 18:45:44 2022.
 SCF Done:  E(RHF) =  -361.042366821     A.U. after    9 cycles
 Normal termination of Gaussian 09 at Fri Aug 19 18:55:24 2022.

                         Standard orientation:
 ---------------------------------------------------------------------
 Center     Atomic      Atomic             Coordinates (Angstroms)
 Number     Number       Type             X           Y           Z
 ---------------------------------------------------------------------
      1          6           0       -1.841533    0.925221   -0.009939
      2          6           0       -0.920884   -0.272590    0.073799
      3          8           0       -1.334457   -1.403258    0.154218
      4          6           0        0.609595    0.003559   -0.014855
      5          6           0        1.072107    1.108295    0.940781
      6          7           0        1.299601   -1.218380    0.292094
      7          8           0        0.746610    0.451948   -1.381424
      8          1           0       -1.529392    1.583198   -0.824464
      9          1           0       -2.865622    0.583250   -0.162522
     10          1           0       -1.794924    1.502944    0.920032
     11          1           0        0.600391    2.065392    0.707457
     12          1           0        2.159037    1.231155    0.852993
     13          1           0        0.858880    0.838625    1.977821
     14          1           0        2.258164   -1.183714   -0.036823
     15          1           0        0.823823   -1.999692   -0.147046
     16          1           0        1.579499    0.931066   -1.453180
 ---------------------------------------------------------------------

 SCF Done:  E(RHF) =  -361.048503781     A.U. after    8 cycles

 The electronic state is 1-A.
 Alpha  occ. eigenvalues --  -20.57074 -20.55054 -15.54361 -11.33356 -11.33236
 Alpha  occ. eigenvalues --  -11.23685 -11.23301  -1.40323  -1.37558  -1.18597
 Alpha  occ. eigenvalues --   -1.03449  -0.98735  -0.88168  -0.73507  -0.70958
 Alpha  occ. eigenvalues --   -0.69358  -0.65272  -0.62216  -0.60770  -0.59812
 Alpha  occ. eigenvalues --   -0.57248  -0.55806  -0.54553  -0.53664  -0.50138
 Alpha  occ. eigenvalues --   -0.48003  -0.41797  -0.41018
 Alpha virt. eigenvalues --    0.02857   0.03888   0.04483   0.05155   0.06567
 Alpha virt. eigenvalues --    0.06675   0.06895   0.07336   0.07875   0.09650
 Alpha virt. eigenvalues --    0.09716   0.10259   0.10422   0.11735   0.13415

 Mulliken charges:
               1
     1  C   -0.603816
     2  C    0.487055
     3  O   -0.549016
     4  C    0.408940
     5  C   -0.575904
     6  N   -0.720291
     7  O   -0.593118
     8  H    0.220171
     9  H    0.213497
    10  H    0.194377
    11  H    0.178894
    12  H    0.172009
    13  H    0.197449
    14  H    0.276283
    15  H    0.325184
    16  H    0.368285
 Sum of Mulliken charges =  -0.00000

 Dipole moment (field-independent basis, Debye):
    X=              2.1739    Y=              3.3253    Z=             -0.0439  Tot=              3.9731
 Quadrupole moment (field-independent basis, Debye-Ang):
   XX=            -38.5110   YY=            -44.4896   ZZ=            -45.9069
   XY=             -2.7789   XZ=             -2.2814   YZ=              2.3778

 Normal termination of Gaussian 09 at Fri Aug 19 23:17:56 2022.
