 Gaussian 09, Revision E.01,
 Gaussian 09:  ES64L-G09RevE.01 30-Nov-2015

 -----
 #P G4
 -----

 --------
 Frag_606
 --------
 Symbolic Z-matrix:
 Charge =  0 Multiplicity = 1

 SCF Done:  E(RB3LYP) =  -308.817941696     A.U. after   13 cycles
 SCF Done:  E(RB3LYP) =  -308.829744103     A.U. after   12 cycles
 SCF Done:  E(RB3LYP) =  -308.831456566     A.U. after   12 cycles
 SCF Done:  E(RB3LYP) =  -308.831918867     A.U. after   11 cycles
 SCF Done:  E(RB3LYP) =  -308.831938778     A.U. after    8 cycles
 SCF Done:  E(RB3LYP) =  -308.831945703     A.U. after    9 cycles
 SCF Done:  E(RB3LYP) =  -308.831948767     A.U. after    9 cycles
 SCF Done:  E(RB3LYP) =  -308.831948951     A.U. after    7 cycles
 SCF Done:  E(RB3LYP) =  -308.831949067     A.U. after    6 cycles
 Optimization completed.
    -- Stationary point found.
 Normal termination of Gaussian 09 at Fri Aug 26 12:57:58 2022.

 ----------------------------------------------------------
 #P Geom=AllCheck Guess=TCheck SCRF=Check B3LYP/GTBas3 Freq
 ----------------------------------------------------------

 Structure from the checkpoint file:  "G4.Frag_606.chk"
 --------
 Frag_606
 --------
 Charge =  0 Multiplicity = 1

 SCF Done:  E(RB3LYP) =  -308.831949067     A.U. after    1 cycles

  Exact polarizability:  60.198   1.202  52.393  -2.060   0.170  50.318
 Approx polarizability:  84.366   0.564  70.739  -3.044   0.700  72.120

                      1                      2                      3
                      A                      A                      A
 Frequencies --    135.5607               181.9209               225.7123
 Red. masses --      2.1893                 1.2926                 1.0579
 Frc consts  --      0.0237                 0.0252                 0.0318
 IR Inten    --      2.7970                 2.5566                18.9249

                      4                      5                      6
                      A                      A                      A
 Frequencies --    240.7511               261.0786               274.7505
 Red. masses --      1.0366                 3.0481                 1.1178
 Frc consts  --      0.0354                 0.1224                 0.0497
 IR Inten    --      1.2454                20.5580                69.7768

                      7                      8                      9
                      A                      A                      A
 Frequencies --    335.5133               355.1488               401.1212
 Red. masses --      2.4286                 2.6916                 2.3240
 Frc consts  --      0.1611                 0.2000                 0.2203
 IR Inten    --      3.2554                 1.4929                 0.2874

                     10                     11                     12
                      A                      A                      A
 Frequencies --    460.2615               530.9984               748.9453
 Red. masses --      2.8499                 3.4156                 3.9437
 Frc consts  --      0.3557                 0.5674                 1.3033
 IR Inten    --      6.6736                 3.9753                 1.2209

                     13                     14                     15
                      A                      A                      A
 Frequencies --    867.1357               914.0317               920.9003
 Red. masses --      3.0156                 1.6715                 1.6861
 Frc consts  --      1.3360                 0.8228                 0.8425
 IR Inten    --     14.0297                 0.2661                 1.4593

                     16                     17                     18
                      A                      A                      A
 Frequencies --    951.3242               958.1518              1037.9325
 Red. masses --      7.4309                 1.2041                 1.4173
 Frc consts  --      3.9623                 0.6513                 0.8996
 IR Inten    --      3.8581                 0.0205                 0.9898

                     19                     20                     21
                      A                      A                      A
 Frequencies --   1050.1431              1223.9662              1260.0329
 Red. masses --      1.4580                 2.3248                 2.6653
 Frc consts  --      0.9473                 2.0520                 2.4932
 IR Inten    --      1.6064                40.6884                19.6471

                     22                     23                     24
                      A                      A                      A
 Frequencies --   1281.3275              1377.0430              1390.6088
 Red. masses --      2.8072                 1.1258                 1.2953
 Frc consts  --      2.7154                 1.2578                 1.4758
 IR Inten    --     18.6531                52.1935                13.7483

                     25                     26                     27
                      A                      A                      A
 Frequencies --   1393.8034              1418.7379              1466.8465
 Red. masses --      1.3003                 1.2301                 1.0479
 Frc consts  --      1.4883                 1.4588                 1.3284
 IR Inten    --      9.9004                 4.3234                 0.1991

                     28                     29                     30
                      A                      A                      A
 Frequencies --   1485.6136              1487.6198              1494.5328
 Red. masses --      1.0491                 1.0463                 1.0659
 Frc consts  --      1.3642                 1.3643                 1.4027
 IR Inten    --      0.5094                 0.2332                 3.8777

                     31                     32                     33
                      A                      A                      A
 Frequencies --   1497.1185              1521.9900              3038.5169
 Red. masses --      1.0539                 1.0586                 1.0353
 Frc consts  --      1.3918                 1.4447                 5.6318
 IR Inten    --      1.1458                 4.7962                20.3296

                     34                     35                     36
                      A                      A                      A
 Frequencies --   3042.6746              3048.7855              3108.3361
 Red. masses --      1.0349                 1.0358                 1.1015
 Frc consts  --      5.6451                 5.6724                 6.2702
 IR Inten    --     14.2639                 9.3760                 9.3568

                     37                     38                     39
                      A                      A                      A
 Frequencies --   3113.3676              3121.4346              3122.5741
 Red. masses --      1.1016                 1.1019                 1.1013
 Frc consts  --      6.2910                 6.3256                 6.3268
 IR Inten    --     12.5825                29.5627                11.7170

                     40                     41                     42
                      A                      A                      A
 Frequencies --   3125.5536              3135.1517              3760.5128
 Red. masses --      1.1015                 1.1006                 1.0687
 Frc consts  --      6.3401                 6.3737                 8.9043
 IR Inten    --     32.0420                19.1455                27.5368

 - Thermochemistry -
 -------------------
 Temperature   298.150 Kelvin.  Pressure   1.00000 Atm.
 Atom     1 has atomic number  6 and mass  12.00000

 Molecular mass:    90.06808 amu.
 Principal axes and moments of inertia in atomic units:
                           1         2         3
     Eigenvalues --   407.23684 652.00448 652.72160
           X            0.99897   0.01451  -0.04291
           Y           -0.02375   0.97440  -0.22356
           Z            0.03857   0.22435   0.97374
 This molecule is an asymmetric top.
 Rotational symmetry number  1.
 Rotational temperatures (Kelvin)      0.21269     0.13284     0.13270
 Rotational constants (GHZ):           4.43167     2.76799     2.76495
 Zero-point vibrational energy     363470.5 (Joules/Mol)
                                   86.87154 (Kcal/Mol)
 Warning -- explicit consideration of  11 degrees of freedom as
           vibrations may cause significant error
 Vibrational temperatures:    195.04   261.74   324.75   346.39   375.63
          (Kelvin)            395.30   482.73   510.98   577.12   662.21
                              763.99  1077.56  1247.61  1315.09  1324.97
                             1368.74  1378.57  1493.35  1510.92  1761.01
                             1812.90  1843.54  1981.26  2000.77  2005.37
                             2041.24  2110.46  2137.46  2140.35  2150.30
                             2154.02  2189.80  4371.74  4377.72  4386.52
                             4472.20  4479.44  4491.04  4492.68  4496.97
                             4510.78  5410.53

 Zero-point correction=                           0.138439 (Hartree/Particle)
 Thermal correction to Energy=                    0.146481
 Thermal correction to Enthalpy=                  0.147425
 Thermal correction to Gibbs Free Energy=         0.107444
 Sum of electronic and zero-point Energies=           -308.693510
 Sum of electronic and thermal Energies=              -308.685468
 Sum of electronic and thermal Enthalpies=            -308.684524
 Sum of electronic and thermal Free Energies=         -308.724505

                     E (Thermal)             CV                S
                      KCal/Mol        Cal/Mol-Kelvin    Cal/Mol-Kelvin
 Total                   91.918             29.115             84.149
 Electronic               0.000              0.000              0.000
 Translational            0.889              2.981             39.406
 Rotational               0.889              2.981             26.652
 Vibrational             90.141             23.154             18.090
 Vibration     1          0.613              1.918              2.866
 Vibration     2          0.630              1.864              2.309
 Vibration     3          0.650              1.802              1.913
 Vibration     4          0.658              1.778              1.797
 Vibration     5          0.669              1.744              1.655
 Vibration     6          0.677              1.720              1.566
 Vibration     7          0.717              1.605              1.233
 Vibration     8          0.731              1.565              1.143
 Vibration     9          0.767              1.468              0.959
 Vibration    10          0.818              1.338              0.765
 Vibration    11          0.886              1.181              0.585

 Optimization completed.
    -- Stationary point found.
 Normal termination of Gaussian 09 at Fri Aug 26 12:58:36 2022.

 -----------------------------------------------------------------
 #P Geom=AllCheck Guess=TCheck SCRF=Check CCSD(T,E4T,FrzG4)/GTBas1
 -----------------------------------------------------------------

 Structure from the checkpoint file:  "G4.Frag_606.chk"
 --------
 Frag_606
 --------
 Charge =  0 Multiplicity = 1

 SCF Done:  E(RHF) =  -306.909216022     A.U. after   13 cycles
 E2 =    -0.8965841409D+00 EUMP2 =    -0.30780580016316D+03
 CCSD(T)
 CCSD(T)= -0.30789113127D+03
 TQ=-307.8903606\MP4SDQ=-307.8626912\CCSD=-307.8633905\CCSD(T)=-307.891
 Normal termination of Gaussian 09 at Fri Aug 26 13:01:15 2022.

 ---------------------------------------------------------
 #P Geom=AllCheck Guess=TCheck SCRF=Check MP4=FrzG4/GTBas2
 ---------------------------------------------------------

 Structure from the checkpoint file:  "G4.Frag_606.chk"
 --------
 Frag_606
 --------
 Charge =  0 Multiplicity = 1

 SCF Done:  E(RHF) =  -306.916027623     A.U. after   12 cycles
 E2 =    -0.9099715782D+00 EUMP2 =    -0.30782599920106D+03
 Normal termination of Gaussian 09 at Fri Aug 26 13:02:05 2022.

 ---------------------------------------------------------
 #P Geom=AllCheck Guess=TCheck SCRF=Check MP4=FrzG4/GTBas3
 ---------------------------------------------------------

 Structure from the checkpoint file:  "G4.Frag_606.chk"
 --------
 Frag_606
 --------
 Charge =  0 Multiplicity = 1

 SCF Done:  E(RHF) =  -306.947410926     A.U. after   12 cycles
 E2 =    -0.1117013046D+01 EUMP2 =    -0.30806442397203D+03
 Normal termination of Gaussian 09 at Fri Aug 26 13:06:52 2022.

 -----------------------------------------------------------
 #P Geom=AllCheck Guess=TCheck SCRF=Check MP2=Full/GTLargeXP
 -----------------------------------------------------------

 Structure from the checkpoint file:  "G4.Frag_606.chk"
 --------
 Frag_606
 --------
 Charge =  0 Multiplicity = 1

 SCF Done:  E(RHF) =  -307.024641345     A.U. after   13 cycles
 E2 =    -0.1457405870D+01 EUMP2 =    -0.30848204721518D+03
 Normal termination of Gaussian 09 at Fri Aug 26 13:09:10 2022.
 SCF Done:  E(RHF) =  -307.050627872     A.U. after    9 cycles
 Normal termination of Gaussian 09 at Fri Aug 26 13:11:43 2022.

                         Standard orientation:
 ---------------------------------------------------------------------
 Center     Atomic      Atomic             Coordinates (Angstroms)
 Number     Number       Type             X           Y           Z
 ---------------------------------------------------------------------
      1          6           0        0.407064    1.340162    0.774567
      2          6           0        0.383801   -0.000477    0.034069
      3          6           0        1.581460   -0.134332   -0.911925
      4          6           0        0.309528   -1.182421    1.006754
      5          8           0       -0.726375   -0.038664   -0.889980
      6          8           0       -1.965902    0.108729   -0.158577
      7          1           0        0.454778    2.167563    0.060889
      8          1           0       -0.493743    1.458767    1.380114
      9          1           0        1.278713    1.399162    1.433941
     10          1           0        1.588288    0.682318   -1.638696
     11          1           0        2.513608   -0.099088   -0.341126
     12          1           0        1.543249   -1.082105   -1.456123
     13          1           0        0.273666   -2.129382    0.458494
     14          1           0       -0.579319   -1.107390    1.637987
     15          1           0        1.187351   -1.199179    1.659696
     16          1           0       -2.319495   -0.788778   -0.227509
 ---------------------------------------------------------------------

 SCF Done:  E(RHF) =  -307.056077042     A.U. after    8 cycles

 The electronic state is 1-A.
 Alpha  occ. eigenvalues --  -20.61321 -20.61131 -11.29227 -11.21861 -11.21814
 Alpha  occ. eigenvalues --  -11.21160  -1.46527  -1.22598  -1.05375  -0.94312
 Alpha  occ. eigenvalues --   -0.94003  -0.76623  -0.70772  -0.65614  -0.64280
 Alpha  occ. eigenvalues --   -0.61033  -0.57722  -0.54983  -0.54549  -0.53314
 Alpha  occ. eigenvalues --   -0.51961  -0.50664  -0.48230  -0.46182  -0.43794
 Alpha virt. eigenvalues --    0.03390   0.04072   0.04330   0.05375   0.07113
 Alpha virt. eigenvalues --    0.07132   0.07271   0.07485   0.07846   0.09925
 Alpha virt. eigenvalues --    0.10543   0.11077   0.11201   0.13621   0.14740

 Mulliken charges:
               1
     1  C   -0.576679
     2  C    0.466133
     3  C   -0.577591
     4  C   -0.612900
     5  O   -0.252169
     6  O   -0.438975
     7  H    0.172503
     8  H    0.194359
     9  H    0.169204
    10  H    0.181199
    11  H    0.175012
    12  H    0.172962
    13  H    0.175948
    14  H    0.183182
    15  H    0.174194
    16  H    0.393617
 Sum of Mulliken charges =  -0.00000

 Dipole moment (field-independent basis, Debye):
    X=              0.9633    Y=             -1.3893    Z=              1.0722  Tot=              2.0019
 Quadrupole moment (field-independent basis, Debye-Ang):
   XX=            -36.9414   YY=            -37.2274   ZZ=            -39.9590
   XY=              3.8371   XZ=             -0.8357   YZ=              0.3211

 Normal termination of Gaussian 09 at Fri Aug 26 13:20:36 2022.
