 Gaussian 09, Revision E.01,
 Gaussian 09:  ES64L-G09RevE.01 30-Nov-2015

 -----
 #P G4
 -----

 ---------
 Frag_1086
 ---------
 Symbolic Z-matrix:
 Charge =  0 Multiplicity = 1

 SCF Done:  E(RB3LYP) =  -246.014402211     A.U. after   14 cycles
 SCF Done:  E(RB3LYP) =  -246.031663996     A.U. after   13 cycles
 SCF Done:  E(RB3LYP) =  -246.025899798     A.U. after   14 cycles
 SCF Done:  E(RB3LYP) =  -246.032543119     A.U. after   12 cycles
 SCF Done:  E(RB3LYP) =  -246.033031580     A.U. after   12 cycles
 SCF Done:  E(RB3LYP) =  -246.032843701     A.U. after   12 cycles
 SCF Done:  E(RB3LYP) =  -246.033136106     A.U. after   11 cycles
 SCF Done:  E(RB3LYP) =  -246.033183810     A.U. after   11 cycles
 SCF Done:  E(RB3LYP) =  -246.033184842     A.U. after    7 cycles
 Optimization completed.
    -- Stationary point found.
 Normal termination of Gaussian 09 at Fri Aug 19 08:50:23 2022.

 ----------------------------------------------------------
 #P Geom=AllCheck Guess=TCheck SCRF=Check B3LYP/GTBas3 Freq
 ----------------------------------------------------------

 Structure from the checkpoint file:  "G4.Frag_1086.chk"
 ---------
 Frag_1086
 ---------
 Charge =  0 Multiplicity = 1

 SCF Done:  E(RB3LYP) =  -246.033184842     A.U. after    2 cycles

  Exact polarizability:  60.927  -3.823  36.989  -0.000   0.000  20.036
 Approx polarizability: 103.949 -12.273  61.471   0.000   0.000  29.325

                      1                      2                      3
                      A                      A                      A
 Frequencies --    196.3819               266.6349               508.8883
 Red. masses --      4.3778                 4.2579                 4.0156
 Frc consts  --      0.0995                 0.1784                 0.6127
 IR Inten    --      0.9918                 1.8631                31.1342

                      4                      5                      6
                      A                      A                      A
 Frequencies --    572.3182               586.3296               664.0446
 Red. masses --      1.1819                 6.4666                 1.2496
 Frc consts  --      0.2281                 1.3098                 0.3247
 IR Inten    --    105.6767                 3.2490                39.0821

                      7                      8                      9
                      A                      A                      A
 Frequencies --    670.3244               737.0694               830.9775
 Red. masses --      1.3431                 5.7003                 4.9296
 Frc consts  --      0.3556                 1.8246                 2.0056
 IR Inten    --     17.4784                51.4720                13.6451

                     10                     11                     12
                      A                      A                      A
 Frequencies --    842.6895              1101.9560              1252.0618
 Red. masses --      1.1304                 1.7364                 1.4631
 Frc consts  --      0.4730                 1.2423                 1.3514
 IR Inten    --     41.0820               201.6402               151.3123

                     13                     14                     15
                      A                      A                      A
 Frequencies --   1439.0892              1701.9643              2238.7902
 Red. masses --      2.5709                 8.0695                 5.9599
 Frc consts  --      3.1370                13.7720                17.6003
 IR Inten    --     95.8097               215.6443                25.2059

                     16                     17                     18
                      A                      A                      A
 Frequencies --   3498.8163              3529.6910              3745.1827
 Red. masses --      1.1628                 1.0757                 1.0636
 Frc consts  --      8.3871                 7.8965                 8.7894
 IR Inten    --     62.9003                10.0917                64.1684

 - Thermochemistry -
 -------------------
 Temperature   298.150 Kelvin.  Pressure   1.00000 Atm.
 Atom     1 has atomic number  6 and mass  12.00000

 Molecular mass:    69.02146 amu.
 Principal axes and moments of inertia in atomic units:
                           1         2         3
     Eigenvalues --   156.24765 435.77081 592.01846
           X            0.99997   0.00749   0.00000
           Y           -0.00749   0.99997  -0.00000
           Z           -0.00000   0.00000   1.00000
 This molecule is an asymmetric top.
 Rotational symmetry number  1.
 Rotational temperatures (Kelvin)      0.55434     0.19876     0.14630
 Rotational constants (GHZ):          11.55052     4.14149     3.04845
 Zero-point vibrational energy     145844.0 (Joules/Mol)
                                   34.85755 (Kcal/Mol)
 Warning -- explicit consideration of   5 degrees of freedom as
           vibrations may cause significant error
 Vibrational temperatures:    282.55   383.63   732.18   823.44   843.60
          (Kelvin)            955.41   964.45  1060.48  1195.59  1212.44
                             1585.47  1801.44  2070.53  2448.74  3221.12
                             5034.01  5078.43  5388.48

 Zero-point correction=                           0.055549 (Hartree/Particle)
 Thermal correction to Energy=                    0.060508
 Thermal correction to Enthalpy=                  0.061452
 Thermal correction to Gibbs Free Energy=         0.027887
 Sum of electronic and zero-point Energies=           -245.977636
 Sum of electronic and thermal Energies=              -245.972677
 Sum of electronic and thermal Enthalpies=            -245.971732
 Sum of electronic and thermal Free Energies=         -246.005298

                     E (Thermal)             CV                S
                      KCal/Mol        Cal/Mol-Kelvin    Cal/Mol-Kelvin
 Total                   37.970             17.239             70.645
 Electronic               0.000              0.000              0.000
 Translational            0.889              2.981             38.613
 Rotational               0.889              2.981             25.203
 Vibrational             36.192             11.278              6.829
 Vibration     1          0.636              1.845              2.167
 Vibration     2          0.672              1.734              1.618
 Vibration     3          0.864              1.230              0.636
 Vibration     4          0.929              1.091              0.500
 Vibration     5          0.943              1.061              0.474

 Optimization completed.
    -- Stationary point found.
 Normal termination of Gaussian 09 at Fri Aug 19 08:51:07 2022.

 -----------------------------------------------------------------
 #P Geom=AllCheck Guess=TCheck SCRF=Check CCSD(T,E4T,FrzG4)/GTBas1
 -----------------------------------------------------------------

 Structure from the checkpoint file:  "G4.Frag_1086.chk"
 ---------
 Frag_1086
 ---------
 Charge =  0 Multiplicity = 1

 SCF Done:  E(RHF) =  -244.575428418     A.U. after   14 cycles
 E2 =    -0.7112760883D+00 EUMP2 =    -0.24528670450630D+03
 CCSD(T)
 CCSD(T)= -0.24533704287D+03
 -245.3401194\MP4SDQ=-245.3095913\CCSD=-245.3089471\CCSD(T)=-245.337042
 Normal termination of Gaussian 09 at Fri Aug 19 08:52:03 2022.

 ---------------------------------------------------------
 #P Geom=AllCheck Guess=TCheck SCRF=Check MP4=FrzG4/GTBas2
 ---------------------------------------------------------

 Structure from the checkpoint file:  "G4.Frag_1086.chk"
 ---------
 Frag_1086
 ---------
 Charge =  0 Multiplicity = 1

 SCF Done:  E(RHF) =  -244.585507506     A.U. after   14 cycles
 E2 =    -0.7202482481D+00 EUMP2 =    -0.24530575575459D+03
 Normal termination of Gaussian 09 at Fri Aug 19 08:52:39 2022.

 ---------------------------------------------------------
 #P Geom=AllCheck Guess=TCheck SCRF=Check MP4=FrzG4/GTBas3
 ---------------------------------------------------------

 Structure from the checkpoint file:  "G4.Frag_1086.chk"
 ---------
 Frag_1086
 ---------
 Charge =  0 Multiplicity = 1

 SCF Done:  E(RHF) =  -244.608205946     A.U. after   13 cycles
 E2 =    -0.8498152316D+00 EUMP2 =    -0.24545802117760D+03
 Normal termination of Gaussian 09 at Fri Aug 19 09:13:22 2022.

 -----------------------------------------------------------
 #P Geom=AllCheck Guess=TCheck SCRF=Check MP2=Full/GTLargeXP
 -----------------------------------------------------------

 Structure from the checkpoint file:  "G4.Frag_1086.chk"
 ---------
 Frag_1086
 ---------
 Charge =  0 Multiplicity = 1

 SCF Done:  E(RHF) =  -244.672952513     A.U. after   15 cycles
 E2 =    -0.1121401832D+01 EUMP2 =    -0.24579435434540D+03
 Normal termination of Gaussian 09 at Fri Aug 19 09:14:51 2022.
 SCF Done:  E(RHF) =  -244.692339951     A.U. after   10 cycles
 Normal termination of Gaussian 09 at Fri Aug 19 09:17:09 2022.

                         Standard orientation:
 ---------------------------------------------------------------------
 Center     Atomic      Atomic             Coordinates (Angstroms)
 Number     Number       Type             X           Y           Z
 ---------------------------------------------------------------------
      1          6           0        2.166524   -0.050686    0.000000
      2          6           0        0.964875   -0.025258   -0.000006
      3          6           0       -0.467115    0.076719   -0.000004
      4          7           0       -1.147780    1.151095    0.000002
      5          8           0       -1.076005   -1.126520    0.000002
      6          1           0        3.228797   -0.080630    0.000022
      7          1           0       -0.544803    1.970269    0.000002
      8          1           0       -2.027203   -0.939801    0.000006
 ---------------------------------------------------------------------

 SCF Done:  E(RHF) =  -244.696167079     A.U. after    8 cycles

 The electronic state is 1-A.
 Alpha  occ. eigenvalues --  -20.60928 -15.55793 -11.37799 -11.26620 -11.26084
 Alpha  occ. eigenvalues --   -1.44278  -1.21400  -1.06319  -0.90844  -0.76845
 Alpha  occ. eigenvalues --   -0.73520  -0.70434  -0.62302  -0.59780  -0.48024
 Alpha  occ. eigenvalues --   -0.46414  -0.42267  -0.39724
 Alpha virt. eigenvalues --    0.03356   0.04583   0.05354   0.05431   0.06746
 Alpha virt. eigenvalues --    0.07216   0.07625   0.09699   0.09850   0.10922
 Alpha virt. eigenvalues --    0.11419   0.11670   0.13189   0.13763   0.15816

 Mulliken charges:
               1
     1  C   -0.449753
     2  C    0.209374
     3  C    0.430116
     4  N   -0.667339
     5  O   -0.501153
     6  H    0.263744
     7  H    0.303225
     8  H    0.411787
 Sum of Mulliken charges =  -0.00000

 Dipole moment (field-independent basis, Debye):
    X=              1.6293    Y=              0.2350    Z=              0.0000  Tot=              1.6462
 Quadrupole moment (field-independent basis, Debye-Ang):
   XX=            -21.1893   YY=            -30.2892   ZZ=            -30.6513
   XY=              3.3998   XZ=              0.0001   YZ=             -0.0000

 Normal termination of Gaussian 09 at Fri Aug 19 10:13:56 2022.
