 Gaussian 09, Revision E.01,
 Gaussian 09:  ES64L-G09RevE.01 30-Nov-2015

 -----
 #P G4
 -----

 ---------
 Frag_1138
 ---------
 Symbolic Z-matrix:
 Charge =  0 Multiplicity = 1

 SCF Done:  E(RB3LYP) =  -283.923062817     A.U. after   13 cycles
 SCF Done:  E(RB3LYP) =  -283.966970638     A.U. after   12 cycles
 SCF Done:  E(RB3LYP) =  -283.970979032     A.U. after   12 cycles
 SCF Done:  E(RB3LYP) =  -283.976390196     A.U. after   12 cycles
 SCF Done:  E(RB3LYP) =  -283.976973314     A.U. after   10 cycles
 SCF Done:  E(RB3LYP) =  -283.978031759     A.U. after   12 cycles
 SCF Done:  E(RB3LYP) =  -283.979305188     A.U. after   14 cycles
 SCF Done:  E(RB3LYP) =  -283.980449245     A.U. after   11 cycles
 SCF Done:  E(RB3LYP) =  -283.982609662     A.U. after   13 cycles
 SCF Done:  E(RB3LYP) =  -283.983207877     A.U. after   12 cycles
 SCF Done:  E(RB3LYP) =  -283.984950354     A.U. after    8 cycles
 SCF Done:  E(RB3LYP) =  -283.984952027     A.U. after    7 cycles
 SCF Done:  E(RB3LYP) =  -283.984951681     A.U. after    6 cycles
 Optimization completed.
    -- Stationary point found.
 Normal termination of Gaussian 09 at Tue Aug 30 10:39:25 2022.

 ----------------------------------------------------------
 #P Geom=AllCheck Guess=TCheck SCRF=Check B3LYP/GTBas3 Freq
 ----------------------------------------------------------

 Structure from the checkpoint file:  "G4.Frag_1138.chk"
 ---------
 Frag_1138
 ---------
 Charge =  0 Multiplicity = 1

 SCF Done:  E(RB3LYP) =  -283.984951681     A.U. after    1 cycles

  Exact polarizability:  67.249  -0.890  50.039  -0.919   3.397  47.980
 Approx polarizability:  92.562  -3.502  72.539  -3.803   7.476  69.585

                      1                      2                      3
                      A                      A                      A
 Frequencies --    116.7776               225.8408               254.4257
 Red. masses --      3.1220                 1.0730                 1.0438
 Frc consts  --      0.0251                 0.0322                 0.0398
 IR Inten    --      6.3361                12.3895                 4.5869

                      4                      5                      6
                      A                      A                      A
 Frequencies --    279.7881               337.5121               374.5536
 Red. masses --      1.1748                 2.6235                 2.4015
 Frc consts  --      0.0542                 0.1761                 0.1985
 IR Inten    --     36.9980                14.6671                 9.6737

                      7                      8                      9
                      A                      A                      A
 Frequencies --    376.9809               472.4842               489.3304
 Red. masses --      2.3861                 2.6012                 2.4014
 Frc consts  --      0.1998                 0.3421                 0.3388
 IR Inten    --      8.4153                 4.9527                15.5427

                     10                     11                     12
                      A                      A                      A
 Frequencies --    590.1173               751.1228               769.3214
 Red. masses --      3.1669                 3.4071                 1.3929
 Frc consts  --      0.6498                 1.1326                 0.4857
 IR Inten    --      1.4262                 9.1564                 7.7483

                     13                     14                     15
                      A                      A                      A
 Frequencies --    812.1040               896.8399               936.3400
 Red. masses --      2.0692                 1.5256                 1.4651
 Frc consts  --      0.8040                 0.7230                 0.7568
 IR Inten    --     87.4064               172.4186                33.1557

                     16                     17                     18
                      A                      A                      A
 Frequencies --    966.3107              1008.8068              1092.3960
 Red. masses --      1.5276                 1.6682                 1.3446
 Frc consts  --      0.8404                 1.0003                 0.9454
 IR Inten    --      1.9825                22.7978                17.2942

                     19                     20                     21
                      A                      A                      A
 Frequencies --   1112.4005              1201.0799              1242.2470
 Red. masses --      1.5682                 1.8119                 2.1320
 Frc consts  --      1.1434                 1.5400                 1.9384
 IR Inten    --     20.4719                11.4257                58.8926

                     22                     23                     24
                      A                      A                      A
 Frequencies --   1299.5214              1342.8409              1396.5905
 Red. masses --      1.9755                 1.8067                 1.2767
 Frc consts  --      1.9656                 1.9195                 1.4671
 IR Inten    --     39.4734                26.9986                 9.4003

                     25                     26                     27
                      A                      A                      A
 Frequencies --   1471.4245              1482.1122              1496.2466
 Red. masses --      1.1171                 1.0515                 1.0664
 Frc consts  --      1.4250                 1.3609                 1.4066
 IR Inten    --     15.7254                 2.0792                 1.9116

                     28                     29                     30
                      A                      A                      A
 Frequencies --   1629.9580              1652.3867              1743.0622
 Red. masses --      1.1065                 1.1005                 7.6289
 Frc consts  --      1.7320                 1.7703                13.6564
 IR Inten    --     35.7475                32.7006                28.1935

                     31                     32                     33
                      A                      A                      A
 Frequencies --   3031.6426              3051.5616              3103.4362
 Red. masses --      1.0379                 1.0549                 1.0993
 Frc consts  --      5.6201                 5.7878                 6.2381
 IR Inten    --     20.5974                31.9802                25.8685

                     34                     35                     36
                      A                      A                      A
 Frequencies --   3134.1870              3143.7723              3480.1128
 Red. masses --      1.1010                 1.1155                 1.0486
 Frc consts  --      6.3720                 6.4955                 7.4822
 IR Inten    --     13.9241                24.9199                 1.1476

                     37                     38                     39
                      A                      A                      A
 Frequencies --   3505.2099              3569.9951              3592.3772
 Red. masses --      1.0490                 1.0924                 1.0929
 Frc consts  --      7.5939                 8.2030                 8.3101
 IR Inten    --      1.4845                 0.5029                 3.3271

 - Thermochemistry -
 -------------------
 Temperature   298.150 Kelvin.  Pressure   1.00000 Atm.
 Atom     1 has atomic number  6 and mass  12.00000

 Molecular mass:    87.07965 amu.
 Principal axes and moments of inertia in atomic units:
                           1         2         3
     Eigenvalues --   387.49620 605.90481 609.85970
           X            0.99945  -0.01032  -0.03155
           Y            0.03230   0.52199   0.85234
           Z           -0.00767   0.85289  -0.52203
 This molecule is an asymmetric top.
 Rotational symmetry number  1.
 Rotational temperatures (Kelvin)      0.22352     0.14295     0.14202
 Rotational constants (GHZ):           4.65744     2.97859     2.95927
 Zero-point vibrational energy     343526.9 (Joules/Mol)
                                   82.10491 (Kcal/Mol)
 Warning -- explicit consideration of  10 degrees of freedom as
           vibrations may cause significant error
 Vibrational temperatures:    168.02   324.93   366.06   402.55   485.60
          (Kelvin)            538.90   542.39   679.80   704.04   849.05
                             1080.70  1106.88  1168.44  1290.35  1347.18
                             1390.30  1451.45  1571.71  1600.49  1728.08
                             1787.31  1869.72  1932.05  2009.38  2117.05
                             2132.43  2152.76  2345.14  2377.41  2507.87
                             4361.85  4390.51  4465.15  4509.39  4523.18
                             5007.10  5043.21  5136.42  5168.62

 Zero-point correction=                           0.130842 (Hartree/Particle)
 Thermal correction to Energy=                    0.138078
 Thermal correction to Enthalpy=                  0.139023
 Thermal correction to Gibbs Free Energy=         0.100655
 Sum of electronic and zero-point Energies=           -283.854109
 Sum of electronic and thermal Energies=              -283.846873
 Sum of electronic and thermal Enthalpies=            -283.845929
 Sum of electronic and thermal Free Energies=         -283.884297

                     E (Thermal)             CV                S
                      KCal/Mol        Cal/Mol-Kelvin    Cal/Mol-Kelvin
 Total                   86.646             26.939             80.752
 Electronic               0.000              0.000              0.000
 Translational            0.889              2.981             39.306
 Rotational               0.889              2.981             26.462
 Vibrational             84.868             20.977             14.984
 Vibration     1          0.608              1.935              3.153
 Vibration     2          0.650              1.802              1.912
 Vibration     3          0.665              1.755              1.700
 Vibration     4          0.680              1.711              1.535
 Vibration     5          0.718              1.601              1.224
 Vibration     6          0.746              1.524              1.061
 Vibration     7          0.748              1.519              1.051
 Vibration     8          0.829              1.311              0.731
 Vibration     9          0.845              1.274              0.685
 Vibration    10          0.947              1.053              0.467

 Optimization completed.
    -- Stationary point found.
 Normal termination of Gaussian 09 at Tue Aug 30 10:40:00 2022.

 -----------------------------------------------------------------
 #P Geom=AllCheck Guess=TCheck SCRF=Check CCSD(T,E4T,FrzG4)/GTBas1
 -----------------------------------------------------------------

 Structure from the checkpoint file:  "G4.Frag_1138.chk"
 ---------
 Frag_1138
 ---------
 Charge =  0 Multiplicity = 1

 SCF Done:  E(RHF) =  -282.152005294     A.U. after   13 cycles
 E2 =    -0.8814534729D+00 EUMP2 =    -0.28303345876642D+03
 CCSD(T)
 CCSD(T)= -0.28311641838D+03
 283.0870221\CCSD(T)=-283.1164184\RMSD=6.403e-09\PG=C01 [X(C3H9N3)]\\@
 Normal termination of Gaussian 09 at Tue Aug 30 10:41:58 2022.

 ---------------------------------------------------------
 #P Geom=AllCheck Guess=TCheck SCRF=Check MP4=FrzG4/GTBas2
 ---------------------------------------------------------

 Structure from the checkpoint file:  "G4.Frag_1138.chk"
 ---------
 Frag_1138
 ---------
 Charge =  0 Multiplicity = 1

 SCF Done:  E(RHF) =  -282.162892159     A.U. after   12 cycles
 E2 =    -0.8957030322D+00 EUMP2 =    -0.28305859519137D+03
 Normal termination of Gaussian 09 at Tue Aug 30 10:42:42 2022.

 ---------------------------------------------------------
 #P Geom=AllCheck Guess=TCheck SCRF=Check MP4=FrzG4/GTBas3
 ---------------------------------------------------------

 Structure from the checkpoint file:  "G4.Frag_1138.chk"
 ---------
 Frag_1138
 ---------
 Charge =  0 Multiplicity = 1

 SCF Done:  E(RHF) =  -282.191963531     A.U. after   11 cycles
 E2 =    -0.1075256699D+01 EUMP2 =    -0.28326722022967D+03
 Normal termination of Gaussian 09 at Tue Aug 30 10:46:43 2022.

 -----------------------------------------------------------
 #P Geom=AllCheck Guess=TCheck SCRF=Check MP2=Full/GTLargeXP
 -----------------------------------------------------------

 Structure from the checkpoint file:  "G4.Frag_1138.chk"
 ---------
 Frag_1138
 ---------
 Charge =  0 Multiplicity = 1

 SCF Done:  E(RHF) =  -282.263484528     A.U. after   12 cycles
 E2 =    -0.1406892610D+01 EUMP2 =    -0.28367037713833D+03
 Normal termination of Gaussian 09 at Tue Aug 30 10:48:52 2022.
 SCF Done:  E(RHF) =  -282.284944755     A.U. after    9 cycles
 Normal termination of Gaussian 09 at Tue Aug 30 10:51:08 2022.

                         Standard orientation:
 ---------------------------------------------------------------------
 Center     Atomic      Atomic             Coordinates (Angstroms)
 Number     Number       Type             X           Y           Z
 ---------------------------------------------------------------------
      1          6           0        2.038108    0.061340   -0.006422
      2          7           0        0.966471    0.586170    0.407293
      3          6           0       -0.323649   -0.019459    0.029125
      4          6           0       -0.960393    0.927597   -1.004366
      5          7           0       -1.056527   -0.093816    1.301126
      6          7           0       -0.202312   -1.348546   -0.556490
      7          1           0        2.986267    0.527904    0.266299
      8          1           0        2.063394   -0.838920   -0.628131
      9          1           0       -1.999094    0.635727   -1.197781
     10          1           0       -0.408266    0.901721   -1.948601
     11          1           0       -0.950380    1.951100   -0.624226
     12          1           0       -2.051883   -0.194750    1.120407
     13          1           0       -0.922625    0.778289    1.805433
     14          1           0       -0.205989   -2.032140    0.194670
     15          1           0       -0.989241   -1.552460   -1.161602
 ---------------------------------------------------------------------

 SCF Done:  E(RHF) =  -282.289545313     A.U. after    8 cycles

 The electronic state is 1-A.
 Alpha  occ. eigenvalues --  -15.55206 -15.54051 -15.53796 -11.31899 -11.26301
 Alpha  occ. eigenvalues --  -11.21882  -1.26965  -1.16884  -1.12812  -0.98138
 Alpha  occ. eigenvalues --   -0.86557  -0.75576  -0.68536  -0.66555  -0.65879
 Alpha  occ. eigenvalues --   -0.60576  -0.58799  -0.55681  -0.53606  -0.52150
 Alpha  occ. eigenvalues --   -0.43305  -0.41572  -0.40979  -0.39139
 Alpha virt. eigenvalues --    0.03406   0.04315   0.04920   0.05338   0.06635
 Alpha virt. eigenvalues --    0.06715   0.07004   0.07586   0.08460   0.09929
 Alpha virt. eigenvalues --    0.11191   0.12058   0.12862   0.13788   0.14645

 Mulliken charges:
               1
     1  C   -0.244035
     2  N   -0.367494
     3  C    0.506254
     4  C   -0.563327
     5  N   -0.720745
     6  N   -0.798966
     7  H    0.209877
     8  H    0.224872
     9  H    0.157179
    10  H    0.180973
    11  H    0.194669
    12  H    0.281551
    13  H    0.312767
    14  H    0.327635
    15  H    0.298789
 Sum of Mulliken charges =  -0.00000

 Dipole moment (field-independent basis, Debye):
    X=             -1.2282    Y=             -0.4039    Z=             -1.1946  Tot=              1.7603
 Quadrupole moment (field-independent basis, Debye-Ang):
   XX=            -31.6344   YY=            -38.1901   ZZ=            -40.7190
   XY=             -0.4317   XZ=             -0.0312   YZ=              0.7808

 Normal termination of Gaussian 09 at Tue Aug 30 10:59:28 2022.
