 Gaussian 09, Revision E.01,
 Gaussian 09:  ES64L-G09RevE.01 30-Nov-2015

 -----
 #P G4
 -----

 ---------
 Frag_1163
 ---------
 Symbolic Z-matrix:
 Charge =  0 Multiplicity = 1

 SCF Done:  E(RB3LYP) =  -244.651270428     A.U. after   13 cycles
 SCF Done:  E(RB3LYP) =  -244.659766725     A.U. after   12 cycles
 SCF Done:  E(RB3LYP) =  -244.660323019     A.U. after   12 cycles
 SCF Done:  E(RB3LYP) =  -244.660696294     A.U. after   12 cycles
 SCF Done:  E(RB3LYP) =  -244.661740204     A.U. after   14 cycles
 SCF Done:  E(RB3LYP) =  -244.662837667     A.U. after   11 cycles
 SCF Done:  E(RB3LYP) =  -244.664749849     A.U. after   12 cycles
 SCF Done:  E(RB3LYP) =  -244.665756085     A.U. after   12 cycles
 SCF Done:  E(RB3LYP) =  -244.666122430     A.U. after   12 cycles
 SCF Done:  E(RB3LYP) =  -244.666108091     A.U. after   12 cycles
 SCF Done:  E(RB3LYP) =  -244.666296282     A.U. after    8 cycles
 SCF Done:  E(RB3LYP) =  -244.666298075     A.U. after    9 cycles
 SCF Done:  E(RB3LYP) =  -244.666298774     A.U. after    7 cycles
 Optimization completed.
    -- Stationary point found.
 Normal termination of Gaussian 09 at Mon Aug 22 23:25:17 2022.

 ----------------------------------------------------------
 #P Geom=AllCheck Guess=TCheck SCRF=Check B3LYP/GTBas3 Freq
 ----------------------------------------------------------

 Structure from the checkpoint file:  "G4.Frag_1163.chk"
 ---------
 Frag_1163
 ---------
 Charge =  0 Multiplicity = 1

 SCF Done:  E(RB3LYP) =  -244.666298774     A.U. after    1 cycles

  Exact polarizability:  52.187   2.429  45.539  -1.865  -1.550  32.970
 Approx polarizability:  71.347   7.349  65.672  -3.604  -3.031  50.158

                      1                      2                      3
                      A                      A                      A
 Frequencies --     99.5702               209.3832               253.1497
 Red. masses --      2.4364                 1.1339                 1.3318
 Frc consts  --      0.0142                 0.0293                 0.0503
 IR Inten    --     20.6197                37.7757                 6.6865

                      4                      5                      6
                      A                      A                      A
 Frequencies --    292.3831               374.0612               475.4477
 Red. masses --      2.2193                 2.4287                 2.5811
 Frc consts  --      0.1118                 0.2002                 0.3438
 IR Inten    --     32.9338                20.2018                 8.6437

                      7                      8                      9
                      A                      A                      A
 Frequencies --    629.7908               767.5271               843.1426
 Red. masses --      3.0402                 2.2089                 1.5578
 Frc consts  --      0.7105                 0.7667                 0.6525
 IR Inten    --     15.1817                16.7575                59.7873

                     10                     11                     12
                      A                      A                      A
 Frequencies --    936.2248               970.2328               998.5142
 Red. masses --      1.5952                 1.5940                 2.2441
 Frc consts  --      0.8238                 0.8841                 1.3183
 IR Inten    --    139.4349               160.9687                 3.0490

                     13                     14                     15
                      A                      A                      A
 Frequencies --   1115.4115              1134.2057              1191.9206
 Red. masses --      1.2577                 1.5884                 1.1925
 Frc consts  --      0.9220                 1.2039                 0.9982
 IR Inten    --     23.9430                38.1258                15.1102

                     16                     17                     18
                      A                      A                      A
 Frequencies --   1215.6208              1309.6296              1379.5771
 Red. masses --      1.1860                 1.4270                 1.4661
 Frc consts  --      1.0326                 1.4421                 1.6440
 IR Inten    --     20.5849                 5.8303                16.4405

                     19                     20                     21
                      A                      A                      A
 Frequencies --   1416.9880              1422.4059              1638.5726
 Red. masses --      1.6382                 1.3912                 1.1020
 Frc consts  --      1.9379                 1.6584                 1.7432
 IR Inten    --     44.9510                11.2712                28.2878

                     22                     23                     24
                      A                      A                      A
 Frequencies --   1652.8507              1739.7637              2889.7584
 Red. masses --      1.0996                 6.9936                 1.0793
 Frc consts  --      1.7699                12.4719                 5.3101
 IR Inten    --     24.0871                44.9862                73.1524

                     25                     26                     27
                      A                      A                      A
 Frequencies --   2985.6942              3451.6085              3477.2908
 Red. masses --      1.0867                 1.0760                 1.0508
 Frc consts  --      5.7077                 7.5525                 7.4859
 IR Inten    --     73.3963                 0.7681                 0.7166

                     28                     29                     30
                      A                      A                      A
 Frequencies --   3493.9802              3554.1937              3577.9987
 Red. masses --      1.0490                 1.0888                 1.0925
 Frc consts  --      7.5451                 8.1037                 8.2402
 IR Inten    --      0.9436                 3.1796                 1.2359

 - Thermochemistry -
 -------------------
 Temperature   298.150 Kelvin.  Pressure   1.00000 Atm.
 Atom     1 has atomic number  7 and mass  14.00307

 Molecular mass:    73.06400 amu.
 Principal axes and moments of inertia in atomic units:
                           1         2         3
     Eigenvalues --   213.89380 438.47078 597.97552
           X            0.99997   0.00339  -0.00634
           Y           -0.00353   0.99974  -0.02236
           Z            0.00626   0.02238   0.99973
 This molecule is an asymmetric top.
 Rotational symmetry number  1.
 Rotational temperatures (Kelvin)      0.40494     0.19754     0.14485
 Rotational constants (GHZ):           8.43756     4.11599     3.01809
 Zero-point vibrational energy     272131.9 (Joules/Mol)
                                   65.04108 (Kcal/Mol)
 Warning -- explicit consideration of   6 degrees of freedom as
           vibrations may cause significant error
 Vibrational temperatures:    143.26   301.26   364.23   420.67   538.19
          (Kelvin)            684.06   906.13  1104.30  1213.09  1347.02
                             1395.95  1436.64  1604.83  1631.87  1714.91
                             1749.01  1884.26  1984.90  2038.73  2046.52
                             2357.54  2378.08  2503.13  4157.71  4295.74
                             4966.09  5003.04  5027.05  5113.69  5147.94

 Zero-point correction=                           0.103650 (Hartree/Particle)
 Thermal correction to Energy=                    0.109797
 Thermal correction to Enthalpy=                  0.110741
 Thermal correction to Gibbs Free Energy=         0.074535
 Sum of electronic and zero-point Energies=           -244.562649
 Sum of electronic and thermal Energies=              -244.556502
 Sum of electronic and thermal Enthalpies=            -244.555558
 Sum of electronic and thermal Free Energies=         -244.591764

                     E (Thermal)             CV                S
                      KCal/Mol        Cal/Mol-Kelvin    Cal/Mol-Kelvin
 Total                   68.899             21.013             76.202
 Electronic               0.000              0.000              0.000
 Translational            0.889              2.981             38.783
 Rotational               0.889              2.981             25.531
 Vibrational             67.121             15.051             11.888
 Vibration     1          0.604              1.949              3.463
 Vibration     2          0.642              1.826              2.049
 Vibration     3          0.664              1.757              1.709
 Vibration     4          0.688              1.688              1.460
 Vibration     5          0.745              1.525              1.063
 Vibration     6          0.832              1.305              0.722

 Optimization completed.
    -- Stationary point found.
 Normal termination of Gaussian 09 at Mon Aug 22 23:26:45 2022.

 -----------------------------------------------------------------
 #P Geom=AllCheck Guess=TCheck SCRF=Check CCSD(T,E4T,FrzG4)/GTBas1
 -----------------------------------------------------------------

 Structure from the checkpoint file:  "G4.Frag_1163.chk"
 ---------
 Frag_1163
 ---------
 Charge =  0 Multiplicity = 1

 SCF Done:  E(RHF) =  -243.117008953     A.U. after   13 cycles
 E2 =    -0.7444954048D+00 EUMP2 =    -0.24386150435738D+03
 CCSD(T)
 CCSD(T)= -0.24392953042D+03
 SD=-243.9059649\CCSD(T)=-243.9295304\RMSD=6.142e-09\PG=C01 [X(C2H7N3)]
 Normal termination of Gaussian 09 at Mon Aug 22 23:28:44 2022.

 ---------------------------------------------------------
 #P Geom=AllCheck Guess=TCheck SCRF=Check MP4=FrzG4/GTBas2
 ---------------------------------------------------------

 Structure from the checkpoint file:  "G4.Frag_1163.chk"
 ---------
 Frag_1163
 ---------
 Charge =  0 Multiplicity = 1

 SCF Done:  E(RHF) =  -243.128340183     A.U. after   13 cycles
 E2 =    -0.7571554881D+00 EUMP2 =    -0.24388549567093D+03
 Normal termination of Gaussian 09 at Mon Aug 22 23:30:47 2022.

 ---------------------------------------------------------
 #P Geom=AllCheck Guess=TCheck SCRF=Check MP4=FrzG4/GTBas3
 ---------------------------------------------------------

 Structure from the checkpoint file:  "G4.Frag_1163.chk"
 ---------
 Frag_1163
 ---------
 Charge =  0 Multiplicity = 1

 SCF Done:  E(RHF) =  -243.153806126     A.U. after   11 cycles
 E2 =    -0.9055461956D+00 EUMP2 =    -0.24405935232197D+03
 Normal termination of Gaussian 09 at Tue Aug 23 00:10:06 2022.

 -----------------------------------------------------------
 #P Geom=AllCheck Guess=TCheck SCRF=Check MP2=Full/GTLargeXP
 -----------------------------------------------------------

 Structure from the checkpoint file:  "G4.Frag_1163.chk"
 ---------
 Frag_1163
 ---------
 Charge =  0 Multiplicity = 1

 SCF Done:  E(RHF) =  -243.219517549     A.U. after   12 cycles
 E2 =    -0.1184456600D+01 EUMP2 =    -0.24440397414831D+03
 Normal termination of Gaussian 09 at Tue Aug 23 00:12:46 2022.
 SCF Done:  E(RHF) =  -243.238183193     A.U. after    9 cycles
 Normal termination of Gaussian 09 at Tue Aug 23 00:16:05 2022.

                         Standard orientation:
 ---------------------------------------------------------------------
 Center     Atomic      Atomic             Coordinates (Angstroms)
 Number     Number       Type             X           Y           Z
 ---------------------------------------------------------------------
      1          7           0        1.892515    0.075179   -0.182584
      2          6           0        0.888101   -0.632334    0.126239
      3          6           0       -0.471570    0.000692    0.390714
      4          7           0       -0.604032    1.385726   -0.022450
      5          7           0       -1.482743   -0.772612   -0.330319
      6          1           0        2.727007   -0.501345   -0.306571
      7          1           0        0.922985   -1.726768    0.249368
      8          1           0       -0.609358   -0.020045    1.490883
      9          1           0        0.170324    1.913873    0.372242
     10          1           0       -0.461369    1.416225   -1.030531
     11          1           0       -2.393828   -0.374727   -0.122303
     12          1           0       -1.495128   -1.735413   -0.007332
 ---------------------------------------------------------------------

 SCF Done:  E(RHF) =  -243.242200551     A.U. after    7 cycles

 The electronic state is 1-A.
 Alpha  occ. eigenvalues --  -15.55835 -15.55137 -15.53668 -11.29443 -11.28671
 Alpha  occ. eigenvalues --   -1.24766  -1.19647  -1.12808  -0.91850  -0.77515
 Alpha  occ. eigenvalues --   -0.69779  -0.69000  -0.66458  -0.57882  -0.57198
 Alpha  occ. eigenvalues --   -0.55715  -0.44826  -0.44083  -0.41520  -0.39435
 Alpha virt. eigenvalues --    0.03385   0.04476   0.05240   0.05536   0.07207
 Alpha virt. eigenvalues --    0.07679   0.08177   0.09719   0.09974   0.12211
 Alpha virt. eigenvalues --    0.12338   0.12783   0.13255   0.13600   0.14224

 Mulliken charges:
               1
     1  N   -0.600159
     2  C    0.017264
     3  C    0.179157
     4  N   -0.687451
     5  N   -0.700498
     6  H    0.291037
     7  H    0.155565
     8  H    0.153484
     9  H    0.297986
    10  H    0.295034
    11  H    0.316628
    12  H    0.281953
 Sum of Mulliken charges =  -0.00000

 Dipole moment (field-independent basis, Debye):
    X=              0.2311    Y=             -2.4983    Z=              1.2671  Tot=              2.8107
 Quadrupole moment (field-independent basis, Debye-Ang):
   XX=            -30.3633   YY=            -29.8129   ZZ=            -32.5857
   XY=             -0.1855   XZ=             -1.2535   YZ=             -1.8599

 Normal termination of Gaussian 09 at Tue Aug 23 01:36:36 2022.
