 Gaussian 09, Revision E.01,
 Gaussian 09:  ES64L-G09RevE.01 30-Nov-2015

 -----
 #P G4
 -----

 --------
 Frag_662
 --------
 Symbolic Z-matrix:
 Charge =  0 Multiplicity = 1

 SCF Done:  E(RB3LYP) =  -339.743333101     A.U. after   14 cycles
 SCF Done:  E(RB3LYP) =  -339.760409940     A.U. after   12 cycles
 SCF Done:  E(RB3LYP) =  -339.761220139     A.U. after   11 cycles
 SCF Done:  E(RB3LYP) =  -339.761716246     A.U. after   11 cycles
 SCF Done:  E(RB3LYP) =  -339.761607486     A.U. after   12 cycles
 SCF Done:  E(RB3LYP) =  -339.762138231     A.U. after   10 cycles
 SCF Done:  E(RB3LYP) =  -339.762642352     A.U. after   11 cycles
 SCF Done:  E(RB3LYP) =  -339.763210829     A.U. after   11 cycles
 SCF Done:  E(RB3LYP) =  -339.763551198     A.U. after   12 cycles
 SCF Done:  E(RB3LYP) =  -339.763760992     A.U. after   11 cycles
 SCF Done:  E(RB3LYP) =  -339.766895328     A.U. after    9 cycles
 SCF Done:  E(RB3LYP) =  -339.766897410     A.U. after    8 cycles
 SCF Done:  E(RB3LYP) =  -339.766897560     A.U. after    7 cycles
 Optimization completed.
    -- Stationary point found.
 Normal termination of Gaussian 09 at Fri Aug 26 10:50:41 2022.

 ----------------------------------------------------------
 #P Geom=AllCheck Guess=TCheck SCRF=Check B3LYP/GTBas3 Freq
 ----------------------------------------------------------

 Structure from the checkpoint file:  "G4.Frag_662.chk"
 --------
 Frag_662
 --------
 Charge =  0 Multiplicity = 1

 SCF Done:  E(RB3LYP) =  -339.766897560     A.U. after    1 cycles

  Exact polarizability:  52.147   0.731  49.778  -1.425   0.629  30.332
 Approx polarizability:  67.616  -4.598  78.852  -2.434   0.604  45.287

                      1                      2                      3
                      A                      A                      A
 Frequencies --    120.7214               162.1312               255.0490
 Red. masses --      4.2941                 1.1949                 2.4508
 Frc consts  --      0.0369                 0.0185                 0.0939
 IR Inten    --      5.1057                 0.1322                 3.8110

                      4                      5                      6
                      A                      A                      A
 Frequencies --    315.9230               366.3485               409.8279
 Red. masses --      3.7216                 1.1732                 4.0751
 Frc consts  --      0.2188                 0.0928                 0.4033
 IR Inten    --      6.3713                51.4149                 4.3618

                      7                      8                      9
                      A                      A                      A
 Frequencies --    472.2751               512.9952               556.0319
 Red. masses --      1.2480                 2.0005                 1.7590
 Frc consts  --      0.1640                 0.3102                 0.3204
 IR Inten    --    275.0054                 7.9357                 1.9280

                     10                     11                     12
                      A                      A                      A
 Frequencies --    588.3943               756.5264               778.0067
 Red. masses --      2.7531                 4.5762                 8.0492
 Frc consts  --      0.5616                 1.5431                 2.8706
 IR Inten    --     19.3949                33.3384                23.7856

                     13                     14                     15
                      A                      A                      A
 Frequencies --    983.4026              1089.5690              1151.1332
 Red. masses --      2.4977                 1.9912                 1.8416
 Frc consts  --      1.4232                 1.3927                 1.4378
 IR Inten    --     14.4439                 8.4849                36.9089

                     16                     17                     18
                      A                      A                      A
 Frequencies --   1171.7053              1239.7899              1381.3349
 Red. masses --      2.1010                 2.3178                 1.3687
 Frc consts  --      1.6995                 2.0991                 1.5387
 IR Inten    --     27.9090                 9.6808                72.6390

                     19                     20                     21
                      A                      A                      A
 Frequencies --   1408.5810              1435.7883              1484.5686
 Red. masses --      1.7372                 1.4022                 1.0475
 Frc consts  --      2.0307                 1.7031                 1.3602
 IR Inten    --    134.8796                69.1840                12.6584

                     22                     23                     24
                      A                      A                      A
 Frequencies --   1515.7421              1593.8307              1802.3429
 Red. masses --      1.1021                 1.2712                 9.3170
 Frc consts  --      1.4918                 1.9026                17.8321
 IR Inten    --      7.5200               161.0660               295.9313

                     25                     26                     27
                      A                      A                      A
 Frequencies --   3023.5311              3097.6647              3171.6560
 Red. masses --      1.0430                 1.0966                 1.0980
 Frc consts  --      5.6180                 6.1998                 6.5077
 IR Inten    --     46.5351                29.8634                 1.0255

                     28                     29                     30
                      A                      A                      A
 Frequencies --   3602.8242              3730.8451              3769.1457
 Red. masses --      1.0444                 1.1026                 1.0684
 Frc consts  --      7.9873                 9.0421                 8.9423
 IR Inten    --     30.9775                56.1501                41.3638

 - Thermochemistry -
 -------------------
 Temperature   298.150 Kelvin.  Pressure   1.00000 Atm.
 Atom     1 has atomic number  6 and mass  12.00000

 Molecular mass:    90.04293 amu.
 Principal axes and moments of inertia in atomic units:
                           1         2         3
     Eigenvalues --   346.48437 493.73160 811.59060
           X            0.98563   0.16872  -0.00779
           Y           -0.16863   0.98562   0.01093
           Z            0.00952  -0.00946   0.99991
 This molecule is an asymmetric top.
 Rotational symmetry number  1.
 Rotational temperatures (Kelvin)      0.24998     0.17543     0.10672
 Rotational constants (GHZ):           5.20872     3.65531     2.22371
 Zero-point vibrational energy     250902.9 (Joules/Mol)
                                   59.96723 (Kcal/Mol)
 Warning -- explicit consideration of  10 degrees of freedom as
           vibrations may cause significant error
 Vibrational temperatures:    173.69   233.27   366.96   454.54   527.09
          (Kelvin)            589.65   679.50   738.08   800.00   846.57
                             1088.47  1119.38  1414.90  1567.64  1656.22
                             1685.82  1783.78  1987.43  2026.63  2065.78
                             2135.96  2180.81  2293.16  2593.17  4350.18
                             4456.84  4563.30  5183.65  5367.85  5422.95

 Zero-point correction=                           0.095564 (Hartree/Particle)
 Thermal correction to Energy=                    0.102382
 Thermal correction to Enthalpy=                  0.103327
 Thermal correction to Gibbs Free Energy=         0.065451
 Sum of electronic and zero-point Energies=           -339.671334
 Sum of electronic and thermal Energies=              -339.664515
 Sum of electronic and thermal Enthalpies=            -339.663571
 Sum of electronic and thermal Free Energies=         -339.701446

                     E (Thermal)             CV                S
                      KCal/Mol        Cal/Mol-Kelvin    Cal/Mol-Kelvin
 Total                   64.246             24.165             79.715
 Electronic               0.000              0.000              0.000
 Translational            0.889              2.981             39.405
 Rotational               0.889              2.981             26.432
 Vibrational             62.468             18.204             13.878
 Vibration     1          0.609              1.932              3.089
 Vibration     2          0.622              1.889              2.525
 Vibration     3          0.665              1.754              1.695
 Vibration     4          0.703              1.643              1.331
 Vibration     5          0.739              1.541              1.095
 Vibration     6          0.774              1.449              0.927
 Vibration     7          0.829              1.312              0.731
 Vibration     8          0.868              1.221              0.626
 Vibration     9          0.912              1.127              0.532
 Vibration    10          0.946              1.057              0.470

 Optimization completed.
    -- Stationary point found.
 Normal termination of Gaussian 09 at Fri Aug 26 10:51:08 2022.

 -----------------------------------------------------------------
 #P Geom=AllCheck Guess=TCheck SCRF=Check CCSD(T,E4T,FrzG4)/GTBas1
 -----------------------------------------------------------------

 Structure from the checkpoint file:  "G4.Frag_662.chk"
 --------
 Frag_662
 --------
 Charge =  0 Multiplicity = 1

 SCF Done:  E(RHF) =  -337.807281649     A.U. after   13 cycles
 E2 =    -0.9359948906D+00 EUMP2 =    -0.33874327653986D+03
 CCSD(T)
 CCSD(T)= -0.33880729239D+03
 =-338.7780597\CCSD(T)=-338.8072924\RMSD=5.431e-09\PG=C01 [X(C2H6N2O2)]
 Normal termination of Gaussian 09 at Fri Aug 26 10:52:55 2022.

 ---------------------------------------------------------
 #P Geom=AllCheck Guess=TCheck SCRF=Check MP4=FrzG4/GTBas2
 ---------------------------------------------------------

 Structure from the checkpoint file:  "G4.Frag_662.chk"
 --------
 Frag_662
 --------
 Charge =  0 Multiplicity = 1

 SCF Done:  E(RHF) =  -337.818747028     A.U. after   12 cycles
 E2 =    -0.9521810700D+00 EUMP2 =    -0.33877092809800D+03
 Normal termination of Gaussian 09 at Fri Aug 26 10:53:28 2022.

 ---------------------------------------------------------
 #P Geom=AllCheck Guess=TCheck SCRF=Check MP4=FrzG4/GTBas3
 ---------------------------------------------------------

 Structure from the checkpoint file:  "G4.Frag_662.chk"
 --------
 Frag_662
 --------
 Charge =  0 Multiplicity = 1

 SCF Done:  E(RHF) =  -337.850186217     A.U. after   12 cycles
 E2 =    -0.1145097135D+01 EUMP2 =    -0.33899528335130D+03
 Normal termination of Gaussian 09 at Fri Aug 26 10:56:15 2022.

 -----------------------------------------------------------
 #P Geom=AllCheck Guess=TCheck SCRF=Check MP2=Full/GTLargeXP
 -----------------------------------------------------------

 Structure from the checkpoint file:  "G4.Frag_662.chk"
 --------
 Frag_662
 --------
 Charge =  0 Multiplicity = 1

 SCF Done:  E(RHF) =  -337.943748752     A.U. after   12 cycles
 E2 =    -0.1493314646D+01 EUMP2 =    -0.33943706339818D+03
 Normal termination of Gaussian 09 at Fri Aug 26 10:57:46 2022.
 SCF Done:  E(RHF) =  -337.970567905     A.U. after    9 cycles
 Normal termination of Gaussian 09 at Fri Aug 26 10:59:14 2022.

                         Standard orientation:
 ---------------------------------------------------------------------
 Center     Atomic      Atomic             Coordinates (Angstroms)
 Number     Number       Type             X           Y           Z
 ---------------------------------------------------------------------
      1          6           0       -1.611294   -0.887571   -0.141044
      2          7           0       -0.600549    0.068929    0.278995
      3          8           0       -0.949588    1.393018   -0.100287
      4          6           0        0.748918   -0.254986    0.053174
      5          7           0        1.582025    0.829474   -0.042532
      6          8           0        1.123703   -1.411798    0.043685
      7          1           0       -2.520356   -0.740632    0.447995
      8          1           0       -1.209142   -1.882655    0.043888
      9          1           0       -1.851616   -0.779356   -1.206350
     10          1           0       -1.203935    1.810643    0.732306
     11          1           0        1.181439    1.701967   -0.344769
     12          1           0        2.514615    0.606799   -0.348273
 ---------------------------------------------------------------------

 SCF Done:  E(RHF) =  -337.976332656     A.U. after    8 cycles

 The electronic state is 1-A.
 Alpha  occ. eigenvalues --  -20.62095 -20.51602 -15.63772 -15.58048 -11.38030
 Alpha  occ. eigenvalues --  -11.25975  -1.45055  -1.38459  -1.21580  -1.15762
 Alpha  occ. eigenvalues --   -0.94873  -0.79112  -0.75149  -0.73580  -0.69023
 Alpha  occ. eigenvalues --   -0.63558  -0.61382  -0.59959  -0.57207  -0.55365
 Alpha  occ. eigenvalues --   -0.52895  -0.44901  -0.42461  -0.40231
 Alpha virt. eigenvalues --    0.03777   0.04149   0.04944   0.05740   0.07032
 Alpha virt. eigenvalues --    0.07377   0.07806   0.09199   0.10585   0.11572
 Alpha virt. eigenvalues --    0.11749   0.13065   0.14950   0.15428   0.16034

 Mulliken charges:
               1
     1  C   -0.438869
     2  N   -0.031272
     3  O   -0.524210
     4  C    0.661147
     5  N   -0.707338
     6  O   -0.651822
     7  H    0.166419
     8  H    0.242875
     9  H    0.176528
    10  H    0.410942
    11  H    0.346698
    12  H    0.348902
 Sum of Mulliken charges =  -0.00000

 Dipole moment (field-independent basis, Debye):
    X=             -1.4277    Y=              3.1954    Z=             -0.0651  Tot=              3.5004
 Quadrupole moment (field-independent basis, Debye-Ang):
   XX=            -31.7618   YY=            -36.5157   ZZ=            -35.8037
   XY=              5.2385   XZ=             -3.6335   YZ=              1.8374

 Normal termination of Gaussian 09 at Fri Aug 26 11:05:12 2022.
