 Gaussian 09, Revision E.01,
 Gaussian 09:  ES64L-G09RevE.01 30-Nov-2015

 -----
 #P G4
 -----

 --------
 Frag_818
 --------
 Symbolic Z-matrix:
 Charge =  0 Multiplicity = 1

 SCF Done:  E(RB3LYP) =  -304.296462636     A.U. after   14 cycles
 SCF Done:  E(RB3LYP) =  -304.327388285     A.U. after   12 cycles
 SCF Done:  E(RB3LYP) =  -304.331241214     A.U. after   11 cycles
 SCF Done:  E(RB3LYP) =  -304.331389261     A.U. after    9 cycles
 SCF Done:  E(RB3LYP) =  -304.331399613     A.U. after    8 cycles
 SCF Done:  E(RB3LYP) =  -304.331370276     A.U. after    9 cycles
 SCF Done:  E(RB3LYP) =  -304.331401490     A.U. after    9 cycles
 Optimization completed.
    -- Stationary point found.
 Normal termination of Gaussian 09 at Fri Aug 26 11:05:56 2022.

 ----------------------------------------------------------
 #P Geom=AllCheck Guess=TCheck SCRF=Check B3LYP/GTBas3 Freq
 ----------------------------------------------------------

 Structure from the checkpoint file:  "G4.Frag_818.chk"
 --------
 Frag_818
 --------
 Charge =  0 Multiplicity = 1

 SCF Done:  E(RB3LYP) =  -304.331401490     A.U. after    1 cycles

  Exact polarizability:  41.069  -0.713  31.308  -0.000   0.000  23.174
 Approx polarizability:  50.026  -0.664  52.457  -0.000   0.000  32.767

                      1                      2                      3
                      A                      A                      A
 Frequencies --    109.5444               176.1241               295.2605
 Red. masses --      1.1216                 3.4665                 3.7400
 Frc consts  --      0.0079                 0.0634                 0.1921
 IR Inten    --      0.2876                 5.9477                 9.8784

                      4                      5                      6
                      A                      A                      A
 Frequencies --    526.2391               559.6204               667.0549
 Red. masses --      5.1638                 1.0971                 5.8676
 Frc consts  --      0.8425                 0.2024                 1.5383
 IR Inten    --     39.2363                96.0826                 2.1055

                      7                      8                      9
                      A                      A                      A
 Frequencies --    803.5016               914.7808              1105.8484
 Red. masses --     11.3766                 4.1838                 6.6702
 Frc consts  --      4.3275                 2.0628                 4.8060
 IR Inten    --     37.5020                13.5876                 5.4908

                     10                     11                     12
                      A                      A                      A
 Frequencies --   1184.0646              1213.1902              1224.7323
 Red. masses --      1.2731                 1.8894                 1.7015
 Frc consts  --      1.0516                 1.6384                 1.5037
 IR Inten    --      1.2825               399.6187                85.5377

                     13                     14                     15
                      A                      A                      A
 Frequencies --   1411.8632              1483.4712              1486.2672
 Red. masses --      1.9656                 1.0464                 1.3059
 Frc consts  --      2.3084                 1.3568                 1.6997
 IR Inten    --    167.0057                 6.5919                70.9573

                     16                     17                     18
                      A                      A                      A
 Frequencies --   1501.3676              1844.5335              3054.4914
 Red. masses --      1.1216                 9.7774                 1.0300
 Frc consts  --      1.4896                19.5996                 5.6620
 IR Inten    --      9.1598               344.9721                24.9922

                     19                     20                     21
                      A                      A                      A
 Frequencies --   3130.7417              3163.7458              3805.2338
 Red. masses --      1.1061                 1.1058                 1.0647
 Frc consts  --      6.3878                 6.5215                 9.0830
 IR Inten    --     18.4083                13.9080                84.8202

 - Thermochemistry -
 -------------------
 Temperature   298.150 Kelvin.  Pressure   1.00000 Atm.
 Atom     1 has atomic number  6 and mass  12.00000

 Molecular mass:    76.01604 amu.
 Principal axes and moments of inertia in atomic units:
                           1         2         3
     Eigenvalues --   162.12611 407.41455 558.15240
           X            0.99999   0.00454  -0.00000
           Y           -0.00454   0.99999  -0.00000
           Z            0.00000   0.00000   1.00000
 This molecule is an asymmetric top.
 Rotational symmetry number  1.
 Rotational temperatures (Kelvin)      0.53424     0.21259     0.15518
 Rotational constants (GHZ):          11.13171     4.42974     3.23342
 Zero-point vibrational energy     177416.2 (Joules/Mol)
                                   42.40350 (Kcal/Mol)
 Warning -- explicit consideration of   5 degrees of freedom as
           vibrations may cause significant error
 Vibrational temperatures:    157.61   253.40   424.81   757.14   805.17
          (Kelvin)            959.74  1156.06  1316.16  1591.07  1703.60
                             1745.51  1762.11  2031.35  2134.38  2138.40
                             2160.13  2653.87  4394.73  4504.43  4551.92
                             5474.88

 Zero-point correction=                           0.067574 (Hartree/Particle)
 Thermal correction to Energy=                    0.072890
 Thermal correction to Enthalpy=                  0.073834
 Thermal correction to Gibbs Free Energy=         0.039079
 Sum of electronic and zero-point Energies=           -304.263827
 Sum of electronic and thermal Energies=              -304.258512
 Sum of electronic and thermal Enthalpies=            -304.257568
 Sum of electronic and thermal Free Energies=         -304.292322

                     E (Thermal)             CV                S
                      KCal/Mol        Cal/Mol-Kelvin    Cal/Mol-Kelvin
 Total                   45.739             17.019             73.147
 Electronic               0.000              0.000              0.000
 Translational            0.889              2.981             38.901
 Rotational               0.889              2.981             25.114
 Vibrational             43.961             11.057              9.132
 Vibration     1          0.606              1.942              3.277
 Vibration     2          0.628              1.872              2.369
 Vibration     3          0.689              1.683              1.444
 Vibration     4          0.881              1.192              0.596
 Vibration     5          0.915              1.119              0.525

 Optimization completed.
    -- Stationary point found.
 Normal termination of Gaussian 09 at Fri Aug 26 11:06:13 2022.

 -----------------------------------------------------------------
 #P Geom=AllCheck Guess=TCheck SCRF=Check CCSD(T,E4T,FrzG4)/GTBas1
 -----------------------------------------------------------------

 Structure from the checkpoint file:  "G4.Frag_818.chk"
 --------
 Frag_818
 --------
 Charge =  0 Multiplicity = 1

 SCF Done:  E(RHF) =  -302.671279880     A.U. after   13 cycles
 E2 =    -0.7819265708D+00 EUMP2 =    -0.30345320645038D+03
 CCSD(T)
 CCSD(T)= -0.30349894842D+03
 CSD=-303.4758166\CCSD(T)=-303.4989484\RMSD=3.431e-09\PG=C01 [X(C2H4O3)
 Normal termination of Gaussian 09 at Fri Aug 26 11:07:01 2022.

 ---------------------------------------------------------
 #P Geom=AllCheck Guess=TCheck SCRF=Check MP4=FrzG4/GTBas2
 ---------------------------------------------------------

 Structure from the checkpoint file:  "G4.Frag_818.chk"
 --------
 Frag_818
 --------
 Charge =  0 Multiplicity = 1

 SCF Done:  E(RHF) =  -302.679620910     A.U. after   12 cycles
 E2 =    -0.7940243377D+00 EUMP2 =    -0.30347364524732D+03
 Normal termination of Gaussian 09 at Fri Aug 26 11:07:15 2022.

 ---------------------------------------------------------
 #P Geom=AllCheck Guess=TCheck SCRF=Check MP4=FrzG4/GTBas3
 ---------------------------------------------------------

 Structure from the checkpoint file:  "G4.Frag_818.chk"
 --------
 Frag_818
 --------
 Charge =  0 Multiplicity = 1

 SCF Done:  E(RHF) =  -302.707375254     A.U. after   12 cycles
 E2 =    -0.9651860782D+00 EUMP2 =    -0.30367256133173D+03
 Normal termination of Gaussian 09 at Fri Aug 26 11:08:16 2022.

 -----------------------------------------------------------
 #P Geom=AllCheck Guess=TCheck SCRF=Check MP2=Full/GTLargeXP
 -----------------------------------------------------------

 Structure from the checkpoint file:  "G4.Frag_818.chk"
 --------
 Frag_818
 --------
 Charge =  0 Multiplicity = 1

 SCF Done:  E(RHF) =  -302.793178386     A.U. after   12 cycles
 E2 =    -0.1259375924D+01 EUMP2 =    -0.30405255431019D+03
 Normal termination of Gaussian 09 at Fri Aug 26 11:08:50 2022.
 SCF Done:  E(RHF) =  -302.817840552     A.U. after    9 cycles
 Normal termination of Gaussian 09 at Fri Aug 26 11:09:31 2022.

                         Standard orientation:
 ---------------------------------------------------------------------
 Center     Atomic      Atomic             Coordinates (Angstroms)
 Number     Number       Type             X           Y           Z
 ---------------------------------------------------------------------
      1          6           0        1.829926   -0.034013    0.000003
      2          8           0        0.567387   -0.712032   -0.000003
      3          6           0       -0.494704    0.094629   -0.000009
      4          8           0       -0.481196    1.298908    0.000001
      5          8           0       -1.600145   -0.670971    0.000003
      6          1           0        1.930645    0.592715   -0.889420
      7          1           0        2.583674   -0.820992    0.000011
      8          1           0        1.930633    0.592722    0.889422
      9          1           0       -2.344649   -0.055382    0.000012
 ---------------------------------------------------------------------

 SCF Done:  E(RHF) =  -302.823159955     A.U. after    7 cycles

 The electronic state is 1-A.
 Alpha  occ. eigenvalues --  -20.62161 -20.61701 -20.55180 -11.43950 -11.29546
 Alpha  occ. eigenvalues --   -1.51555  -1.40912  -1.37376  -0.99158  -0.83678
 Alpha  occ. eigenvalues --   -0.75466  -0.72088  -0.70447  -0.63482  -0.61736
 Alpha  occ. eigenvalues --   -0.61230  -0.54598  -0.51112  -0.48231  -0.48100
 Alpha virt. eigenvalues --    0.03801   0.04430   0.05240   0.05771   0.07513
 Alpha virt. eigenvalues --    0.07613   0.07740   0.12560   0.13617   0.14167
 Alpha virt. eigenvalues --    0.14291   0.15040   0.16611   0.16842   0.17674

 Mulliken charges:
               1
     1  C   -0.336892
     2  O   -0.294861
     3  C    0.766528
     4  O   -0.610956
     5  O   -0.517636
     6  H    0.193961
     7  H    0.195725
     8  H    0.193962
     9  H    0.410170
 Sum of Mulliken charges =  -0.00000

 Dipole moment (field-independent basis, Debye):
    X=              0.6399    Y=             -0.3568    Z=             -0.0000  Tot=              0.7326
 Quadrupole moment (field-independent basis, Debye-Ang):
   XX=            -19.7144   YY=            -35.4566   ZZ=            -28.1981
   XY=             -0.5300   XZ=             -0.0000   YZ=              0.0000

 Normal termination of Gaussian 09 at Fri Aug 26 11:13:02 2022.
