 Gaussian 09, Revision E.01,
 Gaussian 09:  ES64L-G09RevE.01 30-Nov-2015

 -----
 #P G4
 -----

 --------
 Frag_933
 --------
 Symbolic Z-matrix:
 Charge =  0 Multiplicity = 1

 SCF Done:  E(RB3LYP) =  -303.764081160     A.U. after   15 cycles
 SCF Done:  E(RB3LYP) =  -303.782768324     A.U. after   13 cycles
 SCF Done:  E(RB3LYP) =  -303.784383206     A.U. after   12 cycles
 SCF Done:  E(RB3LYP) =  -303.784566145     A.U. after   11 cycles
 SCF Done:  E(RB3LYP) =  -303.784583484     A.U. after    9 cycles
 SCF Done:  E(RB3LYP) =  -303.784585549     A.U. after    8 cycles
 SCF Done:  E(RB3LYP) =  -303.717149290     A.U. after   15 cycles
 SCF Done:  E(RB3LYP) =  -303.784585554     A.U. after    7 cycles
 SCF Done:  E(RB3LYP) =  -303.789716063     A.U. after   13 cycles
 SCF Done:  E(RB3LYP) =  -303.736946042     A.U. after   13 cycles
 SCF Done:  E(RB3LYP) =  -303.795408394     A.U. after    9 cycles
 SCF Done:  E(RB3LYP) =  -303.795409228     A.U. after    9 cycles
 SCF Done:  E(RB3LYP) =  -303.795409305     A.U. after    7 cycles
 Optimization completed.
    -- Stationary point found.
 Normal termination of Gaussian 09 at Tue Aug 23 14:06:34 2022.

 ----------------------------------------------------------
 #P Geom=AllCheck Guess=TCheck SCRF=Check B3LYP/GTBas3 Freq
 ----------------------------------------------------------

 Structure from the checkpoint file:  "G4.Frag_933.chk"
 --------
 Frag_933
 --------
 Charge =  0 Multiplicity = 1

 SCF Done:  E(RB3LYP) =  -303.795409305     A.U. after    1 cycles

  Exact polarizability:  71.254   2.874  57.993   0.071  -1.873  37.094
 Approx polarizability: 113.765  18.067  89.433  -1.377  -3.251  55.554

                      1                      2                      3
                      A                      A                      A
 Frequencies --     75.8074                99.2369               184.8124
 Red. masses --      1.0691                 1.0625                 2.8526
 Frc consts  --      0.0036                 0.0062                 0.0574
 IR Inten    --      1.6258                 6.2530                 3.1343

                      4                      5                      6
                      A                      A                      A
 Frequencies --    189.7316               291.8690               305.3882
 Red. masses --      1.1635                 2.9377                 3.0858
 Frc consts  --      0.0247                 0.1474                 0.1696
 IR Inten    --     26.2921                 5.5449                 0.7861

                      7                      8                      9
                      A                      A                      A
 Frequencies --    370.9878               521.6959               582.7395
 Red. masses --      2.2859                 3.6125                 5.7875
 Frc consts  --      0.1854                 0.5793                 1.1580
 IR Inten    --      2.9852                16.1425                 7.5595

                     10                     11                     12
                      A                      A                      A
 Frequencies --    630.7190               736.9843               912.5707
 Red. masses --      4.6944                 4.7433                 2.4445
 Frc consts  --      1.1003                 1.5179                 1.1994
 IR Inten    --     14.2493                 2.0925                94.6462

                     13                     14                     15
                      A                      A                      A
 Frequencies --    987.3786               995.9061              1016.7492
 Red. masses --      1.3466                 1.2699                 1.4136
 Frc consts  --      0.7735                 0.7421                 0.8610
 IR Inten    --     16.6192                 4.7825                58.2434

                     16                     17                     18
                      A                      A                      A
 Frequencies --   1090.8788              1168.6566              1244.8109
 Red. masses --      1.5452                 1.9169                 2.1437
 Frc consts  --      1.0834                 1.5425                 1.9572
 IR Inten    --      1.6518                16.0508               114.0983

                     19                     20                     21
                      A                      A                      A
 Frequencies --   1305.9647              1371.9755              1412.6556
 Red. masses --      2.9377                 1.9681                 1.3757
 Frc consts  --      2.9521                 2.1827                 1.6175
 IR Inten    --      8.5121                33.2804                 1.3801

                     22                     23                     24
                      A                      A                      A
 Frequencies --   1417.5385              1465.2883              1481.8051
 Red. masses --      1.4117                 1.0555                 1.0802
 Frc consts  --      1.6713                 1.3353                 1.3975
 IR Inten    --      0.1392                 5.8779                 1.2690

                     25                     26                     27
                      A                      A                      A
 Frequencies --   1484.4522              1495.7002              1616.5144
 Red. masses --      1.0490                 1.0834                 1.2662
 Frc consts  --      1.3619                 1.4280                 1.9494
 IR Inten    --      9.0620                 4.0777                58.8047

                     28                     29                     30
                      A                      A                      A
 Frequencies --   1725.9960              3003.7454              3025.9165
 Red. masses --      3.3478                 1.0512                 1.0408
 Frc consts  --      5.8762                 5.5881                 5.6145
 IR Inten    --     66.3586                33.1332                17.1878

                     31                     32                     33
                      A                      A                      A
 Frequencies --   3066.5592              3080.3554              3127.3684
 Red. masses --      1.0861                 1.0932                 1.1022
 Frc consts  --      6.0178                 6.1114                 6.3512
 IR Inten    --     18.8290                10.2034                11.4143

                     34                     35                     36
                      A                      A                      A
 Frequencies --   3140.0896              3461.7792              3558.7394
 Red. masses --      1.0970                 1.0490                 1.0930
 Frc consts  --      6.3730                 7.4065                 8.1560
 IR Inten    --      4.1876                 7.9404                20.4501

 - Thermochemistry -
 -------------------
 Temperature   298.150 Kelvin.  Pressure   1.00000 Atm.
 Atom     1 has atomic number  6 and mass  12.00000

 Molecular mass:    88.06366 amu.
 Principal axes and moments of inertia in atomic units:
                           1         2         3
     Eigenvalues --   374.07289 506.11586 851.14404
           X            0.99641  -0.08440   0.00702
           Y            0.08445   0.99640  -0.00675
           Z           -0.00643   0.00731   0.99995
 This molecule is an asymmetric top.
 Rotational symmetry number  1.
 Rotational temperatures (Kelvin)      0.23154     0.17113     0.10176
 Rotational constants (GHZ):           4.82457     3.56587     2.12037
 Zero-point vibrational energy     308931.8 (Joules/Mol)
                                   73.83648 (Kcal/Mol)
 Warning -- explicit consideration of   9 degrees of freedom as
           vibrations may cause significant error
 Vibrational temperatures:    109.07   142.78   265.90   272.98   419.93
          (Kelvin)            439.38   533.77   750.60   838.43   907.46
                             1060.35  1312.98  1420.62  1432.88  1462.87
                             1569.53  1681.43  1791.00  1878.99  1973.96
                             2032.49  2039.52  2108.22  2131.98  2135.79
                             2151.98  2325.80  2483.32  4321.71  4353.61
                             4412.09  4431.94  4499.58  4517.88  4980.72
                             5120.23

 Zero-point correction=                           0.117666 (Hartree/Particle)
 Thermal correction to Energy=                    0.125262
 Thermal correction to Enthalpy=                  0.126206
 Thermal correction to Gibbs Free Energy=         0.086165
 Sum of electronic and zero-point Energies=           -303.677743
 Sum of electronic and thermal Energies=              -303.670147
 Sum of electronic and thermal Enthalpies=            -303.669203
 Sum of electronic and thermal Free Energies=         -303.709245

                     E (Thermal)             CV                S
                      KCal/Mol        Cal/Mol-Kelvin    Cal/Mol-Kelvin
 Total                   78.603             25.646             84.275
 Electronic               0.000              0.000              0.000
 Translational            0.889              2.981             39.339
 Rotational               0.889              2.981             26.580
 Vibrational             76.826             19.684             18.356
 Vibration     1          0.599              1.965              3.997
 Vibration     2          0.604              1.950              3.469
 Vibration     3          0.631              1.861              2.279
 Vibration     4          0.633              1.854              2.230
 Vibration     5          0.687              1.689              1.463
 Vibration     6          0.696              1.663              1.387
 Vibration     7          0.743              1.532              1.076
 Vibration     8          0.877              1.202              0.606
 Vibration     9          0.940              1.069              0.480

 Optimization completed.
    -- Stationary point found.
 Normal termination of Gaussian 09 at Tue Aug 23 14:08:53 2022.

 -----------------------------------------------------------------
 #P Geom=AllCheck Guess=TCheck SCRF=Check CCSD(T,E4T,FrzG4)/GTBas1
 -----------------------------------------------------------------

 Structure from the checkpoint file:  "G4.Frag_933.chk"
 --------
 Frag_933
 --------
 Charge =  0 Multiplicity = 1

 SCF Done:  E(RHF) =  -301.894193300     A.U. after   14 cycles
 E2 =    -0.9153019174D+00 EUMP2 =    -0.30280949521724D+03
 CCSD(T)
 CCSD(T)= -0.30288571491D+03
 1\MP4SDQ=-302.8535812\CCSD=-302.8518256\CCSD(T)=-302.8857149\RMSD=3.60
 Normal termination of Gaussian 09 at Tue Aug 23 14:15:32 2022.

 ---------------------------------------------------------
 #P Geom=AllCheck Guess=TCheck SCRF=Check MP4=FrzG4/GTBas2
 ---------------------------------------------------------

 Structure from the checkpoint file:  "G4.Frag_933.chk"
 --------
 Frag_933
 --------
 Charge =  0 Multiplicity = 1

 SCF Done:  E(RHF) =  -301.905702508     A.U. after   14 cycles
 E2 =    -0.9278990885D+00 EUMP2 =    -0.30283360159616D+03
 Normal termination of Gaussian 09 at Tue Aug 23 14:21:43 2022.

 ---------------------------------------------------------
 #P Geom=AllCheck Guess=TCheck SCRF=Check MP4=FrzG4/GTBas3
 ---------------------------------------------------------

 Structure from the checkpoint file:  "G4.Frag_933.chk"
 --------
 Frag_933
 --------
 Charge =  0 Multiplicity = 1

 SCF Done:  E(RHF) =  -301.932964637     A.U. after   13 cycles
 E2 =    -0.1116133629D+01 EUMP2 =    -0.30304909826637D+03
 Normal termination of Gaussian 09 at Tue Aug 23 16:51:39 2022.

 -----------------------------------------------------------
 #P Geom=AllCheck Guess=TCheck SCRF=Check MP2=Full/GTLargeXP
 -----------------------------------------------------------

 Structure from the checkpoint file:  "G4.Frag_933.chk"
 --------
 Frag_933
 --------
 Charge =  0 Multiplicity = 1

 SCF Done:  E(RHF) =  -302.011215829     A.U. after   13 cycles
 E2 =    -0.1452522078D+01 EUMP2 =    -0.30346373790633D+03
 Normal termination of Gaussian 09 at Tue Aug 23 16:57:25 2022.
 SCF Done:  E(RHF) =  -302.035671090     A.U. after   10 cycles
 Normal termination of Gaussian 09 at Tue Aug 23 17:03:51 2022.

                         Standard orientation:
 ---------------------------------------------------------------------
 Center     Atomic      Atomic             Coordinates (Angstroms)
 Number     Number       Type             X           Y           Z
 ---------------------------------------------------------------------
      1          6           0        1.169847    1.463161    0.054774
      2          6           0        0.629242    0.068967    0.004994
      3          6           0        1.521626   -1.130183   -0.054753
      4          7           0       -0.655714   -0.176699    0.016385
      5          7           0       -1.575315    0.930740    0.035344
      6          8           0       -1.183874   -1.326422    0.042592
      7          1           0        0.434184    2.161804    0.455924
      8          1           0        2.064076    1.492034    0.686830
      9          1           0        1.477598    1.822996   -0.937854
     10          1           0        1.171088   -1.831949   -0.818355
     11          1           0        2.550872   -0.834179   -0.269938
     12          1           0        1.507196   -1.681753    0.893970
     13          1           0       -1.575753    1.340891   -0.897461
     14          1           0       -2.465353    0.451573    0.153962
 ---------------------------------------------------------------------

 SCF Done:  E(RHF) =  -302.040733608     A.U. after    8 cycles

 The electronic state is 1-A.
 Alpha  occ. eigenvalues --  -20.50216 -15.72989 -15.60631 -11.29426 -11.24610
 Alpha  occ. eigenvalues --  -11.23195  -1.45922  -1.21855  -1.13389  -0.98410
 Alpha  occ. eigenvalues --   -0.96496  -0.77232  -0.70613  -0.68081  -0.66803
 Alpha  occ. eigenvalues --   -0.62013  -0.57270  -0.57149  -0.55908  -0.55404
 Alpha  occ. eigenvalues --   -0.52252  -0.47390  -0.41013  -0.32316
 Alpha virt. eigenvalues --    0.03226   0.04030   0.04838   0.05400   0.06752
 Alpha virt. eigenvalues --    0.07486   0.07578   0.07926   0.08255   0.10443
 Alpha virt. eigenvalues --    0.10521   0.11609   0.12365   0.12732   0.13820

 Mulliken charges:
               1
     1  C   -0.571132
     2  C    0.194592
     3  C   -0.525479
     4  N    0.363451
     5  N   -0.628993
     6  O   -0.689353
     7  H    0.224636
     8  H    0.189971
     9  H    0.187768
    10  H    0.214953
    11  H    0.170351
    12  H    0.194747
    13  H    0.321362
    14  H    0.353125
 Sum of Mulliken charges =  -0.00000

 Dipole moment (field-independent basis, Debye):
    X=              2.0639    Y=              3.2852    Z=             -1.1852  Tot=              4.0567
 Quadrupole moment (field-independent basis, Debye-Ang):
   XX=            -33.6811   YY=            -40.9382   ZZ=            -36.8102
   XY=             -4.7385   XZ=              1.9076   YZ=             -1.9673

 CCSD(T)/G3Bas1=-302.8857149\MP2/GTBas2=-302.8336016\MP4/GTBas2=-302.91
 Normal termination of Gaussian 09 at Tue Aug 23 19:44:22 2022.
