 Gaussian 09, Revision E.01,
 Gaussian 09:  ES64L-G09RevE.01 30-Nov-2015

 -----
 #P G4
 -----

 --------
 Frag_974
 --------
 Symbolic Z-matrix:
 Charge =  0 Multiplicity = 1

 SCF Done:  E(RB3LYP) =  -225.156409077     A.U. after   14 cycles
 SCF Done:  E(RB3LYP) =  -225.187172917     A.U. after   12 cycles
 SCF Done:  E(RB3LYP) =  -225.195272290     A.U. after   13 cycles
 SCF Done:  E(RB3LYP) =  -225.197283865     A.U. after   11 cycles
 SCF Done:  E(RB3LYP) =  -225.197378332     A.U. after   10 cycles
 SCF Done:  E(RB3LYP) =  -225.197411828     A.U. after   10 cycles
 SCF Done:  E(RB3LYP) =  -225.197417327     A.U. after    9 cycles
 SCF Done:  E(RB3LYP) =  -225.197419729     A.U. after    8 cycles
 SCF Done:  E(RB3LYP) =  -225.197420914     A.U. after    8 cycles
 SCF Done:  E(RB3LYP) =  -225.197421218     A.U. after    7 cycles
 Optimization completed.
    -- Stationary point found.
 Normal termination of Gaussian 09 at Tue Aug 30 11:50:54 2022.

 ----------------------------------------------------------
 #P Geom=AllCheck Guess=TCheck SCRF=Check B3LYP/GTBas3 Freq
 ----------------------------------------------------------

 Structure from the checkpoint file:  "G4.Frag_974.chk"
 --------
 Frag_974
 --------
 Charge =  0 Multiplicity = 1

 SCF Done:  E(RB3LYP) =  -225.197421218     A.U. after    1 cycles

  Exact polarizability:  43.978  -0.763  29.865  -0.241  -0.095  16.622
 Approx polarizability:  68.540   0.246  44.456   0.504   0.440  24.372

                      1                      2                      3
                      A                      A                      A
 Frequencies --    300.1631               312.9342               397.0083
 Red. masses --      1.8430                 1.8100                 1.1172
 Frc consts  --      0.0978                 0.1044                 0.1038
 IR Inten    --     46.4664                63.1893                86.2170

                      4                      5                      6
                      A                      A                      A
 Frequencies --    512.7764               621.5880               723.0635
 Red. masses --      1.4273                 2.6671                 3.0366
 Frc consts  --      0.2211                 0.6072                 0.9354
 IR Inten    --    138.7708                83.8358                22.5876

                      7                      8                      9
                      A                      A                      A
 Frequencies --    911.2513               927.8494              1078.1850
 Red. masses --      1.4335                 4.6606                 1.7451
 Frc consts  --      0.7013                 2.3640                 1.1953
 IR Inten    --     30.6705                59.2184                22.1681

                     10                     11                     12
                      A                      A                      A
 Frequencies --   1268.5489              1337.5412              1394.1782
 Red. masses --      2.4528                 1.2244                 1.2183
 Frc consts  --      2.3255                 1.2906                 1.3952
 IR Inten    --     48.7011                40.3245                20.8403

                     13                     14                     15
                      A                      A                      A
 Frequencies --   1622.5669              1753.6392              3194.4700
 Red. masses --      1.1606                 5.7718                 1.0909
 Frc consts  --      1.8003                10.4578                 6.5591
 IR Inten    --     48.1292               122.3904                 7.2301

                     16                     17                     18
                      A                      A                      A
 Frequencies --   3583.8913              3698.4042              3844.2152
 Red. masses --      1.0457                 1.1001                 1.0679
 Frc consts  --      7.9131                 8.8660                 9.2984
 IR Inten    --     24.0477                32.7773                72.9363

 - Thermochemistry -
 -------------------
 Temperature   298.150 Kelvin.  Pressure   1.00000 Atm.
 Atom     1 has atomic number  7 and mass  14.00307

 Molecular mass:    60.03236 amu.
 Principal axes and moments of inertia in atomic units:
                           1         2         3
     Eigenvalues --    93.80889 260.59059 353.12085
           X            0.99992  -0.00818  -0.00957
           Y            0.00805   0.99987  -0.01363
           Z            0.00968   0.01355   0.99986
 This molecule is an asymmetric top.
 Rotational symmetry number  1.
 Rotational temperatures (Kelvin)      0.92330     0.33238     0.24528
 Rotational constants (GHZ):          19.23849     6.92558     5.11083
 Zero-point vibrational energy     164380.5 (Joules/Mol)
                                   39.28788 (Kcal/Mol)
 Warning -- explicit consideration of   4 degrees of freedom as
           vibrations may cause significant error
 Vibrational temperatures:    431.87   450.24   571.21   737.77   894.33
          (Kelvin)           1040.33  1311.09  1334.97  1551.27  1825.16
                             1924.42  2005.91  2334.51  2523.09  4596.12
                             5156.41  5321.17  5530.96

 Zero-point correction=                           0.062609 (Hartree/Particle)
 Thermal correction to Energy=                    0.067207
 Thermal correction to Enthalpy=                  0.068152
 Thermal correction to Gibbs Free Energy=         0.036158
 Sum of electronic and zero-point Energies=           -225.134812
 Sum of electronic and thermal Energies=              -225.130214
 Sum of electronic and thermal Enthalpies=            -225.129270
 Sum of electronic and thermal Free Energies=         -225.161263

                     E (Thermal)             CV                S
                      KCal/Mol        Cal/Mol-Kelvin    Cal/Mol-Kelvin
 Total                   42.173             15.483             67.337
 Electronic               0.000              0.000              0.000
 Translational            0.889              2.981             38.197
 Rotational               0.889              2.981             23.672
 Vibrational             40.396              9.521              5.468
 Vibration     1          0.693              1.673              1.416
 Vibration     2          0.701              1.649              1.347
 Vibration     3          0.764              1.477              0.974
 Vibration     4          0.868              1.222              0.627

 Optimization completed.
    -- Stationary point found.
 Normal termination of Gaussian 09 at Tue Aug 30 11:51:06 2022.

 -----------------------------------------------------------------
 #P Geom=AllCheck Guess=TCheck SCRF=Check CCSD(T,E4T,FrzG4)/GTBas1
 -----------------------------------------------------------------

 Structure from the checkpoint file:  "G4.Frag_974.chk"
 --------
 Frag_974
 --------
 Charge =  0 Multiplicity = 1

 SCF Done:  E(RHF) =  -223.880451122     A.U. after   13 cycles
 E2 =    -0.6340167023D+00 EUMP2 =    -0.22451446782445D+03
 CCSD(T)
 CCSD(T)= -0.22456064784D+03
 -224.5613423\MP4SDQ=-224.5403997\CCSD=-224.540331\CCSD(T)=-224.5606478
 Normal termination of Gaussian 09 at Tue Aug 30 11:51:25 2022.

 ---------------------------------------------------------
 #P Geom=AllCheck Guess=TCheck SCRF=Check MP4=FrzG4/GTBas2
 ---------------------------------------------------------

 Structure from the checkpoint file:  "G4.Frag_974.chk"
 --------
 Frag_974
 --------
 Charge =  0 Multiplicity = 1

 SCF Done:  E(RHF) =  -223.891039981     A.U. after   13 cycles
 E2 =    -0.6460673771D+00 EUMP2 =    -0.22453710735789D+03
 Normal termination of Gaussian 09 at Tue Aug 30 11:51:32 2022.

 ---------------------------------------------------------
 #P Geom=AllCheck Guess=TCheck SCRF=Check MP4=FrzG4/GTBas3
 ---------------------------------------------------------

 Structure from the checkpoint file:  "G4.Frag_974.chk"
 --------
 Frag_974
 --------
 Charge =  0 Multiplicity = 1

 SCF Done:  E(RHF) =  -223.911415919     A.U. after   12 cycles
 E2 =    -0.7686336951D+00 EUMP2 =    -0.22468004961410D+03
 Normal termination of Gaussian 09 at Tue Aug 30 11:51:55 2022.

 -----------------------------------------------------------
 #P Geom=AllCheck Guess=TCheck SCRF=Check MP2=Full/GTLargeXP
 -----------------------------------------------------------

 Structure from the checkpoint file:  "G4.Frag_974.chk"
 --------
 Frag_974
 --------
 Charge =  0 Multiplicity = 1

 SCF Done:  E(RHF) =  -223.976491215     A.U. after   12 cycles
 E2 =    -0.1001813963D+01 EUMP2 =    -0.22497830517739D+03
 Normal termination of Gaussian 09 at Tue Aug 30 11:52:11 2022.
 SCF Done:  E(RHF) =  -223.995156185     A.U. after    9 cycles
 Normal termination of Gaussian 09 at Tue Aug 30 11:52:31 2022.

                         Standard orientation:
 ---------------------------------------------------------------------
 Center     Atomic      Atomic             Coordinates (Angstroms)
 Number     Number       Type             X           Y           Z
 ---------------------------------------------------------------------
      1          7           0       -1.328068   -0.525236   -0.075832
      2          6           0       -0.591913    0.631774    0.001840
      3          7           0        0.685022    0.731228    0.008710
      4          8           0        1.259201   -0.571300   -0.005137
      5          1           0       -2.263298   -0.491390    0.295874
      6          1           0       -0.813435   -1.364180    0.147330
      7          1           0       -1.142458    1.567192    0.007075
      8          1           0        2.198387   -0.373816    0.049635
 ---------------------------------------------------------------------

 SCF Done:  E(RHF) =  -223.999029526     A.U. after    8 cycles

 The electronic state is 1-A.
 Alpha  occ. eigenvalues --  -20.58416 -15.59599 -15.58102 -11.30995  -1.40746
 Alpha  occ. eigenvalues --   -1.23866  -1.11083  -0.81998  -0.73811  -0.68604
 Alpha  occ. eigenvalues --   -0.64463  -0.59353  -0.58506  -0.49681  -0.44423
 Alpha  occ. eigenvalues --   -0.35603
 Alpha virt. eigenvalues --    0.03884   0.04941   0.05893   0.06129   0.08875
 Alpha virt. eigenvalues --    0.09586   0.11188   0.11831   0.13174   0.13627
 Alpha virt. eigenvalues --    0.15142   0.16307   0.16474   0.18322   0.19334

 Mulliken charges:
               1
     1  N   -0.669140
     2  C    0.212548
     3  N   -0.314756
     4  O   -0.510583
     5  H    0.317220
     6  H    0.342885
     7  H    0.219180
     8  H    0.402646
 Sum of Mulliken charges =  -0.00000

 Dipole moment (field-independent basis, Debye):
    X=             -1.8176    Y=             -0.5484    Z=              1.0015  Tot=              2.1464
 Quadrupole moment (field-independent basis, Debye-Ang):
   XX=            -16.0346   YY=            -23.9239   ZZ=            -26.2036
   XY=             -1.8121   XZ=             -1.6320   YZ=             -0.9419

 Normal termination of Gaussian 09 at Tue Aug 30 11:54:29 2022.
