 Gaussian 09, Revision E.01,
 Gaussian 09:  ES64L-G09RevE.01 30-Nov-2015

 -----
 #P G4
 -----

 ---------
 Frag_1024
 ---------
 Symbolic Z-matrix:
 Charge =  0 Multiplicity = 1

 SCF Done:  E(RB3LYP) =  -321.109280194     A.U. after   13 cycles
 SCF Done:  E(RB3LYP) =  -321.116957543     A.U. after   11 cycles
 SCF Done:  E(RB3LYP) =  -321.118042515     A.U. after   11 cycles
 SCF Done:  E(RB3LYP) =  -321.119422964     A.U. after   11 cycles
 SCF Done:  E(RB3LYP) =  -321.121206821     A.U. after   11 cycles
 SCF Done:  E(RB3LYP) =  -321.122506494     A.U. after   11 cycles
 SCF Done:  E(RB3LYP) =  -321.123179250     A.U. after   10 cycles
 SCF Done:  E(RB3LYP) =  -321.123646713     A.U. after   10 cycles
 SCF Done:  E(RB3LYP) =  -321.124224115     A.U. after   11 cycles
 SCF Done:  E(RB3LYP) =  -321.124634042     A.U. after   10 cycles
 SCF Done:  E(RB3LYP) =  -321.125010154     A.U. after    8 cycles
 SCF Done:  E(RB3LYP) =  -321.125011102     A.U. after    7 cycles
 SCF Done:  E(RB3LYP) =  -321.125011314     A.U. after    7 cycles
 Optimization completed.
    -- Stationary point found.
 Normal termination of Gaussian 09 at Fri Aug 26 12:38:35 2022.

 ----------------------------------------------------------
 #P Geom=AllCheck Guess=TCheck SCRF=Check B3LYP/GTBas3 Freq
 ----------------------------------------------------------

 Structure from the checkpoint file:  "G4.Frag_1024.chk"
 ---------
 Frag_1024
 ---------
 Charge =  0 Multiplicity = 1

 SCF Done:  E(RB3LYP) =  -321.125011314     A.U. after    1 cycles

  Exact polarizability:  51.339   1.667  48.012  -0.393   0.660  48.438
 Approx polarizability:  67.039   2.623  67.292  -0.181  -0.395  71.675

                      1                      2                      3
                      A                      A                      A
 Frequencies --    124.9524               228.7951               259.9297
 Red. masses --      4.4633                 1.6167                 1.5246
 Frc consts  --      0.0411                 0.0499                 0.0607
 IR Inten    --      2.5516                 9.6600                28.7819

                      4                      5                      6
                      A                      A                      A
 Frequencies --    278.8919               298.8056               348.0881
 Red. masses --      1.3536                 2.2216                 1.2620
 Frc consts  --      0.0620                 0.1169                 0.0901
 IR Inten    --     36.1575                24.6265                56.5578

                      7                      8                      9
                      A                      A                      A
 Frequencies --    370.3159               423.0842               488.1898
 Red. masses --      1.4641                 1.8172                 2.4604
 Frc consts  --      0.1183                 0.1917                 0.3455
 IR Inten    --     44.8038                31.8571                13.8252

                     10                     11                     12
                      A                      A                      A
 Frequencies --    569.6869               691.8484               819.9380
 Red. masses --      2.9559                 2.9734                 2.6897
 Frc consts  --      0.5652                 0.8385                 1.0654
 IR Inten    --     33.6660                21.8800                11.0975

                     13                     14                     15
                      A                      A                      A
 Frequencies --    876.6297               911.8285               925.0395
 Red. masses --      1.5750                 1.8791                 1.6149
 Frc consts  --      0.7131                 0.9205                 0.8142
 IR Inten    --    145.0319                77.5449               235.1717

                     16                     17                     18
                      A                      A                      A
 Frequencies --    997.5188              1045.4385              1103.8485
 Red. masses --      2.1194                 1.7471                 2.1619
 Frc consts  --      1.2425                 1.1250                 1.5520
 IR Inten    --     95.7747                41.8506                29.7786

                     19                     20                     21
                      A                      A                      A
 Frequencies --   1118.1890              1176.0562              1203.5717
 Red. masses --      1.3618                 2.0661                 1.3473
 Frc consts  --      1.0032                 1.6837                 1.1499
 IR Inten    --     20.4527                30.7931                55.6935

                     22                     23                     24
                      A                      A                      A
 Frequencies --   1280.5462              1324.4488              1387.6162
 Red. masses --      1.5304                 1.3706                 1.3212
 Frc consts  --      1.4786                 1.4165                 1.4988
 IR Inten    --      5.8392                26.8120                14.5769

                     25                     26                     27
                      A                      A                      A
 Frequencies --   1394.8762              1420.3999              1447.1289
 Red. masses --      1.3267                 1.3000                 1.4287
 Frc consts  --      1.5209                 1.5453                 1.7628
 IR Inten    --     11.8402                14.3432                16.0405

                     28                     29                     30
                      A                      A                      A
 Frequencies --   1647.5212              1654.3003              1654.7771
 Red. masses --      1.0885                 1.1073                 1.1033
 Frc consts  --      1.7408                 1.7855                 1.7799
 IR Inten    --     25.5518                57.4397                19.3778

                     31                     32                     33
                      A                      A                      A
 Frequencies --   2971.6985              3028.7316              3462.5740
 Red. masses --      1.0846                 1.0854                 1.0489
 Frc consts  --      5.6432                 5.8665                 7.4092
 IR Inten    --     66.1670                47.4359                 1.9703

                     34                     35                     36
                      A                      A                      A
 Frequencies --   3480.3583              3490.9706              3543.3748
 Red. masses --      1.0514                 1.0492                 1.0913
 Frc consts  --      7.5036                 7.5338                 8.0731
 IR Inten    --     10.4933                 0.8140                 2.1253

                     37                     38                     39
                      A                      A                      A
 Frequencies --   3572.7516              3582.0091              3809.3042
 Red. masses --      1.0912                 1.0900                 1.0653
 Frc consts  --      8.2063                 8.2403                 9.1074
 IR Inten    --      3.9733                 8.4519                39.5322

 - Thermochemistry -
 -------------------
 Temperature   298.150 Kelvin.  Pressure   1.00000 Atm.
 Atom     1 has atomic number  7 and mass  14.00307

 Molecular mass:    91.07456 amu.
 Principal axes and moments of inertia in atomic units:
                           1         2         3
     Eigenvalues --   372.03244 630.82037 743.32618
           X            0.99977   0.01785  -0.01197
           Y           -0.01737   0.99908   0.03925
           Z            0.01266  -0.03904   0.99916
 This molecule is an asymmetric top.
 Rotational symmetry number  1.
 Rotational temperatures (Kelvin)      0.23281     0.13730     0.11652
 Rotational constants (GHZ):           4.85103     2.86094     2.42793
 Zero-point vibrational energy     349393.5 (Joules/Mol)
                                   83.50705 (Kcal/Mol)
 Warning -- explicit consideration of  10 degrees of freedom as
           vibrations may cause significant error
 Vibrational temperatures:    179.78   329.18   373.98   401.26   429.91
          (Kelvin)            500.82   532.80   608.72   702.40   819.65
                              995.41  1179.71  1261.27  1311.92  1330.92
                             1435.21  1504.15  1588.19  1608.82  1692.08
                             1731.67  1842.42  1905.58  1996.47  2006.91
                             2043.64  2082.09  2370.41  2380.17  2380.85
                             4275.61  4357.66  4981.87  5007.45  5022.72
                             5098.12  5140.39  5153.71  5480.73

 Zero-point correction=                           0.133077 (Hartree/Particle)
 Thermal correction to Energy=                    0.140415
 Thermal correction to Enthalpy=                  0.141359
 Thermal correction to Gibbs Free Energy=         0.102682
 Sum of electronic and zero-point Energies=           -320.991934
 Sum of electronic and thermal Energies=              -320.984597
 Sum of electronic and thermal Enthalpies=            -320.983653
 Sum of electronic and thermal Free Energies=         -321.022330

                     E (Thermal)             CV                S
                      KCal/Mol        Cal/Mol-Kelvin    Cal/Mol-Kelvin
 Total                   88.111             27.181             81.403
 Electronic               0.000              0.000              0.000
 Translational            0.889              2.981             39.439
 Rotational               0.889              2.981             26.659
 Vibrational             86.334             21.219             15.305
 Vibration     1          0.610              1.928              3.022
 Vibration     2          0.651              1.797              1.888
 Vibration     3          0.668              1.746              1.662
 Vibration     4          0.679              1.713              1.540
 Vibration     5          0.692              1.676              1.424
 Vibration     6          0.726              1.579              1.175
 Vibration     7          0.742              1.533              1.078
 Vibration     8          0.785              1.420              0.882
 Vibration     9          0.844              1.276              0.688
 Vibration    10          0.926              1.097              0.505

 Optimization completed.
    -- Stationary point found.
 Normal termination of Gaussian 09 at Fri Aug 26 12:39:10 2022.

 -----------------------------------------------------------------
 #P Geom=AllCheck Guess=TCheck SCRF=Check CCSD(T,E4T,FrzG4)/GTBas1
 -----------------------------------------------------------------

 Structure from the checkpoint file:  "G4.Frag_1024.chk"
 ---------
 Frag_1024
 ---------
 Charge =  0 Multiplicity = 1

 SCF Done:  E(RHF) =  -319.158547507     A.U. after   12 cycles
 E2 =    -0.9362162373D+00 EUMP2 =    -0.32009476374426D+03
 CCSD(T)
 CCSD(T)= -0.32017112160D+03
 .145696\CCSD(T)=-320.1711216\RMSD=2.776e-09\PG=C01 [X(C2H9N3O1)]\\@
 Normal termination of Gaussian 09 at Fri Aug 26 12:41:29 2022.

 ---------------------------------------------------------
 #P Geom=AllCheck Guess=TCheck SCRF=Check MP4=FrzG4/GTBas2
 ---------------------------------------------------------

 Structure from the checkpoint file:  "G4.Frag_1024.chk"
 ---------
 Frag_1024
 ---------
 Charge =  0 Multiplicity = 1

 SCF Done:  E(RHF) =  -319.172600872     A.U. after   12 cycles
 E2 =    -0.9543166352D+00 EUMP2 =    -0.32012691750698D+03
 Normal termination of Gaussian 09 at Fri Aug 26 12:42:19 2022.

 ---------------------------------------------------------
 #P Geom=AllCheck Guess=TCheck SCRF=Check MP4=FrzG4/GTBas3
 ---------------------------------------------------------

 Structure from the checkpoint file:  "G4.Frag_1024.chk"
 ---------
 Frag_1024
 ---------
 Charge =  0 Multiplicity = 1

 SCF Done:  E(RHF) =  -319.208748079     A.U. after   11 cycles
 E2 =    -0.1154951647D+01 EUMP2 =    -0.32036369972610D+03
 Normal termination of Gaussian 09 at Fri Aug 26 12:46:37 2022.

 -----------------------------------------------------------
 #P Geom=AllCheck Guess=TCheck SCRF=Check MP2=Full/GTLargeXP
 -----------------------------------------------------------

 Structure from the checkpoint file:  "G4.Frag_1024.chk"
 ---------
 Frag_1024
 ---------
 Charge =  0 Multiplicity = 1

 SCF Done:  E(RHF) =  -319.297843875     A.U. after   12 cycles
 E2 =    -0.1502236813D+01 EUMP2 =    -0.32080008068757D+03
 Normal termination of Gaussian 09 at Fri Aug 26 12:48:46 2022.
 SCF Done:  E(RHF) =  -319.322874627     A.U. after    8 cycles
 Normal termination of Gaussian 09 at Fri Aug 26 12:50:51 2022.

                         Standard orientation:
 ---------------------------------------------------------------------
 Center     Atomic      Atomic             Coordinates (Angstroms)
 Number     Number       Type             X           Y           Z
 ---------------------------------------------------------------------
      1          7           0       -0.725044    1.290702    0.673716
      2          6           0       -0.692022    0.321905   -0.413335
      3          7           0       -1.829668   -0.605654   -0.374565
      4          6           0        0.686827   -0.373744   -0.369564
      5          7           0        1.824893    0.525120   -0.389282
      6          8           0        0.701343   -1.123262    0.840837
      7          1           0       -0.597787    0.784741    1.546856
      8          1           0       -1.647451    1.713095    0.708473
      9          1           0       -0.756149    0.871680   -1.361366
     10          1           0       -1.667578   -1.274152    0.376383
     11          1           0       -1.859498   -1.151946   -1.233086
     12          1           0        0.771144   -1.052970   -1.233134
     13          1           0        1.550549    1.397287    0.058826
     14          1           0        2.103924    0.736426   -1.340887
     15          1           0        1.632000   -1.198210    1.079556
 ---------------------------------------------------------------------

 SCF Done:  E(RHF) =  -319.328495783     A.U. after    8 cycles

 The electronic state is 1-A.
 Alpha  occ. eigenvalues --  -20.55575 -15.54690 -15.53935 -15.53712 -11.30930
 Alpha  occ. eigenvalues --  -11.28265  -1.37494  -1.22274  -1.17206  -1.12329
 Alpha  occ. eigenvalues --   -0.92865  -0.80602  -0.73091  -0.68757  -0.65380
 Alpha  occ. eigenvalues --   -0.64884  -0.61651  -0.59858  -0.56893  -0.52986
 Alpha  occ. eigenvalues --   -0.51539  -0.46052  -0.44723  -0.41243  -0.37949
 Alpha virt. eigenvalues --    0.03604   0.04708   0.04962   0.05200   0.06969
 Alpha virt. eigenvalues --    0.07473   0.08128   0.09195   0.09575   0.11865
 Alpha virt. eigenvalues --    0.12362   0.12526   0.12795   0.13585   0.13838

 Mulliken charges:
               1
     1  N   -0.757341
     2  C    0.137681
     3  N   -0.705443
     4  C    0.199567
     5  N   -0.747613
     6  O   -0.634509
     7  H    0.310859
     8  H    0.303121
     9  H    0.158779
    10  H    0.307053
    11  H    0.273603
    12  H    0.135246
    13  H    0.328523
    14  H    0.293110
    15  H    0.397363
 Sum of Mulliken charges =  -0.00000

 Dipole moment (field-independent basis, Debye):
    X=              0.5913    Y=             -0.2372    Z=             -1.4447  Tot=              1.5790
 Quadrupole moment (field-independent basis, Debye-Ang):
   XX=            -41.3233   YY=            -37.9153   ZZ=            -33.2234
   XY=             -0.4411   XZ=             -1.3290   YZ=              0.3464

 Normal termination of Gaussian 09 at Fri Aug 26 12:58:36 2022.
