 Gaussian 09, Revision E.01,
 Gaussian 09:  ES64L-G09RevE.01 30-Nov-2015

 -----
 #P G4
 -----

 --------
 Frag_616
 --------
 Symbolic Z-matrix:
 Charge =  0 Multiplicity = 1

 SCF Done:  E(RB3LYP) =  -382.927668072     A.U. after   14 cycles
 SCF Done:  E(RB3LYP) =  -382.933939029     A.U. after   13 cycles
 SCF Done:  E(RB3LYP) =  -382.936550740     A.U. after   12 cycles
 SCF Done:  E(RB3LYP) =  -382.938690118     A.U. after   13 cycles
 SCF Done:  E(RB3LYP) =  -382.939779433     A.U. after   12 cycles
 SCF Done:  E(RB3LYP) =  -382.940698537     A.U. after   12 cycles
 SCF Done:  E(RB3LYP) =  -382.941376626     A.U. after   12 cycles
 SCF Done:  E(RB3LYP) =  -382.941750731     A.U. after   12 cycles
 SCF Done:  E(RB3LYP) =  -382.941941074     A.U. after   12 cycles
 SCF Done:  E(RB3LYP) =  -382.942082884     A.U. after   11 cycles
 SCF Done:  E(RB3LYP) =  -382.943083106     A.U. after    7 cycles
 SCF Done:  E(RB3LYP) =  -382.943083263     A.U. after    7 cycles
 SCF Done:  E(RB3LYP) =  -382.943083308     A.U. after    7 cycles
 Optimization completed.
    -- Stationary point found.
 Normal termination of Gaussian 09 at Sun Aug 21 08:07:37 2022.

 ----------------------------------------------------------
 #P Geom=AllCheck Guess=TCheck SCRF=Check B3LYP/GTBas3 Freq
 ----------------------------------------------------------

 Structure from the checkpoint file:  "G4.Frag_616.chk"
 --------
 Frag_616
 --------
 Charge =  0 Multiplicity = 1

 SCF Done:  E(RB3LYP) =  -382.943083308     A.U. after    1 cycles

  Exact polarizability:  56.084   0.123  56.627  -0.039  -0.491  46.876
 Approx polarizability:  74.428  -3.426  87.746  -2.315   2.696  68.415

                      1                      2                      3
                      A                      A                      A
 Frequencies --     73.7685               134.3123               204.5420
 Red. masses --      4.6492                 1.0541                 1.6415
 Frc consts  --      0.0149                 0.0112                 0.0405
 IR Inten    --      1.2076                 0.5226                 0.0488

                      4                      5                      6
                      A                      A                      A
 Frequencies --    235.3782               246.8770               260.2152
 Red. masses --      1.5799                 1.2172                 2.9089
 Frc consts  --      0.0516                 0.0437                 0.1161
 IR Inten    --      7.9874                72.1361                 2.7267

                      7                      8                      9
                      A                      A                      A
 Frequencies --    366.6842               399.0673               426.1234
 Red. masses --      2.6211                 5.4192                 3.7057
 Frc consts  --      0.2076                 0.5085                 0.3965
 IR Inten    --      5.3539                20.4816                 8.5238

                     10                     11                     12
                      A                      A                      A
 Frequencies --    507.4022               572.5341               599.6474
 Red. masses --      3.1076                 1.4229                 4.2894
 Frc consts  --      0.4714                 0.2748                 0.9087
 IR Inten    --     36.2313                24.4465                10.3955

                     13                     14                     15
                      A                      A                      A
 Frequencies --    641.7147               699.7314               902.8095
 Red. masses --      1.6526                 3.6339                 2.2165
 Frc consts  --      0.4010                 1.0483                 1.0644
 IR Inten    --     12.5390                 4.6305                14.8624

                     16                     17                     18
                      A                      A                      A
 Frequencies --    958.5299               975.8385              1036.9350
 Red. masses --      2.0532                 2.1055                 1.9789
 Frc consts  --      1.1115                 1.1813                 1.2537
 IR Inten    --     61.3962                14.7265                23.6045

                     19                     20                     21
                      A                      A                      A
 Frequencies --   1088.7162              1125.7039              1172.8841
 Red. masses --      2.0863                 1.9818                 2.9571
 Frc consts  --      1.4570                 1.4797                 2.3968
 IR Inten    --     45.6168                52.6076                86.5355

                     22                     23                     24
                      A                      A                      A
 Frequencies --   1235.8255              1363.1427              1380.9664
 Red. masses --      2.4569                 1.5041                 1.3593
 Frc consts  --      2.2108                 1.6467                 1.5273
 IR Inten    --     65.1882               103.2881                24.9900

                     25                     26                     27
                      A                      A                      A
 Frequencies --   1406.2859              1442.4638              1460.8967
 Red. masses --      1.3750                 1.4364                 1.0519
 Frc consts  --      1.6022                 1.7609                 1.3227
 IR Inten    --     51.5033                84.1651                10.4656

                     28                     29                     30
                      A                      A                      A
 Frequencies --   1474.1395              1484.1642              1491.5805
 Red. masses --      1.0575                 1.0592                 1.1132
 Frc consts  --      1.3540                 1.3747                 1.4592
 IR Inten    --      9.5923                 3.8998                11.2081

                     31                     32                     33
                      A                      A                      A
 Frequencies --   1797.5790              3045.9676              3052.4494
 Red. masses --     10.8604                 1.0385                 1.0345
 Frc consts  --     20.6763                 5.6767                 5.6789
 IR Inten    --    126.7014                 0.2627                 8.0057

                     34                     35                     36
                      A                      A                      A
 Frequencies --   3116.9620              3131.5388              3138.0959
 Red. masses --      1.0931                 1.1024                 1.1024
 Frc consts  --      6.2571                 6.3695                 6.3964
 IR Inten    --      4.0071                13.1462                12.5908

                     37                     38                     39
                      A                      A                      A
 Frequencies --   3159.4546              3619.5975              3804.2065
 Red. masses --      1.1046                 1.0642                 1.0655
 Frc consts  --      6.4966                 8.2144                 9.0850
 IR Inten    --      5.6706               107.6412                40.1287

 - Thermochemistry -
 -------------------
 Temperature   298.150 Kelvin.  Pressure   1.00000 Atm.
 Atom     1 has atomic number  6 and mass  12.00000

 Molecular mass:   104.04734 amu.
 Principal axes and moments of inertia in atomic units:
                           1         2         3
     Eigenvalues --   528.61526 743.28918 907.52006
           X            0.99764   0.06387   0.02506
           Y           -0.06159   0.99464  -0.08304
           Z           -0.03023   0.08130   0.99623
 This molecule is an asymmetric top.
 Rotational symmetry number  1.
 Warning -- assumption of classical behavior for rotation
           may cause significant error
 Rotational temperatures (Kelvin)      0.16385     0.11653     0.09544
 Rotational constants (GHZ):           3.41409     2.42805     1.98865
 Zero-point vibrational energy     318414.4 (Joules/Mol)
                                   76.10287 (Kcal/Mol)
 Warning -- explicit consideration of  12 degrees of freedom as
           vibrations may cause significant error
 Vibrational temperatures:    106.14   193.25   294.29   338.66   355.20
          (Kelvin)            374.39   527.58   574.17   613.10   730.04
                              823.75   862.76   923.28  1006.76  1298.94
                             1379.11  1404.01  1491.92  1566.42  1619.63
                             1687.52  1778.07  1961.26  1986.90  2023.33
                             2075.38  2101.90  2120.96  2135.38  2146.05
                             2586.31  4382.46  4391.79  4484.61  4505.58
                             4515.01  4545.74  5207.79  5473.40

 Zero-point correction=                           0.121278 (Hartree/Particle)
 Thermal correction to Energy=                    0.129639
 Thermal correction to Enthalpy=                  0.130584
 Thermal correction to Gibbs Free Energy=         0.089031
 Sum of electronic and zero-point Energies=           -382.821806
 Sum of electronic and thermal Energies=              -382.813444
 Sum of electronic and thermal Enthalpies=            -382.812500
 Sum of electronic and thermal Free Energies=         -382.854053

                     E (Thermal)             CV                S
                      KCal/Mol        Cal/Mol-Kelvin    Cal/Mol-Kelvin
 Total                   81.350             29.935             87.455
 Electronic               0.000              0.000              0.000
 Translational            0.889              2.981             39.836
 Rotational               0.889              2.981             27.369
 Vibrational             79.573             23.973             20.250
 Vibration     1          0.599              1.966              4.050
 Vibration     2          0.613              1.919              2.883
 Vibration     3          0.640              1.833              2.092
 Vibration     4          0.655              1.787              1.838
 Vibration     5          0.661              1.768              1.753
 Vibration     6          0.668              1.745              1.660
 Vibration     7          0.740              1.541              1.094
 Vibration     8          0.765              1.472              0.966
 Vibration     9          0.788              1.413              0.871
 Vibration    10          0.863              1.234              0.640
 Vibration    11          0.929              1.091              0.499
 Vibration    12          0.958              1.033              0.450

 Optimization completed.
    -- Stationary point found.
 Normal termination of Gaussian 09 at Sun Aug 21 08:11:29 2022.

 -----------------------------------------------------------------
 #P Geom=AllCheck Guess=TCheck SCRF=Check CCSD(T,E4T,FrzG4)/GTBas1
 -----------------------------------------------------------------

 Structure from the checkpoint file:  "G4.Frag_616.chk"
 --------
 Frag_616
 --------
 Charge =  0 Multiplicity = 1

 SCF Done:  E(RHF) =  -380.711092192     A.U. after   14 cycles
 E2 =    -0.1053013282D+01 EUMP2 =    -0.38176410547382D+03
 CCSD(T)
 CCSD(T)= -0.38184304321D+03
 38\CCSD(T)=-381.8430432\RMSD=2.907e-09\PG=C01 [X(C4H8O3)]\\@
 Normal termination of Gaussian 09 at Sun Aug 21 08:25:47 2022.

 ---------------------------------------------------------
 #P Geom=AllCheck Guess=TCheck SCRF=Check MP4=FrzG4/GTBas2
 ---------------------------------------------------------

 Structure from the checkpoint file:  "G4.Frag_616.chk"
 --------
 Frag_616
 --------
 Charge =  0 Multiplicity = 1

 SCF Done:  E(RHF) =  -380.723200451     A.U. after   14 cycles
 E2 =    -0.1070470542D+01 EUMP2 =    -0.38179367099340D+03
 Normal termination of Gaussian 09 at Sun Aug 21 08:44:02 2022.

 ---------------------------------------------------------
 #P Geom=AllCheck Guess=TCheck SCRF=Check MP4=FrzG4/GTBas3
 ---------------------------------------------------------

 Structure from the checkpoint file:  "G4.Frag_616.chk"
 --------
 Frag_616
 --------
 Charge =  0 Multiplicity = 1

 SCF Done:  E(RHF) =  -380.759512626     A.U. after   13 cycles
 E2 =    -0.1300429937D+01 EUMP2 =    -0.38205994256245D+03
 Normal termination of Gaussian 09 at Sun Aug 21 12:42:23 2022.

 -----------------------------------------------------------
 #P Geom=AllCheck Guess=TCheck SCRF=Check MP2=Full/GTLargeXP
 -----------------------------------------------------------

 Structure from the checkpoint file:  "G4.Frag_616.chk"
 --------
 Frag_616
 --------
 Charge =  0 Multiplicity = 1

 SCF Done:  E(RHF) =  -380.862597371     A.U. after   12 cycles
 E2 =    -0.1701315297D+01 EUMP2 =    -0.38256391266796D+03
 Normal termination of Gaussian 09 at Sun Aug 21 12:52:44 2022.
 SCF Done:  E(RHF) =  -380.893009415     A.U. after    9 cycles
 Normal termination of Gaussian 09 at Sun Aug 21 13:01:36 2022.

                         Standard orientation:
 ---------------------------------------------------------------------
 Center     Atomic      Atomic             Coordinates (Angstroms)
 Number     Number       Type             X           Y           Z
 ---------------------------------------------------------------------
      1          6           0       -1.825310   -0.965202   -0.059568
      2          6           0       -0.910132    0.222414    0.083819
      3          8           0       -1.313969    1.358675    0.219973
      4          6           0        0.624904   -0.013083   -0.016363
      5          6           0        1.151415   -1.050239    0.967049
      6          8           0        1.261713    1.209185    0.166105
      7          8           0        0.862583   -0.516834   -1.330518
      8          1           0       -1.494018   -1.594351   -0.889175
      9          1           0       -2.851295   -0.628548   -0.212361
     10          1           0       -1.781710   -1.573829    0.850980
     11          1           0        2.238948   -1.090847    0.870940
     12          1           0        0.744269   -2.040725    0.751848
     13          1           0        0.899218   -0.767485    1.992740
     14          1           0        0.542488    1.863606    0.231435
     15          1           0        0.974231    0.260624   -1.890513
 ---------------------------------------------------------------------

 SCF Done:  E(RHF) =  -380.899621675     A.U. after    8 cycles

 The electronic state is 1-A.
 Alpha  occ. eigenvalues --  -20.57383 -20.57215 -20.56797 -11.35850 -11.34923
 Alpha  occ. eigenvalues --  -11.24596 -11.23111  -1.44196  -1.39994  -1.34349
 Alpha  occ. eigenvalues --   -1.05241  -1.00256  -0.88027  -0.77994  -0.73687
 Alpha  occ. eigenvalues --   -0.70975  -0.65301  -0.64268  -0.61233  -0.59659
 Alpha  occ. eigenvalues --   -0.56767  -0.55878  -0.55393  -0.54003  -0.51914
 Alpha  occ. eigenvalues --   -0.51701  -0.47682  -0.42186
 Alpha virt. eigenvalues --    0.03153   0.04104   0.04623   0.05124   0.06569
 Alpha virt. eigenvalues --    0.06793   0.07247   0.07311   0.07539   0.09418
 Alpha virt. eigenvalues --    0.09640   0.10285   0.10664   0.12164   0.13585

 Mulliken charges:
               1
     1  C   -0.596599
     2  C    0.441218
     3  O   -0.565692
     4  C    0.506132
     5  C   -0.538969
     6  O   -0.643544
     7  O   -0.609976
     8  H    0.230375
     9  H    0.214763
    10  H    0.200313
    11  H    0.194317
    12  H    0.181410
    13  H    0.183227
    14  H    0.414569
    15  H    0.388455
 Sum of Mulliken charges =  -0.00000

 Dipole moment (field-independent basis, Debye):
    X=             -0.9405    Y=             -1.8320    Z=              0.1026  Tot=              2.0619
 Quadrupole moment (field-independent basis, Debye-Ang):
   XX=            -45.4020   YY=            -43.9299   ZZ=            -40.2277
   XY=              3.3252   XZ=              0.5671   YZ=             -3.8589

 Normal termination of Gaussian 09 at Sun Aug 21 17:03:34 2022.
