 Gaussian 09, Revision E.01,
 Gaussian 09:  ES64L-G09RevE.01 30-Nov-2015

 -----
 #P G4
 -----

 --------
 Frag_577
 --------
 Symbolic Z-matrix:
 Charge =  0 Multiplicity = 1

 SCF Done:  E(RB3LYP) =  -286.579417303     A.U. after   14 cycles
 SCF Done:  E(RB3LYP) =  -286.597053670     A.U. after   12 cycles
 SCF Done:  E(RB3LYP) =  -286.598469667     A.U. after   12 cycles
 SCF Done:  E(RB3LYP) =  -286.598695239     A.U. after   11 cycles
 SCF Done:  E(RB3LYP) =  -286.598859598     A.U. after   11 cycles
 SCF Done:  E(RB3LYP) =  -286.598908957     A.U. after   10 cycles
 SCF Done:  E(RB3LYP) =  -286.598931059     A.U. after    9 cycles
 SCF Done:  E(RB3LYP) =  -286.598933142     A.U. after    7 cycles
 SCF Done:  E(RB3LYP) =  -286.598933669     A.U. after    7 cycles
 SCF Done:  E(RB3LYP) =  -286.598933822     A.U. after    7 cycles
 Optimization completed.
    -- Stationary point found.
 Normal termination of Gaussian 09 at Fri Aug 26 14:51:50 2022.

 ----------------------------------------------------------
 #P Geom=AllCheck Guess=TCheck SCRF=Check B3LYP/GTBas3 Freq
 ----------------------------------------------------------

 Structure from the checkpoint file:  "G4.Frag_577.chk"
 --------
 Frag_577
 --------
 Charge =  0 Multiplicity = 1

 SCF Done:  E(RB3LYP) =  -286.598933822     A.U. after    1 cycles

  Exact polarizability:  64.740  -3.277  61.534  -3.081   0.149  33.911
 Approx polarizability:  91.466  -3.459  98.691  -7.920   1.284  52.398

                      1                      2                      3
                      A                      A                      A
 Frequencies --     70.6397               178.6553               268.0162
 Red. masses --      3.6424                 1.0506                 3.2281
 Frc consts  --      0.0107                 0.0198                 0.1366
 IR Inten    --      1.0715                 0.0753                 1.4053

                      4                      5                      6
                      A                      A                      A
 Frequencies --    329.3196               397.4724               441.1552
 Red. masses --      2.7988                 2.8791                 1.1776
 Frc consts  --      0.1788                 0.2680                 0.1350
 IR Inten    --      6.4521                12.6837                90.3143

                      7                      8                      9
                      A                      A                      A
 Frequencies --    512.3080               548.1859               653.6113
 Red. masses --      2.5577                 3.2505                 2.2308
 Frc consts  --      0.3955                 0.5755                 0.5615
 IR Inten    --      8.6243                 5.7257                 5.2308

                     10                     11                     12
                      A                      A                      A
 Frequencies --    720.8267               742.0862               832.8970
 Red. masses --      1.2207                 3.1972                 1.3873
 Frc consts  --      0.3737                 1.0374                 0.5670
 IR Inten    --      3.1590                 3.1745                57.7215

                     13                     14                     15
                      A                      A                      A
 Frequencies --    941.8633               971.1903               999.1627
 Red. masses --      1.4883                 1.9688                 1.8122
 Frc consts  --      0.7779                 1.0941                 1.0660
 IR Inten    --     41.2061                14.3256                36.9334

                     16                     17                     18
                      A                      A                      A
 Frequencies --   1081.3341              1096.8131              1184.2223
 Red. masses --      1.4388                 1.6308                 1.6876
 Frc consts  --      0.9912                 1.1559                 1.3944
 IR Inten    --      1.7741                11.5212               212.3102

                     19                     20                     21
                      A                      A                      A
 Frequencies --   1331.6046              1393.4377              1407.2010
 Red. masses --      1.5272                 1.7167                 1.5668
 Frc consts  --      1.5955                 1.9639                 1.8280
 IR Inten    --     55.5466                 3.4377                31.0160

                     22                     23                     24
                      A                      A                      A
 Frequencies --   1450.4017              1470.6771              1476.4024
 Red. masses --      1.2677                 1.0759                 1.0501
 Frc consts  --      1.5712                 1.3711                 1.3486
 IR Inten    --     27.0705                 8.8264                 6.0543

                     25                     26                     27
                      A                      A                      A
 Frequencies --   1686.2747              1721.0053              3044.3490
 Red. masses --      6.6455                 7.2905                 1.0376
 Frc consts  --     11.1335                12.7224                 5.6659
 IR Inten    --    104.2977                18.8617                 7.3615

                     28                     29                     30
                      A                      A                      A
 Frequencies --   3103.0452              3155.9905              3160.8681
 Red. masses --      1.0971                 1.1021                 1.0642
 Frc consts  --      6.2239                 6.4677                 6.2647
 IR Inten    --      8.7736                 7.9101                 4.3410

                     31                     32                     33
                      A                      A                      A
 Frequencies --   3256.9866              3434.3131              3805.6367
 Red. masses --      1.1117                 1.0734                 1.0656
 Frc consts  --      6.9481                 7.4590                 9.0927
 IR Inten    --      3.6120                 2.5237                29.5776

 - Thermochemistry -
 -------------------
 Temperature   298.150 Kelvin.  Pressure   1.00000 Atm.
 Atom     1 has atomic number  6 and mass  12.00000

 Molecular mass:    85.05276 amu.
 Principal axes and moments of inertia in atomic units:
                           1         2         3
     Eigenvalues --   349.65004 537.28890 826.83760
           X            0.99271  -0.12047   0.00313
           Y            0.12049   0.99269  -0.00663
           Z           -0.00230   0.00696   0.99997
 This molecule is an asymmetric top.
 Rotational symmetry number  1.
 Rotational temperatures (Kelvin)      0.24772     0.16121     0.10475
 Rotational constants (GHZ):           5.16156     3.35898     2.18270
 Zero-point vibrational energy     280332.6 (Joules/Mol)
                                   67.00110 (Kcal/Mol)
 Warning -- explicit consideration of   8 degrees of freedom as
           vibrations may cause significant error
 Vibrational temperatures:    101.63   257.04   385.62   473.82   571.87
          (Kelvin)            634.72   737.10   788.72   940.40  1037.11
                             1067.70  1198.35  1355.13  1397.32  1437.57
                             1555.80  1578.07  1703.83  1915.88  2004.84
                             2024.65  2086.80  2115.97  2124.21  2426.17
                             2476.14  4380.13  4464.58  4540.76  4547.78
                             4686.07  4941.20  5475.46

 Zero-point correction=                           0.106773 (Hartree/Particle)
 Thermal correction to Energy=                    0.113472
 Thermal correction to Enthalpy=                  0.114416
 Thermal correction to Gibbs Free Energy=         0.076504
 Sum of electronic and zero-point Energies=           -286.492161
 Sum of electronic and thermal Energies=              -286.485462
 Sum of electronic and thermal Enthalpies=            -286.484517
 Sum of electronic and thermal Free Energies=         -286.522430

                     E (Thermal)             CV                S
                      KCal/Mol        Cal/Mol-Kelvin    Cal/Mol-Kelvin
 Total                   71.205             24.128             79.793
 Electronic               0.000              0.000              0.000
 Translational            0.889              2.981             39.235
 Rotational               0.889              2.981             26.543
 Vibrational             69.427             18.166             14.014
 Vibration     1          0.598              1.968              4.135
 Vibration     2          0.629              1.869              2.342
 Vibration     3          0.673              1.732              1.609
 Vibration     4          0.712              1.617              1.263
 Vibration     5          0.764              1.476              0.972
 Vibration     6          0.801              1.380              0.823
 Vibration     7          0.867              1.223              0.628
 Vibration     8          0.903              1.144              0.548

 Optimization completed.
    -- Stationary point found.
 Normal termination of Gaussian 09 at Fri Aug 26 14:52:19 2022.

 -----------------------------------------------------------------
 #P Geom=AllCheck Guess=TCheck SCRF=Check CCSD(T,E4T,FrzG4)/GTBas1
 -----------------------------------------------------------------

 Structure from the checkpoint file:  "G4.Frag_577.chk"
 --------
 Frag_577
 --------
 Charge =  0 Multiplicity = 1

 SCF Done:  E(RHF) =  -284.812204547     A.U. after   13 cycles
 E2 =    -0.8498570389D+00 EUMP2 =    -0.28566206158635D+03
 CCSD(T)
 CCSD(T)= -0.28573913669D+03
 SDTQ=-285.7395991\MP4SDQ=-285.7082953\CCSD=-285.7082624\CCSD(T)=-285.7
 Normal termination of Gaussian 09 at Fri Aug 26 14:54:04 2022.

 ---------------------------------------------------------
 #P Geom=AllCheck Guess=TCheck SCRF=Check MP4=FrzG4/GTBas2
 ---------------------------------------------------------

 Structure from the checkpoint file:  "G4.Frag_577.chk"
 --------
 Frag_577
 --------
 Charge =  0 Multiplicity = 1

 SCF Done:  E(RHF) =  -284.821552442     A.U. after   13 cycles
 E2 =    -0.8615187517D+00 EUMP2 =    -0.28568307119334D+03
 Normal termination of Gaussian 09 at Fri Aug 26 14:54:40 2022.

 ---------------------------------------------------------
 #P Geom=AllCheck Guess=TCheck SCRF=Check MP4=FrzG4/GTBas3
 ---------------------------------------------------------

 Structure from the checkpoint file:  "G4.Frag_577.chk"
 --------
 Frag_577
 --------
 Charge =  0 Multiplicity = 1

 SCF Done:  E(RHF) =  -284.850600172     A.U. after   12 cycles
 E2 =    -0.1034475802D+01 EUMP2 =    -0.28588507597412D+03
 Normal termination of Gaussian 09 at Fri Aug 26 14:57:34 2022.

 -----------------------------------------------------------
 #P Geom=AllCheck Guess=TCheck SCRF=Check MP2=Full/GTLargeXP
 -----------------------------------------------------------

 Structure from the checkpoint file:  "G4.Frag_577.chk"
 --------
 Frag_577
 --------
 Charge =  0 Multiplicity = 1

 SCF Done:  E(RHF) =  -284.922679733     A.U. after   13 cycles
 E2 =    -0.1362742422D+01 EUMP2 =    -0.28628542215541D+03
 Normal termination of Gaussian 09 at Fri Aug 26 14:59:19 2022.
 SCF Done:  E(RHF) =  -284.945407136     A.U. after    9 cycles
 Normal termination of Gaussian 09 at Fri Aug 26 15:01:00 2022.

                         Standard orientation:
 ---------------------------------------------------------------------
 Center     Atomic      Atomic             Coordinates (Angstroms)
 Number     Number       Type             X           Y           Z
 ---------------------------------------------------------------------
      1          6           0       -1.667850    0.884634    0.329572
      2          6           0       -0.747929   -0.023246   -0.009343
      3          8           0       -1.026254   -1.318955   -0.334493
      4          6           0        0.723876    0.254071   -0.033026
      5          6           0        1.630496   -0.901193    0.305036
      6          7           0        1.230186    1.390111   -0.314111
      7          1           0       -1.377720    1.882506    0.627483
      8          1           0       -2.727295    0.650853    0.341839
      9          1           0       -1.975299   -1.467304   -0.254117
     10          1           0        2.665606   -0.559237    0.301084
     11          1           0        1.381537   -1.319358    1.286538
     12          1           0        1.504934   -1.710452   -0.420742
     13          1           0        0.495404    2.058257   -0.560796
 ---------------------------------------------------------------------

 SCF Done:  E(RHF) =  -284.950070065     A.U. after    8 cycles

 The electronic state is 1-A.
 Alpha  occ. eigenvalues --  -20.60269 -15.54923 -11.31834 -11.29418 -11.23233
 Alpha  occ. eigenvalues --  -11.22215  -1.42194  -1.21839  -1.04042  -0.99273
 Alpha  occ. eigenvalues --   -0.86803  -0.74899  -0.70254  -0.69927  -0.61456
 Alpha  occ. eigenvalues --   -0.60013  -0.57229  -0.56385  -0.55414  -0.53404
 Alpha  occ. eigenvalues --   -0.44075  -0.42674  -0.35505
 Alpha virt. eigenvalues --    0.03203   0.04135   0.04841   0.05491   0.06278
 Alpha virt. eigenvalues --    0.07042   0.07212   0.08107   0.08500   0.09643
 Alpha virt. eigenvalues --    0.09951   0.10351   0.11362   0.12712   0.14223

 Mulliken charges:
               1
     1  C   -0.511016
     2  C    0.241419
     3  O   -0.550748
     4  C    0.328181
     5  C   -0.514959
     6  N   -0.617522
     7  H    0.197519
     8  H    0.162791
     9  H    0.389339
    10  H    0.206608
    11  H    0.181426
    12  H    0.200202
    13  H    0.286760
 Sum of Mulliken charges =  -0.00000

 Dipole moment (field-independent basis, Debye):
    X=             -2.9649    Y=             -1.0395    Z=              0.5330  Tot=              3.1867
 Quadrupole moment (field-independent basis, Debye-Ang):
   XX=            -34.4044   YY=            -36.7426   ZZ=            -38.8030
   XY=             -2.5536   XZ=              0.8192   YZ=             -0.0991

 Normal termination of Gaussian 09 at Fri Aug 26 15:07:32 2022.
