 Gaussian 09, Revision E.01,
 Gaussian 09:  ES64L-G09RevE.01 30-Nov-2015

 -----
 #P G4
 -----

 ---------
 Frag_1059
 ---------
 Symbolic Z-matrix:
 Charge =  0 Multiplicity = 1

 SCF Done:  E(RB3LYP) =  -326.924258542     A.U. after   14 cycles
 SCF Done:  E(RB3LYP) =  -326.995356864     A.U. after   12 cycles
 SCF Done:  E(RB3LYP) =  -327.023337843     A.U. after   12 cycles
 SCF Done:  E(RB3LYP) =  -327.029235539     A.U. after   12 cycles
 SCF Done:  E(RB3LYP) =  -327.030792469     A.U. after   12 cycles
 SCF Done:  E(RB3LYP) =  -327.030964982     A.U. after   11 cycles
 SCF Done:  E(RB3LYP) =  -327.031016705     A.U. after   10 cycles
 SCF Done:  E(RB3LYP) =  -327.031101045     A.U. after   10 cycles
 SCF Done:  E(RB3LYP) =  -327.008645078     A.U. after   13 cycles
 SCF Done:  E(RB3LYP) =  -327.031115194     A.U. after    8 cycles
 SCF Done:  E(RB3LYP) =  -327.033730891     A.U. after    9 cycles
 SCF Done:  E(RB3LYP) =  -327.033731114     A.U. after    7 cycles
 SCF Done:  E(RB3LYP) =  -327.033731139     A.U. after    7 cycles
 Optimization completed.
    -- Stationary point found.
 Normal termination of Gaussian 09 at Tue Aug 30 09:31:54 2022.

 ----------------------------------------------------------
 #P Geom=AllCheck Guess=TCheck SCRF=Check B3LYP/GTBas3 Freq
 ----------------------------------------------------------

 Structure from the checkpoint file:  "G4.Frag_1059.chk"
 ---------
 Frag_1059
 ---------
 Charge =  0 Multiplicity = 1

 SCF Done:  E(RB3LYP) =  -327.033731139     A.U. after    1 cycles

  Exact polarizability:  71.243  -2.412  74.787  -0.000   0.004  54.309
 Approx polarizability:  94.172  -8.595 123.741  -0.003   0.017  76.816

                      1                      2                      3
                      A                      A                      A
 Frequencies --     27.8656               164.7644               230.3652
 Red. masses --      3.0737                 1.0244                 1.1599
 Frc consts  --      0.0014                 0.0164                 0.0363
 IR Inten    --      3.3269                 0.1082                 0.4356

                      4                      5                      6
                      A                      A                      A
 Frequencies --    274.0367               280.2594               317.0046
 Red. masses --      1.1064                 2.1015                 2.6107
 Frc consts  --      0.0490                 0.0973                 0.1546
 IR Inten    --      1.5980                 0.0066                11.1476

                      7                      8                      9
                      A                      A                      A
 Frequencies --    346.4280               403.5044               444.7935
 Red. masses --      2.5125                 2.8774                 3.7307
 Frc consts  --      0.1777                 0.2760                 0.4349
 IR Inten    --      5.3323                 5.9256                 9.1460

                     10                     11                     12
                      A                      A                      A
 Frequencies --    486.3428               511.4134               560.2592
 Red. masses --      2.6438                 3.5147                 2.1492
 Frc consts  --      0.3684                 0.5416                 0.3975
 IR Inten    --      7.8269                 9.0554                13.8265

                     13                     14                     15
                      A                      A                      A
 Frequencies --    663.1423               721.6782               867.1680
 Red. masses --      3.4228                 1.2257                 3.0665
 Frc consts  --      0.8868                 0.3761                 1.3586
 IR Inten    --      0.3764                 2.5869                 1.7170

                     16                     17                     18
                      A                      A                      A
 Frequencies --    915.9909               925.3872               930.7753
 Red. masses --      1.3395                 1.9444                 1.9143
 Frc consts  --      0.6622                 0.9810                 0.9771
 IR Inten    --     34.0643                 0.0685                 3.3621

                     19                     20                     21
                      A                      A                      A
 Frequencies --    975.1970              1019.8053              1070.2004
 Red. masses --      3.4271                 1.6909                 1.4090
 Frc consts  --      1.9203                 1.0361                 0.9508
 IR Inten    --     37.9482                 1.0531                 0.5608

                     22                     23                     24
                      A                      A                      A
 Frequencies --   1098.3755              1189.2237              1206.9093
 Red. masses --      1.3119                 1.6935                 2.4547
 Frc consts  --      0.9325                 1.4111                 2.1067
 IR Inten    --      1.4543                12.5345                 0.0702

                     25                     26                     27
                      A                      A                      A
 Frequencies --   1227.0933              1262.3888              1400.1173
 Red. masses --      2.0928                 2.2232                 1.1824
 Frc consts  --      1.8567                 2.0874                 1.3657
 IR Inten    --     18.0277                 1.7999                 8.0625

                     28                     29                     30
                      A                      A                      A
 Frequencies --   1405.8469              1430.6739              1444.5031
 Red. masses --      1.1613                 1.2494                 1.0490
 Frc consts  --      1.3523                 1.5067                 1.2896
 IR Inten    --      0.0206                 3.9347                 7.8438

                     31                     32                     33
                      A                      A                      A
 Frequencies --   1447.3067              1455.3493              1470.4696
 Red. masses --      1.1581                 1.0488                 1.0618
 Frc consts  --      1.4293                 1.3089                 1.3527
 IR Inten    --      0.1810                 1.8153                16.4043

                     34                     35                     36
                      A                      A                      A
 Frequencies --   1473.2031              1475.9728              1494.5871
 Red. masses --      1.0495                 1.0601                 1.0475
 Frc consts  --      1.3420                 1.3607                 1.3786
 IR Inten    --      6.0620                 9.2695                10.7542

                     37                     38                     39
                      A                      A                      A
 Frequencies --   1725.9748              3051.4385              3055.8475
 Red. masses --      5.7465                 1.0343                 1.0347
 Frc consts  --     10.0861                 5.6742                 5.6926
 IR Inten    --     21.0136                14.0228                14.4888

                     40                     41                     42
                      A                      A                      A
 Frequencies --   3058.7932              3124.8879              3140.3236
 Red. masses --      1.0338                 1.0980                 1.1036
 Frc consts  --      5.6986                 6.3170                 6.4122
 IR Inten    --     26.3796                 2.9863                10.2421

                     43                     44                     45
                      A                      A                      A
 Frequencies --   3152.0929              3157.8594              3163.5503
 Red. masses --      1.0997                 1.0919                 1.0702
 Frc consts  --      6.4376                 6.4151                 6.3104
 IR Inten    --      0.4878                13.0031                12.0529

                     46                     47                     48
                      A                      A                      A
 Frequencies --   3179.5178              3183.1896              3240.7915
 Red. masses --      1.1062                 1.1063                 1.1147
 Frc consts  --      6.5886                 6.6044                 6.8978
 IR Inten    --      2.7658                 9.7917                 8.2393

 - Thermochemistry -
 -------------------
 Temperature   298.150 Kelvin.  Pressure   1.00000 Atm.
 Atom     1 has atomic number  6 and mass  12.00000

 Molecular mass:   101.08406 amu.
 Principal axes and moments of inertia in atomic units:
                           1         2         3
     Eigenvalues --   533.27451 733.42329 888.67585
           X            0.99529   0.09697   0.00002
           Y           -0.09697   0.99529  -0.00011
           Z           -0.00003   0.00011   1.00000
 This molecule is an asymmetric top.
 Rotational symmetry number  1.
 Warning -- assumption of classical behavior for rotation
           may cause significant error
 Rotational temperatures (Kelvin)      0.16242     0.11810     0.09746
 Rotational constants (GHZ):           3.38426     2.46071     2.03082
 Zero-point vibrational energy     411830.4 (Joules/Mol)
                                   98.42983 (Kcal/Mol)
 Warning -- explicit consideration of  12 degrees of freedom as
           vibrations may cause significant error
 Vibrational temperatures:     40.09   237.06   331.44   394.28   403.23
          (Kelvin)            456.10   498.43   580.55   639.96   699.74
                              735.81   806.09   954.11  1038.33  1247.66
                             1317.90  1331.42  1339.18  1403.09  1467.27
                             1539.78  1580.32  1711.03  1736.47  1765.51
                             1816.29  2014.45  2022.70  2058.42  2078.32
                             2082.35  2093.92  2115.68  2119.61  2123.59
                             2150.37  2483.29  4390.33  4396.68  4400.92
                             4496.01  4518.22  4535.15  4543.45  4551.64
                             4574.61  4579.89  4662.77

 Zero-point correction=                           0.156858 (Hartree/Particle)
 Thermal correction to Energy=                    0.165271
 Thermal correction to Enthalpy=                  0.166215
 Thermal correction to Gibbs Free Energy=         0.124185
 Sum of electronic and zero-point Energies=           -326.876873
 Sum of electronic and thermal Energies=              -326.868460
 Sum of electronic and thermal Enthalpies=            -326.867516
 Sum of electronic and thermal Free Energies=         -326.909546

                     E (Thermal)             CV                S
                      KCal/Mol        Cal/Mol-Kelvin    Cal/Mol-Kelvin
 Total                  103.709             31.426             88.460
 Electronic               0.000              0.000              0.000
 Translational            0.889              2.981             39.750
 Rotational               0.889              2.981             27.344
 Vibrational            101.932             25.465             21.366
 Vibration     1          0.593              1.984              5.976
 Vibration     2          0.623              1.886              2.494
 Vibration     3          0.652              1.795              1.876
 Vibration     4          0.676              1.721              1.571
 Vibration     5          0.680              1.710              1.532
 Vibration     6          0.704              1.641              1.326
 Vibration     7          0.724              1.583              1.182
 Vibration     8          0.769              1.463              0.950
 Vibration     9          0.804              1.372              0.812
 Vibration    10          0.842              1.280              0.693
 Vibration    11          0.867              1.225              0.630
 Vibration    12          0.916              1.117              0.523

 Optimization completed.
    -- Stationary point found.
 Normal termination of Gaussian 09 at Tue Aug 30 09:37:28 2022.

 -----------------------------------------------------------------
 #P Geom=AllCheck Guess=TCheck SCRF=Check CCSD(T,E4T,FrzG4)/GTBas1
 -----------------------------------------------------------------

 Structure from the checkpoint file:  "G4.Frag_1059.chk"
 ---------
 Frag_1059
 ---------
 Charge =  0 Multiplicity = 1

 SCF Done:  E(RHF) =  -324.916570627     A.U. after   12 cycles
 E2 =    -0.1001644347D+01 EUMP2 =    -0.32591821497400D+03
 CCSD(T)
 CCSD(T)= -0.32601891672D+03
 \CCSD(T)=-326.0189167\RMSD=7.166e-09\PG=C01 [X(C5H11N1O1)]\\@
 Normal termination of Gaussian 09 at Tue Aug 30 09:54:59 2022.

 ---------------------------------------------------------
 #P Geom=AllCheck Guess=TCheck SCRF=Check MP4=FrzG4/GTBas2
 ---------------------------------------------------------

 Structure from the checkpoint file:  "G4.Frag_1059.chk"
 ---------
 Frag_1059
 ---------
 Charge =  0 Multiplicity = 1

 SCF Done:  E(RHF) =  -324.928376326     A.U. after   13 cycles
 E2 =    -0.1017781883D+01 EUMP2 =    -0.32594615820918D+03
 Normal termination of Gaussian 09 at Tue Aug 30 10:16:24 2022.

 ---------------------------------------------------------
 #P Geom=AllCheck Guess=TCheck SCRF=Check MP4=FrzG4/GTBas3
 ---------------------------------------------------------

 Structure from the checkpoint file:  "G4.Frag_1059.chk"
 ---------
 Frag_1059
 ---------
 Charge =  0 Multiplicity = 1

 SCF Done:  E(RHF) =  -324.954881988     A.U. after   11 cycles
 E2 =    -0.1234373838D+01 EUMP2 =    -0.32618925582688D+03
 Normal termination of Gaussian 09 at Tue Aug 30 15:35:39 2022.

 -----------------------------------------------------------
 #P Geom=AllCheck Guess=TCheck SCRF=Check MP2=Full/GTLargeXP
 -----------------------------------------------------------

 Structure from the checkpoint file:  "G4.Frag_1059.chk"
 ---------
 Frag_1059
 ---------
 Charge =  0 Multiplicity = 1

 SCF Done:  E(RHF) =  -325.036360605     A.U. after   12 cycles
 E2 =    -0.1619788166D+01 EUMP2 =    -0.32665614877161D+03
 Normal termination of Gaussian 09 at Tue Aug 30 15:49:42 2022.
 SCF Done:  E(RHF) =  -325.061800583     A.U. after    9 cycles
 Normal termination of Gaussian 09 at Tue Aug 30 16:01:35 2022.

                         Standard orientation:
 ---------------------------------------------------------------------
 Center     Atomic      Atomic             Coordinates (Angstroms)
 Number     Number       Type             X           Y           Z
 ---------------------------------------------------------------------
      1          6           0       -1.318570    1.474818    0.000238
      2          6           0       -0.909038    0.211792   -0.000045
      3          6           0       -1.784652   -0.995179   -0.000257
      4          7           0        0.573780   -0.138860   -0.000094
      5          6           0        1.217550    0.440007   -1.231905
      6          6           0        1.216993    0.438006    1.232977
      7          8           0        0.777748   -1.473929   -0.001138
      8          1           0       -2.377879    1.704153    0.000322
      9          1           0       -0.641996    2.320792    0.000412
     10          1           0       -1.568991   -1.621058   -0.869247
     11          1           0       -2.834395   -0.692411   -0.000165
     12          1           0       -1.569018   -1.621461    0.868473
     13          1           0        2.260967    0.128490   -1.200152
     14          1           0        0.724810   -0.024584   -2.084433
     15          1           0        1.125384    1.528182   -1.276008
     16          1           0        1.124891    1.526126    1.278693
     17          1           0        2.260365    0.126352    1.201265
     18          1           0        0.723726   -0.027790    2.084543
 ---------------------------------------------------------------------

 SCF Done:  E(RHF) =  -325.067197018     A.U. after    8 cycles

 The electronic state is 1-A.
 Alpha  occ. eigenvalues --  -20.45708 -15.70218 -11.29034 -11.26757 -11.26756
 Alpha  occ. eigenvalues --  -11.23657 -11.21910  -1.38705  -1.12939  -1.06226
 Alpha  occ. eigenvalues --   -0.98470  -0.94539  -0.88748  -0.74981  -0.69003
 Alpha  occ. eigenvalues --   -0.66427  -0.65117  -0.59852  -0.59003  -0.58397
 Alpha  occ. eigenvalues --   -0.55756  -0.54663  -0.54230  -0.52013  -0.51454
 Alpha  occ. eigenvalues --   -0.39050  -0.37405  -0.36100
 Alpha virt. eigenvalues --    0.02734   0.03709   0.03889   0.04726   0.06140
 Alpha virt. eigenvalues --    0.06292   0.06438   0.07144   0.07309   0.09187
 Alpha virt. eigenvalues --    0.09372   0.09630   0.09825   0.11178   0.12223

 Mulliken charges:
               1
     1  C   -0.410071
     2  C    0.034073
     3  C   -0.555965
     4  N    0.525341
     5  C   -0.501446
     6  C   -0.501359
     7  O   -0.738338
     8  H    0.201840
     9  H    0.178117
    10  H    0.210778
    11  H    0.168428
    12  H    0.210664
    13  H    0.208532
    14  H    0.204825
    15  H    0.175622
    16  H    0.175626
    17  H    0.208547
    18  H    0.204788
 Sum of Mulliken charges =  -0.00000

 Dipole moment (field-independent basis, Debye):
    X=             -0.6440    Y=              4.3976    Z=              0.0039  Tot=              4.4445
 Quadrupole moment (field-independent basis, Debye-Ang):
   XX=            -41.6308   YY=            -49.5105   ZZ=            -42.8945
   XY=              4.9098   XZ=              0.0035   YZ=             -0.0068

 Normal termination of Gaussian 09 at Tue Aug 30 21:19:41 2022.
