 Gaussian 09, Revision E.01,
 Gaussian 09:  ES64L-G09RevE.01 30-Nov-2015

 -----
 #P G4
 -----

 --------
 Frag_752
 --------
 Symbolic Z-matrix:
 Charge =  0 Multiplicity = 1

 SCF Done:  E(RB3LYP) =  -301.177403629     A.U. after   13 cycles
 SCF Done:  E(RB3LYP) =  -301.185806877     A.U. after   11 cycles
 SCF Done:  E(RB3LYP) =  -301.186752465     A.U. after   10 cycles
 SCF Done:  E(RB3LYP) =  -301.186966403     A.U. after   10 cycles
 SCF Done:  E(RB3LYP) =  -301.187043056     A.U. after   10 cycles
 SCF Done:  E(RB3LYP) =  -301.187083101     A.U. after   10 cycles
 SCF Done:  E(RB3LYP) =  -301.187101225     A.U. after    9 cycles
 SCF Done:  E(RB3LYP) =  -301.187111023     A.U. after    9 cycles
 SCF Done:  E(RB3LYP) =  -301.187114709     A.U. after    9 cycles
 SCF Done:  E(RB3LYP) =  -301.187116429     A.U. after    7 cycles
 SCF Done:  E(RB3LYP) =  -301.187117092     A.U. after    6 cycles
 SCF Done:  E(RB3LYP) =  -301.187117438     A.U. after    7 cycles
 SCF Done:  E(RB3LYP) =  -301.187117493     A.U. after    6 cycles
 Optimization completed.
    -- Stationary point found.
 Normal termination of Gaussian 09 at Fri Aug 26 13:11:01 2022.

 ----------------------------------------------------------
 #P Geom=AllCheck Guess=TCheck SCRF=Check B3LYP/GTBas3 Freq
 ----------------------------------------------------------

 Structure from the checkpoint file:  "G4.Frag_752.chk"
 --------
 Frag_752
 --------
 Charge =  0 Multiplicity = 1

 SCF Done:  E(RB3LYP) =  -301.187117493     A.U. after    1 cycles

  Exact polarizability:  61.361  -0.440  51.883  -0.542  -2.281  50.092
 Approx polarizability:  79.144  -0.724  73.451  -1.531  -4.056  74.341

                      1                      2                      3
                      A                      A                      A
 Frequencies --    147.4625               150.7437               201.4704
 Red. masses --      1.8823                 1.3253                 1.0565
 Frc consts  --      0.0241                 0.0177                 0.0253
 IR Inten    --      9.0493                25.5530                12.1323

                      4                      5                      6
                      A                      A                      A
 Frequencies --    258.6275               279.1893               307.3982
 Red. masses --      1.4868                 1.8597                 2.1984
 Frc consts  --      0.0586                 0.0854                 0.1224
 IR Inten    --     17.8139                45.0809                 5.2370

                      7                      8                      9
                      A                      A                      A
 Frequencies --    380.4169               431.1704               468.4143
 Red. masses --      2.6990                 1.4958                 2.2325
 Frc consts  --      0.2301                 0.1638                 0.2886
 IR Inten    --      2.8793                11.9499                25.8136

                     10                     11                     12
                      A                      A                      A
 Frequencies --    531.9675               652.4673               773.1457
 Red. masses --      3.2250                 2.6828                 3.1301
 Frc consts  --      0.5377                 0.6729                 1.1024
 IR Inten    --     30.4533                14.4217                18.5135

                     13                     14                     15
                      A                      A                      A
 Frequencies --    859.3746               874.0844               924.5595
 Red. masses --      1.6495                 2.0484                 2.0985
 Frc consts  --      0.7177                 0.9221                 1.0569
 IR Inten    --     98.0403                66.0737                53.4601

                     16                     17                     18
                      A                      A                      A
 Frequencies --    971.4453              1010.8660              1088.0034
 Red. masses --      2.7021                 1.6323                 1.6323
 Frc consts  --      1.5024                 0.9828                 1.1385
 IR Inten    --     25.0471                 5.8218                17.0692

                     19                     20                     21
                      A                      A                      A
 Frequencies --   1117.0145              1143.9662              1157.2786
 Red. masses --      1.8299                 1.3855                 1.8973
 Frc consts  --      1.3452                 1.0683                 1.4971
 IR Inten    --     36.3957                39.8376                18.0797

                     22                     23                     24
                      A                      A                      A
 Frequencies --   1264.6497              1338.8615              1367.7134
 Red. masses --      1.2644                 1.2688                 1.6313
 Frc consts  --      1.1914                 1.3401                 1.7980
 IR Inten    --      4.1858                 2.3226                10.5646

                     25                     26                     27
                      A                      A                      A
 Frequencies --   1377.8709              1398.3848              1434.0793
 Red. masses --      1.3077                 1.2514                 1.5451
 Frc consts  --      1.4627                 1.4418                 1.8722
 IR Inten    --     11.4365                10.7718                18.4699

                     28                     29                     30
                      A                      A                      A
 Frequencies --   1482.2657              1498.5855              1625.7413
 Red. masses --      1.0460                 1.0563                 1.0980
 Frc consts  --      1.3540                 1.3977                 1.7098
 IR Inten    --      2.6743                 1.3491                42.5442

                     31                     32                     33
                      A                      A                      A
 Frequencies --   1635.1169              1645.2150              2939.6052
 Red. masses --      1.0728                 1.0879                 1.0823
 Frc consts  --      1.6900                 1.7349                 5.5103
 IR Inten    --     40.8566                21.7291                76.2066

                     34                     35                     36
                      A                      A                      A
 Frequencies --   3046.8516              3117.7461              3149.4344
 Red. masses --      1.0386                 1.0981                 1.1011
 Frc consts  --      5.6807                 6.2890                 6.4350
 IR Inten    --     23.1611                21.9995                11.8832

                     37                     38                     39
                      A                      A                      A
 Frequencies --   3410.5638              3415.7827              3502.3517
 Red. masses --      1.0524                 1.0514                 1.0889
 Frc consts  --      7.2127                 7.2275                 7.8701
 IR Inten    --      3.4191                 5.8645                 0.2363

                     40                     41                     42
                      A                      A                      A
 Frequencies --   3510.7831              3554.8618              3596.6785
 Red. masses --      1.0484                 1.0888                 1.0932
 Frc consts  --      7.6133                 8.1070                 8.3322
 IR Inten    --      1.7937                 0.5692                 2.1861

 - Thermochemistry -
 -------------------
 Temperature   298.150 Kelvin.  Pressure   1.00000 Atm.
 Atom     1 has atomic number  6 and mass  12.00000

 Molecular mass:    90.09055 amu.
 Principal axes and moments of inertia in atomic units:
                           1         2         3
     Eigenvalues --   372.90294 620.25560 723.84010
           X            0.99992   0.00473   0.01214
           Y           -0.00451   0.99981  -0.01870
           Z           -0.01223   0.01864   0.99975
 This molecule is an asymmetric top.
 Rotational symmetry number  1.
 Rotational temperatures (Kelvin)      0.23227     0.13964     0.11966
 Rotational constants (GHZ):           4.83971     2.90967     2.49329
 Zero-point vibrational energy     377076.1 (Joules/Mol)
                                   90.12336 (Kcal/Mol)
 Warning -- explicit consideration of  10 degrees of freedom as
           vibrations may cause significant error
 Vibrational temperatures:    212.17   216.89   289.87   372.11   401.69
          (Kelvin)            442.28   547.33   620.36   673.94   765.38
                              938.75  1112.38  1236.45  1257.61  1330.23
                             1397.69  1454.41  1565.39  1607.13  1645.91
                             1665.06  1819.55  1926.32  1967.83  1982.45
                             2011.96  2063.32  2132.65  2156.13  2339.08
                             2352.57  2367.09  4229.43  4383.73  4485.74
                             4531.33  4907.03  4914.54  5039.10  5051.23
                             5114.65  5174.81

 Zero-point correction=                           0.143621 (Hartree/Particle)
 Thermal correction to Energy=                    0.151323
 Thermal correction to Enthalpy=                  0.152267
 Thermal correction to Gibbs Free Energy=         0.112854
 Sum of electronic and zero-point Energies=           -301.043497
 Sum of electronic and thermal Energies=              -301.035795
 Sum of electronic and thermal Enthalpies=            -301.034850
 Sum of electronic and thermal Free Energies=         -301.074263

                     E (Thermal)             CV                S
                      KCal/Mol        Cal/Mol-Kelvin    Cal/Mol-Kelvin
 Total                   94.957             28.155             82.951
 Electronic               0.000              0.000              0.000
 Translational            0.889              2.981             39.407
 Rotational               0.889              2.981             26.618
 Vibrational             93.179             22.193             16.926
 Vibration     1          0.617              1.905              2.705
 Vibration     2          0.618              1.902              2.663
 Vibration     3          0.638              1.838              2.120
 Vibration     4          0.667              1.748              1.671
 Vibration     5          0.680              1.712              1.539
 Vibration     6          0.697              1.660              1.376
 Vibration     7          0.750              1.512              1.038
 Vibration     8          0.792              1.402              0.855
 Vibration     9          0.826              1.320              0.742
 Vibration    10          0.887              1.179              0.583

 Optimization completed.
    -- Stationary point found.
 Normal termination of Gaussian 09 at Fri Aug 26 13:11:38 2022.

 -----------------------------------------------------------------
 #P Geom=AllCheck Guess=TCheck SCRF=Check CCSD(T,E4T,FrzG4)/GTBas1
 -----------------------------------------------------------------

 Structure from the checkpoint file:  "G4.Frag_752.chk"
 --------
 Frag_752
 --------
 Charge =  0 Multiplicity = 1

 SCF Done:  E(RHF) =  -299.255019408     A.U. after   12 cycles
 E2 =    -0.9261443960D+00 EUMP2 =    -0.30018116380432D+03
 CCSD(T)
 CCSD(T)= -0.30026690269D+03
 4SDTQ=-300.2655077\MP4SDQ=-300.2378213\CCSD=-300.2391219\CCSD(T)=-300.
 Normal termination of Gaussian 09 at Fri Aug 26 13:14:03 2022.

 ---------------------------------------------------------
 #P Geom=AllCheck Guess=TCheck SCRF=Check MP4=FrzG4/GTBas2
 ---------------------------------------------------------

 Structure from the checkpoint file:  "G4.Frag_752.chk"
 --------
 Frag_752
 --------
 Charge =  0 Multiplicity = 1

 SCF Done:  E(RHF) =  -299.266675738     A.U. after   12 cycles
 E2 =    -0.9428998230D+00 EUMP2 =    -0.30020957556124D+03
 Normal termination of Gaussian 09 at Fri Aug 26 13:14:50 2022.

 ---------------------------------------------------------
 #P Geom=AllCheck Guess=TCheck SCRF=Check MP4=FrzG4/GTBas3
 ---------------------------------------------------------

 Structure from the checkpoint file:  "G4.Frag_752.chk"
 --------
 Frag_752
 --------
 Charge =  0 Multiplicity = 1

 SCF Done:  E(RHF) =  -299.300011660     A.U. after   11 cycles
 E2 =    -0.1137660170D+01 EUMP2 =    -0.30043767183022D+03
 Normal termination of Gaussian 09 at Fri Aug 26 13:19:32 2022.

 -----------------------------------------------------------
 #P Geom=AllCheck Guess=TCheck SCRF=Check MP2=Full/GTLargeXP
 -----------------------------------------------------------

 Structure from the checkpoint file:  "G4.Frag_752.chk"
 --------
 Frag_752
 --------
 Charge =  0 Multiplicity = 1

 SCF Done:  E(RHF) =  -299.378708111     A.U. after   12 cycles
 E2 =    -0.1478674646D+01 EUMP2 =    -0.30085738275763D+03
 Normal termination of Gaussian 09 at Fri Aug 26 13:21:55 2022.
 SCF Done:  E(RHF) =  -299.401708180     A.U. after    9 cycles
 Normal termination of Gaussian 09 at Fri Aug 26 13:24:23 2022.

                         Standard orientation:
 ---------------------------------------------------------------------
 Center     Atomic      Atomic             Coordinates (Angstroms)
 Number     Number       Type             X           Y           Z
 ---------------------------------------------------------------------
      1          6           0       -1.805474   -0.668750   -0.428495
      2          6           0       -0.647177    0.318364   -0.366518
      3          7           0       -0.739220    1.145263    0.838063
      4          7           0        0.637951   -0.404096   -0.409736
      5          7           0        1.689172    0.654824   -0.451338
      6          7           0        0.781954   -1.157216    0.775226
      7          1           0       -1.821386   -1.283891    0.472498
      8          1           0       -1.696023   -1.320104   -1.298872
      9          1           0       -2.756185   -0.132052   -0.513931
     10          1           0       -0.646558    0.917349   -1.293798
     11          1           0       -0.055577    1.892602    0.779793
     12          1           0       -1.659890    1.563355    0.910957
     13          1           0        2.559811    0.130568   -0.366405
     14          1           0        1.692438    0.960170   -1.427570
     15          1           0        0.919742   -0.537161    1.575812
     16          1           0        1.590537   -1.759948    0.666086
 ---------------------------------------------------------------------

 SCF Done:  E(RHF) =  -299.406820515     A.U. after    8 cycles

 The electronic state is 1-A.
 Alpha  occ. eigenvalues --  -15.60324 -15.57353 -15.56118 -15.53162 -11.27842
 Alpha  occ. eigenvalues --  -11.20352  -1.32044  -1.17120  -1.13481  -1.01579
 Alpha  occ. eigenvalues --   -0.93299  -0.78519  -0.69440  -0.67866  -0.65231
 Alpha  occ. eigenvalues --   -0.63248  -0.61199  -0.57628  -0.51929  -0.50787
 Alpha  occ. eigenvalues --   -0.50546  -0.49461  -0.41124  -0.39391  -0.35762
 Alpha virt. eigenvalues --    0.03880   0.04538   0.04936   0.05447   0.07265
 Alpha virt. eigenvalues --    0.07810   0.07921   0.08303   0.09162   0.10682
 Alpha virt. eigenvalues --    0.11285   0.11549   0.12696   0.13157   0.13739

 Mulliken charges:
               1
     1  C   -0.552280
     2  C    0.172223
     3  N   -0.757229
     4  N    0.001512
     5  N   -0.658782
     6  N   -0.679971
     7  H    0.202355
     8  H    0.175932
     9  H    0.152255
    10  H    0.129681
    11  H    0.323550
    12  H    0.287661
    13  H    0.284887
    14  H    0.291927
    15  H    0.325614
    16  H    0.300665
 Sum of Mulliken charges =  -0.00000

 Dipole moment (field-independent basis, Debye):
    X=              0.9356    Y=              1.0449    Z=             -1.0730  Tot=              1.7660
 Quadrupole moment (field-independent basis, Debye-Ang):
   XX=            -32.2751   YY=            -38.5811   ZZ=            -39.1524
   XY=             -3.9513   XZ=              0.0979   YZ=             -1.5759

 Normal termination of Gaussian 09 at Fri Aug 26 13:32:51 2022.
