 Gaussian 09, Revision E.01,
 Gaussian 09:  ES64L-G09RevE.01 30-Nov-2015

 -----
 #P G4
 -----

 ---------
 Frag_1129
 ---------
 Symbolic Z-matrix:
 Charge =  0 Multiplicity = 1

 SCF Done:  E(RB3LYP) =  -303.779909869     A.U. after   16 cycles
 SCF Done:  E(RB3LYP) =  -303.794467580     A.U. after   13 cycles
 SCF Done:  E(RB3LYP) =  -303.796857784     A.U. after   13 cycles
 SCF Done:  E(RB3LYP) =  -303.797890948     A.U. after   13 cycles
 SCF Done:  E(RB3LYP) =  -303.798610870     A.U. after   13 cycles
 SCF Done:  E(RB3LYP) =  -303.799100851     A.U. after   14 cycles
 SCF Done:  E(RB3LYP) =  -303.799409041     A.U. after   12 cycles
 SCF Done:  E(RB3LYP) =  -303.799605018     A.U. after   12 cycles
 SCF Done:  E(RB3LYP) =  -303.799711719     A.U. after   11 cycles
 SCF Done:  E(RB3LYP) =  -303.799782229     A.U. after   11 cycles
 SCF Done:  E(RB3LYP) =  -303.804350242     A.U. after   10 cycles
 SCF Done:  E(RB3LYP) =  -303.804351390     A.U. after   10 cycles
 SCF Done:  E(RB3LYP) =  -303.804352175     A.U. after    8 cycles
 Optimization completed.
    -- Stationary point found.
 Normal termination of Gaussian 09 at Thu Aug 25 19:22:42 2022.

 ----------------------------------------------------------
 #P Geom=AllCheck Guess=TCheck SCRF=Check B3LYP/GTBas3 Freq
 ----------------------------------------------------------

 Structure from the checkpoint file:  "G4.Frag_1129.chk"
 ---------
 Frag_1129
 ---------
 Charge =  0 Multiplicity = 1

 SCF Done:  E(RB3LYP) =  -303.804352175     A.U. after    1 cycles

  Exact polarizability:  62.581   4.688  47.260  -4.760  -7.014  49.674
 Approx polarizability:  85.159  12.293  73.916 -13.105 -23.363  90.085

                      1                      2                      3
                      A                      A                      A
 Frequencies --     83.4376               234.3433               239.5652
 Red. masses --      3.6263                 1.0315                 1.1768
 Frc consts  --      0.0149                 0.0334                 0.0398
 IR Inten    --      8.4607                 8.1097                40.6255

                      4                      5                      6
                      A                      A                      A
 Frequencies --    281.7128               339.1755               368.1438
 Red. masses --      2.4921                 4.2333                 2.6370
 Frc consts  --      0.1165                 0.2869                 0.2106
 IR Inten    --     16.3030                 1.9754                 1.6444

                      7                      8                      9
                      A                      A                      A
 Frequencies --    511.1651               626.6178               646.2278
 Red. masses --      2.6182                 2.1552                 1.9369
 Frc consts  --      0.4031                 0.4986                 0.4766
 IR Inten    --     11.9863                 4.4182                 9.7302

                     10                     11                     12
                      A                      A                      A
 Frequencies --    715.4014               762.7301               811.4618
 Red. masses --      1.6358                 2.7177                 1.6236
 Frc consts  --      0.4933                 0.9315                 0.6299
 IR Inten    --     10.4343                 0.8196                38.0640

                     13                     14                     15
                      A                      A                      A
 Frequencies --    893.9023               943.5606              1025.3976
 Red. masses --      2.1785                 1.2054                 1.5283
 Frc consts  --      1.0256                 0.6323                 0.9468
 IR Inten    --     65.6137                89.2326                12.3574

                     16                     17                     18
                      A                      A                      A
 Frequencies --   1104.2092              1114.7795              1161.0023
 Red. masses --      2.0885                 2.6842                 1.4091
 Frc consts  --      1.5003                 1.9653                 1.1191
 IR Inten    --     36.8515                43.9359                 5.2625

                     19                     20                     21
                      A                      A                      A
 Frequencies --   1246.8444              1344.4041              1352.8252
 Red. masses --      1.8418                 2.1538                 1.4036
 Frc consts  --      1.6870                 2.2936                 1.5134
 IR Inten    --     27.6306                41.6660                 6.9193

                     22                     23                     24
                      A                      A                      A
 Frequencies --   1388.6304              1398.6460              1477.3244
 Red. masses --      1.2888                 1.3056                 1.2607
 Frc consts  --      1.4643                 1.5048                 1.6211
 IR Inten    --     25.0217                10.4137                11.6219

                     25                     26                     27
                      A                      A                      A
 Frequencies --   1483.7474              1501.7923              1624.0135
 Red. masses --      1.1139                 1.0732                 1.2847
 Frc consts  --      1.4449                 1.4262                 1.9963
 IR Inten    --      0.7676                 2.6495               117.7199

                     28                     29                     30
                      A                      A                      A
 Frequencies --   1664.8057              3040.3523              3064.3560
 Red. masses --      3.5182                 1.0357                 1.0852
 Frc consts  --      5.7451                 5.6409                 6.0040
 IR Inten    --     52.8523                14.3403                21.7071

                     31                     32                     33
                      A                      A                      A
 Frequencies --   3110.2713              3140.4271              3191.7118
 Red. masses --      1.1016                 1.1016                 1.0520
 Frc consts  --      6.2787                 6.4013                 6.3140
 IR Inten    --     22.1049                 9.2134                 1.2579

                     34                     35                     36
                      A                      A                      A
 Frequencies --   3319.0135              3477.9261              3570.3215
 Red. masses --      1.1243                 1.0504                 1.0898
 Frc consts  --      7.2973                 7.4859                 8.1850
 IR Inten    --      0.3600                 9.8600                 7.8475

 - Thermochemistry -
 -------------------
 Temperature   298.150 Kelvin.  Pressure   1.00000 Atm.
 Atom     1 has atomic number  6 and mass  12.00000

 Molecular mass:    88.06366 amu.
 Principal axes and moments of inertia in atomic units:
                           1         2         3
     Eigenvalues --   353.04771 615.47969 662.28655
           X            0.99902   0.00372  -0.04415
           Y           -0.00327   0.99994   0.01040
           Z            0.04419  -0.01024   0.99897
 This molecule is an asymmetric top.
 Rotational symmetry number  1.
 Rotational temperatures (Kelvin)      0.24533     0.14073     0.13078
 Rotational constants (GHZ):           5.11189     2.93225     2.72502
 Zero-point vibrational energy     312585.7 (Joules/Mol)
                                   74.70977 (Kcal/Mol)
 Warning -- explicit consideration of   7 degrees of freedom as
           vibrations may cause significant error
 Vibrational temperatures:    120.05   337.17   344.68   405.32   488.00
          (Kelvin)            529.68   735.45   901.56   929.78  1029.30
                             1097.40  1167.51  1286.12  1357.57  1475.32
                             1588.71  1603.92  1670.42  1793.93  1934.30
                             1946.41  1997.93  2012.34  2125.54  2134.78
                             2160.74  2336.59  2395.28  4374.38  4408.92
                             4474.98  4518.37  4592.16  4775.31  5003.95
                             5136.89

 Zero-point correction=                           0.119058 (Hartree/Particle)
 Thermal correction to Energy=                    0.125866
 Thermal correction to Enthalpy=                  0.126810
 Thermal correction to Gibbs Free Energy=         0.088841
 Sum of electronic and zero-point Energies=           -303.685295
 Sum of electronic and thermal Energies=              -303.678486
 Sum of electronic and thermal Enthalpies=            -303.677542
 Sum of electronic and thermal Free Energies=         -303.715511

                     E (Thermal)             CV                S
                      KCal/Mol        Cal/Mol-Kelvin    Cal/Mol-Kelvin
 Total                   78.982             24.663             79.912
 Electronic               0.000              0.000              0.000
 Translational            0.889              2.981             39.339
 Rotational               0.889              2.981             26.467
 Vibrational             77.205             18.702             14.106
 Vibration     1          0.600              1.961              3.808
 Vibration     2          0.654              1.788              1.845
 Vibration     3          0.657              1.780              1.806
 Vibration     4          0.681              1.707              1.523
 Vibration     5          0.719              1.597              1.216
 Vibration     6          0.741              1.538              1.088
 Vibration     7          0.866              1.225              0.631

 Optimization completed.
    -- Stationary point found.
 Normal termination of Gaussian 09 at Thu Aug 25 19:25:06 2022.

 -----------------------------------------------------------------
 #P Geom=AllCheck Guess=TCheck SCRF=Check CCSD(T,E4T,FrzG4)/GTBas1
 -----------------------------------------------------------------

 Structure from the checkpoint file:  "G4.Frag_1129.chk"
 ---------
 Frag_1129
 ---------
 Charge =  0 Multiplicity = 1

 SCF Done:  E(RHF) =  -301.908828652     A.U. after   14 cycles
 E2 =    -0.9124919208D+00 EUMP2 =    -0.30282132057295D+03
 CCSD(T)
 CCSD(T)= -0.30289772079D+03
 P4SDQ=-302.8656709\CCSD=-302.8642668\CCSD(T)=-302.8977208\RMSD=3.368e-
 Normal termination of Gaussian 09 at Thu Aug 25 19:31:47 2022.

 ---------------------------------------------------------
 #P Geom=AllCheck Guess=TCheck SCRF=Check MP4=FrzG4/GTBas2
 ---------------------------------------------------------

 Structure from the checkpoint file:  "G4.Frag_1129.chk"
 ---------
 Frag_1129
 ---------
 Charge =  0 Multiplicity = 1

 SCF Done:  E(RHF) =  -301.920703600     A.U. after   13 cycles
 E2 =    -0.9261509667D+00 EUMP2 =    -0.30284685456639D+03
 Normal termination of Gaussian 09 at Thu Aug 25 19:37:54 2022.

 ---------------------------------------------------------
 #P Geom=AllCheck Guess=TCheck SCRF=Check MP4=FrzG4/GTBas3
 ---------------------------------------------------------

 Structure from the checkpoint file:  "G4.Frag_1129.chk"
 ---------
 Frag_1129
 ---------
 Charge =  0 Multiplicity = 1

 SCF Done:  E(RHF) =  -301.948280732     A.U. after   12 cycles
 E2 =    -0.1113572260D+01 EUMP2 =    -0.30306185299201D+03
 Normal termination of Gaussian 09 at Thu Aug 25 22:08:09 2022.

 -----------------------------------------------------------
 #P Geom=AllCheck Guess=TCheck SCRF=Check MP2=Full/GTLargeXP
 -----------------------------------------------------------

 Structure from the checkpoint file:  "G4.Frag_1129.chk"
 ---------
 Frag_1129
 ---------
 Charge =  0 Multiplicity = 1

 SCF Done:  E(RHF) =  -302.027581279     A.U. after   13 cycles
 E2 =    -0.1450272500D+01 EUMP2 =    -0.30347785377849D+03
 Normal termination of Gaussian 09 at Thu Aug 25 22:13:52 2022.
 SCF Done:  E(RHF) =  -302.051496590     A.U. after   10 cycles
 Normal termination of Gaussian 09 at Thu Aug 25 22:20:29 2022.

                         Standard orientation:
 ---------------------------------------------------------------------
 Center     Atomic      Atomic             Coordinates (Angstroms)
 Number     Number       Type             X           Y           Z
 ---------------------------------------------------------------------
      1          6           0        1.811054    0.441654   -0.624136
      2          7           0        0.801503   -0.043048    0.035206
      3          8           0        0.871733   -0.696651    1.115733
      4          6           0       -0.601587    0.182671   -0.469629
      5          6           0       -1.304044    1.134785    0.501647
      6          7           0       -1.183334   -1.141690   -0.597426
      7          1           0        1.632869    0.972052   -1.545928
      8          1           0        2.799753    0.282066   -0.219526
      9          1           0       -0.516435    0.638887   -1.460509
     10          1           0       -2.344603    1.269720    0.191595
     11          1           0       -0.821814    2.117634    0.517955
     12          1           0       -1.280193    0.710467    1.507798
     13          1           0       -2.188201   -1.059069   -0.715252
     14          1           0       -1.014963   -1.620041    0.286252
 ---------------------------------------------------------------------

 SCF Done:  E(RHF) =  -302.056570969     A.U. after    8 cycles

 The electronic state is 1-A.
 Alpha  occ. eigenvalues --  -20.51250 -15.72274 -15.54992 -11.31828 -11.28426
 Alpha  occ. eigenvalues --  -11.23081  -1.45197  -1.20922  -1.14499  -1.01389
 Alpha  occ. eigenvalues --   -0.90414  -0.79531  -0.73113  -0.67992  -0.65935
 Alpha  occ. eigenvalues --   -0.62679  -0.60895  -0.57857  -0.56302  -0.54155
 Alpha  occ. eigenvalues --   -0.52399  -0.42554  -0.40643  -0.34660
 Alpha virt. eigenvalues --    0.03059   0.03672   0.04416   0.05122   0.06058
 Alpha virt. eigenvalues --    0.06547   0.07214   0.07820   0.09289   0.10081
 Alpha virt. eigenvalues --    0.11541   0.12028   0.12134   0.13188   0.13396

 Mulliken charges:
               1
     1  C   -0.358211
     2  N    0.328526
     3  O   -0.626134
     4  C    0.081691
     5  C   -0.550248
     6  N   -0.682198
     7  H    0.217686
     8  H    0.236562
     9  H    0.181396
    10  H    0.169366
    11  H    0.169810
    12  H    0.215552
    13  H    0.282316
    14  H    0.333886
 Sum of Mulliken charges =  -0.00000

 Dipole moment (field-independent basis, Debye):
    X=             -1.2969    Y=              2.8951    Z=             -2.3669  Tot=              3.9580
 Quadrupole moment (field-independent basis, Debye-Ang):
   XX=            -30.6353   YY=            -39.3815   ZZ=            -40.6294
   XY=              2.8118   XZ=             -3.9470   YZ=             -1.7108

 Normal termination of Gaussian 09 at Fri Aug 26 01:04:29 2022.
