 Gaussian 09, Revision E.01,
 Gaussian 09:  ES64L-G09RevE.01 30-Nov-2015

 -----
 #P G4
 -----

 --------
 Frag_452
 --------
 Symbolic Z-matrix:
 Charge =  0 Multiplicity = 1

 SCF Done:  E(RB3LYP) =  -271.781278977     A.U. after   13 cycles
 SCF Done:  E(RB3LYP) =  -271.801402904     A.U. after   12 cycles
 SCF Done:  E(RB3LYP) =  -271.802281330     A.U. after   12 cycles
 SCF Done:  E(RB3LYP) =  -271.799000652     A.U. after   13 cycles
 SCF Done:  E(RB3LYP) =  -271.802969470     A.U. after   10 cycles
 SCF Done:  E(RB3LYP) =  -271.803576241     A.U. after   12 cycles
 SCF Done:  E(RB3LYP) =  -271.804564202     A.U. after   13 cycles
 SCF Done:  E(RB3LYP) =  -271.805172485     A.U. after   12 cycles
 SCF Done:  E(RB3LYP) =  -271.805524210     A.U. after   11 cycles
 SCF Done:  E(RB3LYP) =  -271.805554091     A.U. after   10 cycles
 SCF Done:  E(RB3LYP) =  -271.805562439     A.U. after    9 cycles
 SCF Done:  E(RB3LYP) =  -271.805564493     A.U. after    9 cycles
 SCF Done:  E(RB3LYP) =  -271.805565080     A.U. after    8 cycles
 Optimization completed.
    -- Stationary point found.
 Normal termination of Gaussian 09 at Tue Aug 30 12:12:52 2022.

 ----------------------------------------------------------
 #P Geom=AllCheck Guess=TCheck SCRF=Check B3LYP/GTBas3 Freq
 ----------------------------------------------------------

 Structure from the checkpoint file:  "G4.Frag_452.chk"
 --------
 Frag_452
 --------
 Charge =  0 Multiplicity = 1

 SCF Done:  E(RB3LYP) =  -271.805565080     A.U. after    1 cycles

  Exact polarizability:  62.618   0.614  56.706   0.465   2.094  51.071
 Approx polarizability:  78.272  -1.569  83.321  -0.679   9.232  78.641

                      1                      2                      3
                      A                      A                      A
 Frequencies --     46.1315               140.3368               197.4542
 Red. masses --      3.4347                 1.0308                 1.0697
 Frc consts  --      0.0043                 0.0120                 0.0246
 IR Inten    --      2.4246                 0.1376                 0.0496

                      4                      5                      6
                      A                      A                      A
 Frequencies --    225.1892               234.5773               284.9324
 Red. masses --      1.2158                 2.4130                 2.3428
 Frc consts  --      0.0363                 0.0782                 0.1121
 IR Inten    --      1.0226                 2.1036                 2.5891

                      7                      8                      9
                      A                      A                      A
 Frequencies --    324.2946               431.0632               591.5483
 Red. masses --      2.4749                 2.4591                 3.3614
 Frc consts  --      0.1534                 0.2692                 0.6930
 IR Inten    --      0.8356                 3.2666                 6.9486

                     10                     11                     12
                      A                      A                      A
 Frequencies --    602.3957               729.9681               887.1176
 Red. masses --      2.3092                 2.5414                 2.6788
 Frc consts  --      0.4937                 0.7979                 1.2421
 IR Inten    --      1.2843                 3.1094                 1.0022

                     13                     14                     15
                      A                      A                      A
 Frequencies --    931.2460               954.4486               970.7702
 Red. masses --      1.1593                 1.6433                 1.4184
 Frc consts  --      0.5924                 0.8820                 0.7876
 IR Inten    --      1.1130                17.0979                 0.6844

                     16                     17                     18
                      A                      A                      A
 Frequencies --   1005.1091              1119.0723              1126.8535
 Red. masses --      1.8121                 1.6748                 2.3614
 Frc consts  --      1.0786                 1.2357                 1.7667
 IR Inten    --      3.3038                18.0965                 5.7680

                     19                     20                     21
                      A                      A                      A
 Frequencies --   1164.8858              1207.9611              1324.4887
 Red. masses --      2.1764                 1.9232                 1.3691
 Frc consts  --      1.7400                 1.6534                 1.4150
 IR Inten    --     37.6318                26.3543                 5.7972

                     22                     23                     24
                      A                      A                      A
 Frequencies --   1366.4240              1383.3812              1396.2693
 Red. masses --      1.3771                 1.4377                 1.2495
 Frc consts  --      1.5149                 1.6211                 1.4352
 IR Inten    --      6.7775                32.0810                 2.4325

                     25                     26                     27
                      A                      A                      A
 Frequencies --   1417.4433              1462.4576              1475.9839
 Red. masses --      1.2190                 1.0527                 1.0518
 Frc consts  --      1.4430                 1.3265                 1.3501
 IR Inten    --      6.2536                 8.1482                 7.1922

                     28                     29                     30
                      A                      A                      A
 Frequencies --   1485.5415              1488.6516              1502.1042
 Red. masses --      1.0402                 1.0489                 1.0470
 Frc consts  --      1.3525                 1.3695                 1.3918
 IR Inten    --      1.3514                 1.9721                 9.1356

                     31                     32                     33
                      A                      A                      A
 Frequencies --   1511.3306              1810.9603              3021.6445
 Red. masses --      1.0625                10.4057                 1.0804
 Frc consts  --      1.4299                20.1065                 5.8119
 IR Inten    --     10.7710               128.8603                17.4470

                     34                     35                     36
                      A                      A                      A
 Frequencies --   3033.8084              3035.4143              3042.9102
 Red. masses --      1.0385                 1.0353                 1.0360
 Frc consts  --      5.6315                 5.6201                 5.6516
 IR Inten    --     10.1233                19.9961                18.6691

                     37                     38                     39
                      A                      A                      A
 Frequencies --   3094.5029              3104.8695              3108.7061
 Red. masses --      1.0967                 1.1013                 1.1019
 Frc consts  --      6.1875                 6.2552                 6.2739
 IR Inten    --      7.7103                26.2170                28.8430

                     40                     41                     42
                      A                      A                      A
 Frequencies --   3111.9577              3128.4417              3150.7834
 Red. masses --      1.1025                 1.1007                 1.1021
 Frc consts  --      6.2904                 6.3469                 6.4464
 IR Inten    --     18.1006                19.2798                11.6093

 - Thermochemistry -
 -------------------
 Temperature   298.150 Kelvin.  Pressure   1.00000 Atm.
 Atom     1 has atomic number  6 and mass  12.00000

 Molecular mass:    86.07317 amu.
 Principal axes and moments of inertia in atomic units:
                           1         2         3
     Eigenvalues --   380.98096 649.22288 802.19604
           X            0.99824   0.05493   0.02244
           Y           -0.05343   0.99662  -0.06246
           Z           -0.02579   0.06115   0.99780
 This molecule is an asymmetric top.
 Rotational symmetry number  1.
 Rotational temperatures (Kelvin)      0.22734     0.13341     0.10797
 Rotational constants (GHZ):           4.73709     2.77985     2.24975
 Zero-point vibrational energy     368649.8 (Joules/Mol)
                                   88.10941 (Kcal/Mol)
 Warning -- explicit consideration of  10 degrees of freedom as
           vibrations may cause significant error
 Vibrational temperatures:     66.37   201.91   284.09   324.00   337.50
          (Kelvin)            409.95   466.59   620.20   851.11   866.71
                             1050.26  1276.36  1339.85  1373.24  1396.72
                             1446.13  1610.09  1621.29  1676.01  1737.98
                             1905.64  1965.98  1990.37  2008.92  2039.38
                             2104.15  2123.61  2137.36  2141.83  2161.19
                             2174.46  2605.56  4347.47  4364.97  4367.28
                             4378.06  4452.29  4467.21  4472.73  4477.41
                             4501.12  4533.27

 Zero-point correction=                           0.140411 (Hartree/Particle)
 Thermal correction to Energy=                    0.148258
 Thermal correction to Enthalpy=                  0.149202
 Thermal correction to Gibbs Free Energy=         0.108560
 Sum of electronic and zero-point Energies=           -271.665154
 Sum of electronic and thermal Energies=              -271.657307
 Sum of electronic and thermal Enthalpies=            -271.656363
 Sum of electronic and thermal Free Energies=         -271.697005

                     E (Thermal)             CV                S
                      KCal/Mol        Cal/Mol-Kelvin    Cal/Mol-Kelvin
 Total                   93.033             27.077             85.539
 Electronic               0.000              0.000              0.000
 Translational            0.889              2.981             39.271
 Rotational               0.889              2.981             26.787
 Vibrational             91.256             21.115             19.481
 Vibration     1          0.595              1.979              4.977
 Vibration     2          0.615              1.913              2.799
 Vibration     3          0.637              1.843              2.157
 Vibration     4          0.650              1.803              1.917
 Vibration     5          0.654              1.788              1.844
 Vibration     6          0.683              1.702              1.504
 Vibration     7          0.709              1.627              1.288
 Vibration     8          0.792              1.403              0.855
 Vibration     9          0.949              1.050              0.464
 Vibration    10          0.961              1.027              0.446

 Normal termination of Gaussian 09 at Tue Aug 30 12:13:29 2022.

 -----------------------------------------------------------------
 #P Geom=AllCheck Guess=TCheck SCRF=Check CCSD(T,E4T,FrzG4)/GTBas1
 -----------------------------------------------------------------

 Structure from the checkpoint file:  "G4.Frag_452.chk"
 --------
 Frag_452
 --------
 Charge =  0 Multiplicity = 1

 SCF Done:  E(RHF) =  -270.029915019     A.U. after   14 cycles
 E2 =    -0.8269862550D+00 EUMP2 =    -0.27085690127409D+03
 CCSD(T)
 CCSD(T)= -0.27094290815D+03
 270.9440581\MP4SDQ=-270.9155238\CCSD=-270.9150068\CCSD(T)=-270.9429082
 Normal termination of Gaussian 09 at Tue Aug 30 12:15:46 2022.

 ---------------------------------------------------------
 #P Geom=AllCheck Guess=TCheck SCRF=Check MP4=FrzG4/GTBas2
 ---------------------------------------------------------

 Structure from the checkpoint file:  "G4.Frag_452.chk"
 --------
 Frag_452
 --------
 Charge =  0 Multiplicity = 1

 SCF Done:  E(RHF) =  -270.035465271     A.U. after   12 cycles
 E2 =    -0.8370082408D+00 EUMP2 =    -0.27087247351161D+03
 Normal termination of Gaussian 09 at Tue Aug 30 12:16:32 2022.

 ---------------------------------------------------------
 #P Geom=AllCheck Guess=TCheck SCRF=Check MP4=FrzG4/GTBas3
 ---------------------------------------------------------

 Structure from the checkpoint file:  "G4.Frag_452.chk"
 --------
 Frag_452
 --------
 Charge =  0 Multiplicity = 1

 SCF Done:  E(RHF) =  -270.061680756     A.U. after   11 cycles
 E2 =    -0.1026012521D+01 EUMP2 =    -0.27108769327717D+03
 Normal termination of Gaussian 09 at Tue Aug 30 12:20:42 2022.

 -----------------------------------------------------------
 #P Geom=AllCheck Guess=TCheck SCRF=Check MP2=Full/GTLargeXP
 -----------------------------------------------------------

 Structure from the checkpoint file:  "G4.Frag_452.chk"
 --------
 Frag_452
 --------
 Charge =  0 Multiplicity = 1

 SCF Done:  E(RHF) =  -270.124418407     A.U. after   12 cycles
 E2 =    -0.1350746701D+01 EUMP2 =    -0.27147516510752D+03
 Normal termination of Gaussian 09 at Tue Aug 30 12:22:51 2022.
 SCF Done:  E(RHF) =  -270.145835375     A.U. after    9 cycles
 Normal termination of Gaussian 09 at Tue Aug 30 12:25:19 2022.

                         Standard orientation:
 ---------------------------------------------------------------------
 Center     Atomic      Atomic             Coordinates (Angstroms)
 Number     Number       Type             X           Y           Z
 ---------------------------------------------------------------------
      1          6           0       -1.956736   -0.501954   -0.477263
      2          6           0       -0.752450    0.246977    0.066467
      3          8           0       -0.872118    1.166112    0.844058
      4          6           0        0.624466   -0.232523   -0.406152
      5          6           0        1.623506    0.926087   -0.470558
      6          6           0        1.108925   -1.339771    0.554301
      7          1           0       -2.078736   -0.263861   -1.541186
      8          1           0       -2.858226   -0.207193    0.061266
      9          1           0       -1.815044   -1.585816   -0.411771
     10          1           0        0.506147   -0.678073   -1.402415
     11          1           0        1.313273    1.679383   -1.201005
     12          1           0        1.692943    1.418738    0.502357
     13          1           0        2.616568    0.564322   -0.754205
     14          1           0        1.230975   -0.938733    1.565460
     15          1           0        2.075360   -1.731924    0.223471
     16          1           0        0.407424   -2.178641    0.604796
 ---------------------------------------------------------------------

 SCF Done:  E(RHF) =  -270.150317826     A.U. after    7 cycles

 The electronic state is 1-A.
 Alpha  occ. eigenvalues --  -20.53964 -11.32573 -11.24293 -11.23389 -11.22873
 Alpha  occ. eigenvalues --  -11.21554  -1.38499  -1.08573  -1.00200  -0.93714
 Alpha  occ. eigenvalues --   -0.84908  -0.72333  -0.66483  -0.63277  -0.61213
 Alpha  occ. eigenvalues --   -0.59526  -0.57194  -0.55342  -0.54465  -0.51864
 Alpha  occ. eigenvalues --   -0.50309  -0.48539  -0.47461  -0.40239
 Alpha virt. eigenvalues --    0.03138   0.03867   0.04136   0.04863   0.06374
 Alpha virt. eigenvalues --    0.06714   0.07054   0.07303   0.07762   0.09376
 Alpha virt. eigenvalues --    0.09625   0.09858   0.10411   0.10944   0.11859

 Mulliken charges:
               1
     1  C   -0.581743
     2  C    0.444059
     3  O   -0.536342
     4  C   -0.007682
     5  C   -0.555891
     6  C   -0.548619
     7  H    0.189941
     8  H    0.210697
     9  H    0.185372
    10  H    0.158424
    11  H    0.162704
    12  H    0.199633
    13  H    0.163174
    14  H    0.186244
    15  H    0.171413
    16  H    0.158616
 Sum of Mulliken charges =  -0.00000

 Dipole moment (field-independent basis, Debye):
    X=              0.4648    Y=             -2.4806    Z=             -1.9940  Tot=              3.2164
 Quadrupole moment (field-independent basis, Debye-Ang):
   XX=            -37.3831   YY=            -41.2362   ZZ=            -39.4992
   XY=              2.2721   XZ=              2.1353   YZ=             -2.4518

 Normal termination of Gaussian 09 at Tue Aug 30 12:32:47 2022.
