 Gaussian 09, Revision E.01,
 Gaussian 09:  ES64L-G09RevE.01 30-Nov-2015

 -----
 #P G4
 -----

 --------
 Frag_473
 --------
 Symbolic Z-matrix:
 Charge =  0 Multiplicity = 1

 SCF Done:  E(RB3LYP) =  -419.619140709     A.U. after   12 cycles
 SCF Done:  E(RB3LYP) =  -419.629032017     A.U. after   11 cycles
 SCF Done:  E(RB3LYP) =  -419.630273507     A.U. after   11 cycles
 SCF Done:  E(RB3LYP) =  -419.630527447     A.U. after   10 cycles
 SCF Done:  E(RB3LYP) =  -419.630868428     A.U. after   10 cycles
 SCF Done:  E(RB3LYP) =  -419.630925007     A.U. after    9 cycles
 SCF Done:  E(RB3LYP) =  -419.630948271     A.U. after    9 cycles
 SCF Done:  E(RB3LYP) =  -419.630982570     A.U. after    9 cycles
 SCF Done:  E(RB3LYP) =  -419.631011305     A.U. after    9 cycles
 SCF Done:  E(RB3LYP) =  -419.631038612     A.U. after    9 cycles
 SCF Done:  E(RB3LYP) =  -419.631045030     A.U. after    7 cycles
 SCF Done:  E(RB3LYP) =  -419.631045924     A.U. after    7 cycles
 SCF Done:  E(RB3LYP) =  -419.631046498     A.U. after    7 cycles
 Optimization completed.
    -- Stationary point found.
 Normal termination of Gaussian 09 at Fri Aug 26 07:31:10 2022.

 ----------------------------------------------------------
 #P Geom=AllCheck Guess=TCheck SCRF=Check B3LYP/GTBas3 Freq
 ----------------------------------------------------------

 Structure from the checkpoint file:  "G4.Frag_473.chk"
 --------
 Frag_473
 --------
 Charge =  0 Multiplicity = 1

 SCF Done:  E(RB3LYP) =  -419.631046498     A.U. after    1 cycles

  Exact polarizability:  72.210   1.198  65.217  -0.602  -0.305  62.577
 Approx polarizability:  96.886   0.264  93.925  -1.396   0.036  91.239

                      1                      2                      3
                      A                      A                      A
 Frequencies --     92.5504               175.7924               189.0333
 Red. masses --      3.0872                 1.1258                 1.0737
 Frc consts  --      0.0156                 0.0205                 0.0226
 IR Inten    --      5.5579                80.6197                14.1622

                      4                      5                      6
                      A                      A                      A
 Frequencies --    220.1287               249.4721               270.0332
 Red. masses --      1.0652                 2.2192                 1.5027
 Frc consts  --      0.0304                 0.0814                 0.0646
 IR Inten    --      0.6909                 1.4559                 4.2621

                      7                      8                      9
                      A                      A                      A
 Frequencies --    275.1891               339.2034               366.6057
 Red. masses --      2.2360                 1.7964                 3.2190
 Frc consts  --      0.0998                 0.1218                 0.2549
 IR Inten    --      1.7789                 5.7294                 4.3429

                     10                     11                     12
                      A                      A                      A
 Frequencies --    369.7606               407.1222               421.0194
 Red. masses --      2.6754                 1.5072                 3.2345
 Frc consts  --      0.2155                 0.1472                 0.3378
 IR Inten    --     23.8325                21.2693                 0.0723

                     13                     14                     15
                      A                      A                      A
 Frequencies --    437.8233               516.1031               539.7038
 Red. masses --      3.0221                 1.7281                 2.8129
 Frc consts  --      0.3413                 0.2712                 0.4827
 IR Inten    --     25.5187                12.4116                30.5953

                     16                     17                     18
                      A                      A                      A
 Frequencies --    551.8887               593.7683               690.6907
 Red. masses --      2.8165                 1.8728                 3.1270
 Frc consts  --      0.5054                 0.3890                 0.8789
 IR Inten    --     26.8012               129.9190                 2.3564

                     19                     20                     21
                      A                      A                      A
 Frequencies --    817.7013               863.8803               891.1057
 Red. masses --      1.7756                 2.5468                 1.7438
 Frc consts  --      0.6995                 1.1198                 0.8158
 IR Inten    --     89.1262                21.5783               192.2027

                     22                     23                     24
                      A                      A                      A
 Frequencies --    927.3624               953.3673               969.3806
 Red. masses --      1.5550                 2.0037                 1.8161
 Frc consts  --      0.7879                 1.0730                 1.0055
 IR Inten    --     24.0468                 6.8655                22.7295

                     25                     26                     27
                      A                      A                      A
 Frequencies --   1033.2572              1076.0209              1078.5958
 Red. masses --      1.5645                 1.8210                 1.5057
 Frc consts  --      0.9841                 1.2422                 1.0320
 IR Inten    --     34.6759               136.2914                18.5530

                     28                     29                     30
                      A                      A                      A
 Frequencies --   1122.1100              1176.5173              1223.5836
 Red. masses --      2.0213                 2.1639                 2.6864
 Frc consts  --      1.4995                 1.7648                 2.3697
 IR Inten    --     40.5056                 9.9862                58.0932

                     31                     32                     33
                      A                      A                      A
 Frequencies --   1297.4694              1320.9398              1386.3143
 Red. masses --      1.9093                 2.0302                 1.3371
 Frc consts  --      1.8937                 2.0872                 1.5141
 IR Inten    --     32.5495                26.3635                22.6327

                     34                     35                     36
                      A                      A                      A
 Frequencies --   1405.1332              1405.9416              1430.4081
 Red. masses --      1.3254                 1.6703                 1.4848
 Frc consts  --      1.5418                 1.9452                 1.7900
 IR Inten    --     37.7065                 6.3097                69.8004

                     37                     38                     39
                      A                      A                      A
 Frequencies --   1478.4774              1493.1271              1496.7889
 Red. masses --      1.0518                 1.0562                 1.0622
 Frc consts  --      1.3545                 1.3874                 1.4021
 IR Inten    --      0.1898                 1.8507                 1.3299

                     40                     41                     42
                      A                      A                      A
 Frequencies --   1500.6319              1633.7788              1641.2827
 Red. masses --      1.0988                 1.1028                 1.1093
 Frc consts  --      1.4579                 1.7343                 1.7606
 IR Inten    --      3.7352                73.9365                 0.8133

                     43                     44                     45
                      A                      A                      A
 Frequencies --   3038.0711              3049.3335              3105.6010
 Red. masses --      1.0419                 1.0372                 1.0935
 Frc consts  --      5.6658                 5.6825                 6.2140
 IR Inten    --     21.1314                13.0925                26.2632

                     46                     47                     48
                      A                      A                      A
 Frequencies --   3116.4600              3145.7205              3148.1338
 Red. masses --      1.1006                 1.1022                 1.1000
 Frc consts  --      6.2980                 6.4264                 6.4232
 IR Inten    --     21.7001                16.5652                12.5041

                     49                     50                     51
                      A                      A                      A
 Frequencies --   3483.2619              3498.1886              3564.9049
 Red. masses --      1.0492                 1.0471                 1.0917
 Frc consts  --      7.5000                 7.5494                 8.1742
 IR Inten    --      0.5433                 2.4113                 0.2039

                     52                     53                     54
                      A                      A                      A
 Frequencies --   3589.8478              3734.8591              3822.6181
 Red. masses --      1.0946                 1.0638                 1.0663
 Frc consts  --      8.3107                 8.7433                 9.1800
 IR Inten    --      3.0668                47.1881                14.8407

 - Thermochemistry -
 -------------------
 Temperature   298.150 Kelvin.  Pressure   1.00000 Atm.
 Atom     1 has atomic number  6 and mass  12.00000

 Molecular mass:   120.08988 amu.
 Principal axes and moments of inertia in atomic units:
                           1         2         3
     Eigenvalues --   720.007061008.558371015.47089
           X            0.99964   0.00550   0.02637
           Y           -0.02450  -0.22132   0.97489
           Z           -0.01120   0.97518   0.22111
 This molecule is an asymmetric top.
 Rotational symmetry number  1.
 Warning -- assumption of classical behavior for rotation
           may cause significant error
 Rotational temperatures (Kelvin)      0.12030     0.08588     0.08529
 Rotational constants (GHZ):           2.50656     1.78943     1.77725
 Zero-point vibrational energy     458325.6 (Joules/Mol)
                                  109.54246 (Kcal/Mol)
 Warning -- explicit consideration of  17 degrees of freedom as
           vibrations may cause significant error
 Vibrational temperatures:    133.16   252.93   271.98   316.72   358.93
          (Kelvin)            388.52   395.94   488.04   527.46   532.00
                              585.76   605.75   629.93   742.56   776.51
                              794.04   854.30   993.75  1176.49  1242.93
                             1282.10  1334.27  1371.68  1394.72  1486.62
                             1548.15  1551.86  1614.46  1692.74  1760.46
                             1866.77  1900.54  1994.59  2021.67  2022.83
                             2058.04  2127.20  2148.27  2153.54  2159.07
                             2350.64  2361.44  4371.10  4387.31  4468.26
                             4483.89  4525.98  4529.46  5011.63  5033.11
                             5129.10  5164.98  5373.62  5499.89

 Zero-point correction=                           0.174567 (Hartree/Particle)
 Thermal correction to Energy=                    0.184600
 Thermal correction to Enthalpy=                  0.185544
 Thermal correction to Gibbs Free Energy=         0.141185
 Sum of electronic and zero-point Energies=           -419.456479
 Sum of electronic and thermal Energies=              -419.446447
 Sum of electronic and thermal Enthalpies=            -419.445503
 Sum of electronic and thermal Free Energies=         -419.489861

                     E (Thermal)             CV                S
                      KCal/Mol        Cal/Mol-Kelvin    Cal/Mol-Kelvin
 Total                  115.838             38.718             93.360
 Electronic               0.000              0.000              0.000
 Translational            0.889              2.981             40.264
 Rotational               0.889              2.981             28.091
 Vibrational            114.061             32.756             25.006
 Vibration     1          0.602              1.955              3.605
 Vibration     2          0.628              1.872              2.373
 Vibration     3          0.633              1.855              2.237
 Vibration     4          0.647              1.810              1.958
 Vibration     5          0.662              1.764              1.734
 Vibration     6          0.674              1.728              1.596
 Vibration     7          0.677              1.719              1.563
 Vibration     8          0.719              1.597              1.216
 Vibration     9          0.740              1.541              1.094
 Vibration    10          0.742              1.534              1.081
 Vibration    11          0.772              1.455              0.937
 Vibration    12          0.784              1.425              0.889
 Vibration    13          0.798              1.388              0.833
 Vibration    14          0.871              1.214              0.619
 Vibration    15          0.895              1.162              0.566
 Vibration    16          0.907              1.136              0.540
 Vibration    17          0.951              1.045              0.460

 Optimization completed.
    -- Stationary point found.
 Normal termination of Gaussian 09 at Fri Aug 26 07:32:29 2022.

 -----------------------------------------------------------------
 #P Geom=AllCheck Guess=TCheck SCRF=Check CCSD(T,E4T,FrzG4)/GTBas1
 -----------------------------------------------------------------

 Structure from the checkpoint file:  "G4.Frag_473.chk"
 --------
 Frag_473
 --------
 Charge =  0 Multiplicity = 1

 SCF Done:  E(RHF) =  -417.058498746     A.U. after   12 cycles
 E2 =    -0.1221475189D+01 EUMP2 =    -0.41827997393462D+03
 CCSD(T)
 CCSD(T)= -0.41838135226D+03
 SD=-418.3459398\CCSD(T)=-418.3813523\RMSD=3.423e-09\PG=C01 [X(C4H12N2O
 Normal termination of Gaussian 09 at Fri Aug 26 07:41:50 2022.

 ---------------------------------------------------------
 #P Geom=AllCheck Guess=TCheck SCRF=Check MP4=FrzG4/GTBas2
 ---------------------------------------------------------

 Structure from the checkpoint file:  "G4.Frag_473.chk"
 --------
 Frag_473
 --------
 Charge =  0 Multiplicity = 1

 SCF Done:  E(RHF) =  -417.073625541     A.U. after   12 cycles
 E2 =    -0.1244203644D+01 EUMP2 =    -0.41831782918548D+03
 Normal termination of Gaussian 09 at Fri Aug 26 07:45:04 2022.

 ---------------------------------------------------------
 #P Geom=AllCheck Guess=TCheck SCRF=Check MP4=FrzG4/GTBas3
 ---------------------------------------------------------

 Structure from the checkpoint file:  "G4.Frag_473.chk"
 --------
 Frag_473
 --------
 Charge =  0 Multiplicity = 1

 SCF Done:  E(RHF) =  -417.120648694     A.U. after   11 cycles
 E2 =    -0.1512436144D+01 EUMP2 =    -0.41863308483831D+03
 Normal termination of Gaussian 09 at Fri Aug 26 08:12:39 2022.

 -----------------------------------------------------------
 #P Geom=AllCheck Guess=TCheck SCRF=Check MP2=Full/GTLargeXP
 -----------------------------------------------------------

 Structure from the checkpoint file:  "G4.Frag_473.chk"
 --------
 Frag_473
 --------
 Charge =  0 Multiplicity = 1

 SCF Done:  E(RHF) =  -417.231729335     A.U. after   12 cycles
 E2 =    -0.1971616511D+01 EUMP2 =    -0.41920334584636D+03
 Normal termination of Gaussian 09 at Fri Aug 26 08:19:48 2022.
 SCF Done:  E(RHF) =  -417.264349404     A.U. after    9 cycles
 Normal termination of Gaussian 09 at Fri Aug 26 08:27:27 2022.

                         Standard orientation:
 ---------------------------------------------------------------------
 Center     Atomic      Atomic             Coordinates (Angstroms)
 Number     Number       Type             X           Y           Z
 ---------------------------------------------------------------------
      1          6           0       -1.390952    1.402710    0.189535
      2          6           0       -0.779893    0.010435    0.029179
      3          7           0       -1.198665   -0.833485    1.124544
      4          8           0       -1.155679   -0.520564   -1.263417
      5          6           0        0.789453   -0.001302   -0.016662
      6          6           0        1.432234    0.306852    1.338591
      7          7           0        1.238006    0.894090   -1.090220
      8          8           0        1.191450   -1.312934   -0.360653
      9          1           0       -1.048273    1.889307    1.106003
     10          1           0       -1.146377    2.021283   -0.675512
     11          1           0       -2.483236    1.324359    0.242370
     12          1           0       -2.209441   -0.899414    1.182160
     13          1           0       -0.807341   -1.762821    1.006359
     14          1           0       -2.039951   -0.887970   -1.169169
     15          1           0        1.083338   -0.374643    2.114835
     16          1           0        1.207079    1.330061    1.652651
     17          1           0        2.517438    0.209400    1.238718
     18          1           0        2.232809    0.729440   -1.220518
     19          1           0        1.142014    1.865500   -0.807343
     20          1           0        0.685331   -1.512912   -1.162118
 ---------------------------------------------------------------------

 SCF Done:  E(RHF) =  -417.271678267     A.U. after    8 cycles

 The electronic state is 1-A.
 Alpha  occ. eigenvalues --  -20.55651 -20.54637 -15.54809 -15.53602 -11.31816
 Alpha  occ. eigenvalues --  -11.31200 -11.22186 -11.20833  -1.38931  -1.35112
 Alpha  occ. eigenvalues --   -1.18676  -1.16609  -1.00487  -0.97469  -0.87227
 Alpha  occ. eigenvalues --   -0.76435  -0.71562  -0.69351  -0.67738  -0.65092
 Alpha  occ. eigenvalues --   -0.61147  -0.59795  -0.57807  -0.55929  -0.55576
 Alpha  occ. eigenvalues --   -0.54290  -0.52780  -0.52525  -0.49807  -0.46598
 Alpha  occ. eigenvalues --   -0.44283  -0.41756  -0.39235
 Alpha virt. eigenvalues --    0.02946   0.03872   0.04429   0.05174   0.06350
 Alpha virt. eigenvalues --    0.06467   0.06872   0.07122   0.07671   0.09181
 Alpha virt. eigenvalues --    0.09534   0.10087   0.10445   0.11123   0.12468

 Mulliken charges:
               1
     1  C   -0.605309
     2  C    0.476807
     3  N   -0.782108
     4  O   -0.622302
     5  C    0.466625
     6  C   -0.554388
     7  N   -0.768778
     8  O   -0.646149
     9  H    0.182065
    10  H    0.198514
    11  H    0.157094
    12  H    0.284610
    13  H    0.325793
    14  H    0.364745
    15  H    0.189751
    16  H    0.164949
    17  H    0.173847
    18  H    0.301640
    19  H    0.285042
    20  H    0.407553
 Sum of Mulliken charges =  -0.00000

 Dipole moment (field-independent basis, Debye):
    X=             -1.9021    Y=              0.7431    Z=              0.9097  Tot=              2.2356
 Quadrupole moment (field-independent basis, Debye-Ang):
   XX=            -43.3776   YY=            -47.1318   ZZ=            -56.6826
   XY=              5.8487   XZ=             -0.2680   YZ=              1.3770

 Normal termination of Gaussian 09 at Fri Aug 26 08:47:30 2022.
