 Gaussian 09, Revision E.01,
 Gaussian 09:  ES64L-G09RevE.01 30-Nov-2015

 -----
 #P G4
 -----

 --------
 Frag_649
 --------
 Symbolic Z-matrix:
 Charge =  0 Multiplicity = 1

 SCF Done:  E(RB3LYP) =  -195.192961462     A.U. after   21 cycles
 SCF Done:  E(RB3LYP) =  -195.196255267     A.U. after   18 cycles
 SCF Done:  E(RB3LYP) =  -195.224090515     A.U. after   14 cycles
 SCF Done:  E(RB3LYP) =  -195.267342218     A.U. after   14 cycles
 SCF Done:  E(RB3LYP) =  -195.276463898     A.U. after   14 cycles
 SCF Done:  E(RB3LYP) =  -195.299719686     A.U. after   13 cycles
 SCF Done:  E(RB3LYP) =  -195.302878346     A.U. after   13 cycles
 SCF Done:  E(RB3LYP) =  -195.308144269     A.U. after   13 cycles
 SCF Done:  E(RB3LYP) =  -195.307945670     A.U. after   10 cycles
 SCF Done:  E(RB3LYP) =  -195.308269771     A.U. after    8 cycles
 SCF Done:  E(RB3LYP) =  -195.311517723     A.U. after    8 cycles
 SCF Done:  E(RB3LYP) =  -195.311518225     A.U. after    7 cycles
 SCF Done:  E(RB3LYP) =  -195.311518449     A.U. after    6 cycles
 Optimization completed.
    -- Stationary point found.
 Normal termination of Gaussian 09 at Fri Aug 26 14:59:04 2022.

 ----------------------------------------------------------
 #P Geom=AllCheck Guess=TCheck SCRF=Check B3LYP/GTBas3 Freq
 ----------------------------------------------------------

 Structure from the checkpoint file:  "G4.Frag_649.chk"
 --------
 Frag_649
 --------
 Charge =  0 Multiplicity = 1

 SCF Done:  E(RB3LYP) =  -195.311518449     A.U. after    1 cycles

  Exact polarizability:  87.521   0.001  44.779  -0.001  -0.001  39.394
 Approx polarizability: 130.806   0.002  58.107  -0.000  -0.001  56.856

                      1                      2                      3
                      A                      A                      A
 Frequencies --    171.0742               185.4562               186.1708
 Red. masses --      1.0251                 3.0535                 1.1027
 Frc consts  --      0.0177                 0.0619                 0.0225
 IR Inten    --      0.0000                 0.1081                 0.9268

                      4                      5                      6
                      A                      A                      A
 Frequencies --    267.0997               336.7736               467.2834
 Red. masses --      2.1796                 2.2678                 2.8281
 Frc consts  --      0.0916                 0.1515                 0.3638
 IR Inten    --      3.5516                 0.1046                 0.1999

                      7                      8                      9
                      A                      A                      A
 Frequencies --    607.7410               616.8494               736.2560
 Red. masses --      4.8638                 1.0090                 3.7838
 Frc consts  --      1.0584                 0.2262                 1.2085
 IR Inten    --      8.6845                 0.0000                 0.0598

                     10                     11                     12
                      A                      A                      A
 Frequencies --    875.5423               966.8568              1004.1890
 Red. masses --      1.3223                 1.4264                 1.2340
 Frc consts  --      0.5972                 0.7856                 0.7331
 IR Inten    --     41.3021                 0.0558                 0.0000

                     13                     14                     15
                      A                      A                      A
 Frequencies --   1026.7716              1028.0956              1098.6234
 Red. masses --      1.5020                 1.5352                 1.5802
 Frc consts  --      0.9330                 0.9561                 1.1237
 IR Inten    --      0.6904                 6.8199                 0.1175

                     16                     17                     18
                      A                      A                      A
 Frequencies --   1207.8377              1321.8005              1396.3177
 Red. masses --      4.1231                 2.0448                 1.2355
 Frc consts  --      3.5440                 2.1049                 1.4193
 IR Inten    --      5.6229                18.5106                 1.4374

                     19                     20                     21
                      A                      A                      A
 Frequencies --   1413.4250              1474.2543              1475.6797
 Red. masses --      1.2298                 1.0463                 1.1972
 Frc consts  --      1.4475                 1.3398                 1.5361
 IR Inten    --      3.1756                 0.0001                 2.9813

                     22                     23                     24
                      A                      A                      A
 Frequencies --   1483.1440              1490.4114              1517.6853
 Red. masses --      1.0444                 1.0428                 1.3129
 Frc consts  --      1.3536                 1.3647                 1.7817
 IR Inten    --      5.3619                11.7643                 1.3169

                     25                     26                     27
                      A                      A                      A
 Frequencies --   2078.1535              3015.0159              3019.5991
 Red. masses --     10.2462                 1.0384                 1.0386
 Frc consts  --     26.0715                 5.5613                 5.5793
 IR Inten    --     21.0246                17.3348                58.1916

                     28                     29                     30
                      A                      A                      A
 Frequencies --   3064.5717              3066.3954              3117.1679
 Red. masses --      1.0998                 1.0993                 1.0586
 Frc consts  --      6.0858                 6.0901                 6.0603
 IR Inten    --      0.2239                45.6375                 9.8141

                     31                     32                     33
                      A                      A                      A
 Frequencies --   3129.4557              3130.6110              3184.4661
 Red. masses --      1.0980                 1.0984                 1.1134
 Frc consts  --      6.3358                 6.3426                 6.6522
 IR Inten    --     17.3152                15.9205                 5.9254

 - Thermochemistry -
 -------------------
 Temperature   298.150 Kelvin.  Pressure   1.00000 Atm.
 Atom     1 has atomic number  6 and mass  12.00000

 Molecular mass:    68.06260 amu.
 Principal axes and moments of inertia in atomic units:
                           1         2         3
     Eigenvalues --   218.69156 497.72577 681.76828
           X            1.00000  -0.00001  -0.00000
           Y            0.00001   1.00000  -0.00000
           Z            0.00000   0.00000   1.00000
 This molecule is an asymmetric top.
 Rotational symmetry number  1.
 Rotational temperatures (Kelvin)      0.39605     0.17402     0.12704
 Rotational constants (GHZ):           8.25245     3.62598     2.64715
 Zero-point vibrational energy     294046.7 (Joules/Mol)
                                   70.27886 (Kcal/Mol)
 Warning -- explicit consideration of   8 degrees of freedom as
           vibrations may cause significant error
 Vibrational temperatures:    246.14   266.83   267.86   384.30   484.54
          (Kelvin)            672.32   874.40   887.51  1059.31  1259.71
                             1391.09  1444.80  1477.29  1479.20  1580.67
                             1737.81  1901.77  2008.99  2033.60  2121.12
                             2123.17  2133.91  2144.37  2183.61  2990.00
                             4337.93  4344.52  4409.23  4411.85  4484.90
                             4502.58  4504.25  4581.73

 Zero-point correction=                           0.111996 (Hartree/Particle)
 Thermal correction to Energy=                    0.118393
 Thermal correction to Enthalpy=                  0.119337
 Thermal correction to Gibbs Free Energy=         0.082847
 Sum of electronic and zero-point Energies=           -195.199522
 Sum of electronic and thermal Energies=              -195.193125
 Sum of electronic and thermal Enthalpies=            -195.192181
 Sum of electronic and thermal Free Energies=         -195.228671

                     E (Thermal)             CV                S
                      KCal/Mol        Cal/Mol-Kelvin    Cal/Mol-Kelvin
 Total                   74.293             22.235             76.800
 Electronic               0.000              0.000              0.000
 Translational            0.889              2.981             38.571
 Rotational               0.889              2.981             25.809
 Vibrational             72.515             16.274             12.420
 Vibration     1          0.626              1.878              2.424
 Vibration     2          0.632              1.860              2.273
 Vibration     3          0.632              1.859              2.266
 Vibration     4          0.672              1.734              1.615
 Vibration     5          0.717              1.602              1.227
 Vibration     6          0.825              1.323              0.745
 Vibration     7          0.967              1.015              0.437
 Vibration     8          0.977              0.996              0.422

 Optimization completed.
    -- Stationary point found.
 Normal termination of Gaussian 09 at Fri Aug 26 14:59:25 2022.

 -----------------------------------------------------------------
 #P Geom=AllCheck Guess=TCheck SCRF=Check CCSD(T,E4T,FrzG4)/GTBas1
 -----------------------------------------------------------------

 Structure from the checkpoint file:  "G4.Frag_649.chk"
 --------
 Frag_649
 --------
 Charge =  0 Multiplicity = 1

 SCF Done:  E(RHF) =  -193.936988363     A.U. after   12 cycles
 E2 =    -0.6377144358D+00 EUMP2 =    -0.19457470279931D+03
 CCSD(T)
 CCSD(T)= -0.19465346215D+03
 DTQ=-194.6513186\MP4SDQ=-194.6267762\CCSD=-194.6281633\CCSD(T)=-194.65
 Normal termination of Gaussian 09 at Fri Aug 26 15:00:16 2022.

 ---------------------------------------------------------
 #P Geom=AllCheck Guess=TCheck SCRF=Check MP4=FrzG4/GTBas2
 ---------------------------------------------------------

 Structure from the checkpoint file:  "G4.Frag_649.chk"
 --------
 Frag_649
 --------
 Charge =  0 Multiplicity = 1

 SCF Done:  E(RHF) =  -193.942295622     A.U. after   12 cycles
 E2 =    -0.6434665946D+00 EUMP2 =    -0.19458576221689D+03
 Normal termination of Gaussian 09 at Fri Aug 26 15:00:32 2022.

 ---------------------------------------------------------
 #P Geom=AllCheck Guess=TCheck SCRF=Check MP4=FrzG4/GTBas3
 ---------------------------------------------------------

 Structure from the checkpoint file:  "G4.Frag_649.chk"
 --------
 Frag_649
 --------
 Charge =  0 Multiplicity = 1

 SCF Done:  E(RHF) =  -193.962402067     A.U. after   10 cycles
 E2 =    -0.7817543134D+00 EUMP2 =    -0.19474415638077D+03
 Normal termination of Gaussian 09 at Fri Aug 26 15:01:58 2022.

 -----------------------------------------------------------
 #P Geom=AllCheck Guess=TCheck SCRF=Check MP2=Full/GTLargeXP
 -----------------------------------------------------------

 Structure from the checkpoint file:  "G4.Frag_649.chk"
 --------
 Frag_649
 --------
 Charge =  0 Multiplicity = 1

 SCF Done:  E(RHF) =  -194.003758034     A.U. after   11 cycles
 E2 =    -0.1040167428D+01 EUMP2 =    -0.19504392546163D+03
 Normal termination of Gaussian 09 at Fri Aug 26 15:02:51 2022.
 SCF Done:  E(RHF) =  -194.019251906     A.U. after    8 cycles
 Normal termination of Gaussian 09 at Fri Aug 26 15:03:57 2022.

                         Standard orientation:
 ---------------------------------------------------------------------
 Center     Atomic      Atomic             Coordinates (Angstroms)
 Number     Number       Type             X           Y           Z
 ---------------------------------------------------------------------
      1          6           0        2.234181    0.000124   -0.000012
      2          6           0        0.931481    0.000124    0.000027
      3          6           0       -0.374497    0.000069   -0.000031
      4          6           0       -1.169782    1.286587    0.000009
      5          6           0       -1.169395   -1.286799   -0.000023
      6          1           0        2.807261    0.000240   -0.924248
      7          1           0        2.807219    0.000014    0.924260
      8          1           0       -0.520015    2.163588    0.000101
      9          1           0       -1.822119    1.337999    0.881005
     10          1           0       -1.821987    1.337971   -0.881087
     11          1           0       -1.822367   -1.337981   -0.880521
     12          1           0       -0.519250   -2.163539   -0.001030
     13          1           0       -1.820674   -1.338914    0.881703
 ---------------------------------------------------------------------

 SCF Done:  E(RHF) =  -194.022309447     A.U. after    7 cycles

 The electronic state is 1-A.
 Alpha  occ. eigenvalues --  -11.24370 -11.23830 -11.22574 -11.22571 -11.22543
 Alpha  occ. eigenvalues --   -1.10203  -1.00532  -0.94277  -0.86740  -0.67748
 Alpha  occ. eigenvalues --   -0.62701  -0.60653  -0.58349  -0.58025  -0.54041
 Alpha  occ. eigenvalues --   -0.53160  -0.50662  -0.36750  -0.34727
 Alpha virt. eigenvalues --    0.04096   0.04428   0.04440   0.05322   0.06607
 Alpha virt. eigenvalues --    0.06824   0.07120   0.07965   0.08014   0.09523
 Alpha virt. eigenvalues --    0.09661   0.11388   0.11698   0.11875   0.12706

 Mulliken charges:
               1
     1  C   -0.542145
     2  C    0.158166
     3  C    0.050083
     4  C   -0.562628
     5  C   -0.562605
     6  H    0.197624
     7  H    0.197614
     8  H    0.183448
     9  H    0.174241
    10  H    0.174256
    11  H    0.174239
    12  H    0.183443
    13  H    0.174264
 Sum of Mulliken charges =  -0.00000

 Dipole moment (field-independent basis, Debye):
    X=             -0.6761    Y=             -0.0001    Z=              0.0000  Tot=              0.6761
 Quadrupole moment (field-independent basis, Debye-Ang):
   XX=            -29.8543   YY=            -33.0361   ZZ=            -32.4417
   XY=             -0.0004   XZ=             -0.0001   YZ=             -0.0001

 Normal termination of Gaussian 09 at Fri Aug 26 15:07:53 2022.
