 Gaussian 09, Revision E.01,
 Gaussian 09:  ES64L-G09RevE.01 30-Nov-2015

 -----
 #P G4
 -----

 --------
 Frag_598
 --------
 Symbolic Z-matrix:
 Charge =  0 Multiplicity = 1

 SCF Done:  E(RB3LYP) =  -209.166358257     A.U. after   13 cycles
 SCF Done:  E(RB3LYP) =  -209.187656804     A.U. after   12 cycles
 SCF Done:  E(RB3LYP) =  -209.190418633     A.U. after   12 cycles
 SCF Done:  E(RB3LYP) =  -209.190829809     A.U. after   10 cycles
 SCF Done:  E(RB3LYP) =  -209.190836810     A.U. after    8 cycles
 SCF Done:  E(RB3LYP) =  -209.190839903     A.U. after    7 cycles
 Optimization completed.
    -- Stationary point found.
 Normal termination of Gaussian 09 at Thu Sep  1 15:43:20 2022.

 ----------------------------------------------------------
 #P Geom=AllCheck Guess=TCheck SCRF=Check B3LYP/GTBas3 Freq
 ----------------------------------------------------------

 Structure from the checkpoint file:  "G4.Frag_598.chk"
 --------
 Frag_598
 --------
 Charge =  0 Multiplicity = 1

 SCF Done:  E(RB3LYP) =  -209.190839903     A.U. after    1 cycles

  Exact polarizability:  48.022   1.400  30.509  -0.090  -0.009  22.694
 Approx polarizability:  69.536  -3.334  43.624  -0.186  -0.019  32.567

                      1                      2                      3
                      A                      A                      A
 Frequencies --     31.5449               291.7658               349.5952
 Red. masses --      1.0820                 3.4704                 1.2578
 Frc consts  --      0.0006                 0.1741                 0.0906
 IR Inten    --      0.1078                12.6515               132.1582

                      4                      5                      6
                      A                      A                      A
 Frequencies --    503.9151               703.2906               944.1834
 Red. masses --      1.9226                 3.9830                 1.5115
 Frc consts  --      0.2876                 1.1607                 0.7939
 IR Inten    --      0.3739                 2.5294                 1.8658

                      7                      8                      9
                      A                      A                      A
 Frequencies --    951.9793              1115.0836              1140.8917
 Red. masses --      4.3292                 3.0344                 1.3538
 Frc consts  --      2.3116                 2.2230                 1.0382
 IR Inten    --     13.1973                63.2534                 1.8157

                     10                     11                     12
                      A                      A                      A
 Frequencies --   1152.4009              1275.3309              1427.2846
 Red. masses --      1.4711                 1.4745                 1.1614
 Frc consts  --      1.1510                 1.4130                 1.3939
 IR Inten    --     42.9886               200.7634                 2.7861

                     13                     14                     15
                      A                      A                      A
 Frequencies --   1436.3188              1495.0550              1499.3982
 Red. masses --      1.1764                 1.0520                 1.0530
 Frc consts  --      1.4298                 1.3854                 1.3948
 IR Inten    --      6.2778                 4.7015                 5.2464

                     16                     17                     18
                      A                      A                      A
 Frequencies --   1799.9323              3020.7124              3082.3170
 Red. masses --      7.5173                 1.0318                 1.1008
 Frc consts  --     14.3492                 5.5469                 6.1618
 IR Inten    --    190.7596                44.7390                23.4250

                     19                     20                     21
                      A                      A                      A
 Frequencies --   3092.2682              3107.4061              3833.3311
 Red. masses --      1.1038                 1.0909                 1.0666
 Frc consts  --      6.2189                 6.2063                 9.2340
 IR Inten    --     24.2211                33.4691                58.8596

 - Thermochemistry -
 -------------------
 Temperature   298.150 Kelvin.  Pressure   1.00000 Atm.
 Atom     1 has atomic number  6 and mass  12.00000

 Molecular mass:    59.03711 amu.
 Principal axes and moments of inertia in atomic units:
                           1         2         3
     Eigenvalues --    92.46424 291.72576 373.05892
           X            0.99784   0.06563  -0.00052
           Y           -0.06563   0.99784   0.00031
           Z            0.00054  -0.00028   1.00000
 This molecule is an asymmetric top.
 Rotational symmetry number  1.
 Rotational temperatures (Kelvin)      0.93673     0.29690     0.23217
 Rotational constants (GHZ):          19.51826     6.18643     4.83768
 Zero-point vibrational energy     192921.8 (Joules/Mol)
                                   46.10941 (Kcal/Mol)
 Warning -- explicit consideration of   4 degrees of freedom as
           vibrations may cause significant error
 Vibrational temperatures:     45.39   419.79   502.99   725.02  1011.88
          (Kelvin)           1358.47  1369.68  1604.35  1641.49  1658.05
                             1834.91  2053.54  2066.54  2151.05  2157.30
                             2589.70  4346.13  4434.76  4449.08  4470.86
                             5515.30

 Zero-point correction=                           0.073480 (Hartree/Particle)
 Thermal correction to Energy=                    0.078503
 Thermal correction to Enthalpy=                  0.079447
 Thermal correction to Gibbs Free Energy=         0.045350
 Sum of electronic and zero-point Energies=           -209.117360
 Sum of electronic and thermal Energies=              -209.112337
 Sum of electronic and thermal Enthalpies=            -209.111392
 Sum of electronic and thermal Free Energies=         -209.145490

                     E (Thermal)             CV                S
                      KCal/Mol        Cal/Mol-Kelvin    Cal/Mol-Kelvin
 Total                   49.262             15.430             71.764
 Electronic               0.000              0.000              0.000
 Translational            0.889              2.981             38.147
 Rotational               0.889              2.981             23.824
 Vibrational             47.484              9.468              9.793
 Vibration     1          0.594              1.983              5.730
 Vibration     2          0.687              1.689              1.464
 Vibration     3          0.727              1.576              1.168
 Vibration     4          0.859              1.241              0.648

 Normal termination of Gaussian 09 at Thu Sep  1 15:43:34 2022.

 -----------------------------------------------------------------
 #P Geom=AllCheck Guess=TCheck SCRF=Check CCSD(T,E4T,FrzG4)/GTBas1
 -----------------------------------------------------------------

 Structure from the checkpoint file:  "G4.Frag_598.chk"
 --------
 Frag_598
 --------
 Charge =  0 Multiplicity = 1

 SCF Done:  E(RHF) =  -207.927494653     A.U. after   12 cycles
 E2 =    -0.5966660525D+00 EUMP2 =    -0.20852416070574D+03
 CCSD(T)
 CCSD(T)= -0.20857388637D+03
 03\CCSD=-208.554624\CCSD(T)=-208.5738864\RMSD=8.862e-09\PG=C01 [X(C2H5
 Normal termination of Gaussian 09 at Thu Sep  1 15:43:55 2022.

 ---------------------------------------------------------
 #P Geom=AllCheck Guess=TCheck SCRF=Check MP4=FrzG4/GTBas2
 ---------------------------------------------------------

 Structure from the checkpoint file:  "G4.Frag_598.chk"
 --------
 Frag_598
 --------
 Charge =  0 Multiplicity = 1

 SCF Done:  E(RHF) =  -207.934680931     A.U. after   12 cycles
 E2 =    -0.6057634183D+00 EUMP2 =    -0.20854044434977D+03
 Normal termination of Gaussian 09 at Thu Sep  1 15:44:03 2022.

 ---------------------------------------------------------
 #P Geom=AllCheck Guess=TCheck SCRF=Check MP4=FrzG4/GTBas3
 ---------------------------------------------------------

 Structure from the checkpoint file:  "G4.Frag_598.chk"
 --------
 Frag_598
 --------
 Charge =  0 Multiplicity = 1

 SCF Done:  E(RHF) =  -207.955466005     A.U. after   11 cycles
 E2 =    -0.7309077811D+00 EUMP2 =    -0.20868637378579D+03
 Normal termination of Gaussian 09 at Thu Sep  1 15:44:30 2022.

 -----------------------------------------------------------
 #P Geom=AllCheck Guess=TCheck SCRF=Check MP2=Full/GTLargeXP
 -----------------------------------------------------------

 Structure from the checkpoint file:  "G4.Frag_598.chk"
 --------
 Frag_598
 --------
 Charge =  0 Multiplicity = 1

 SCF Done:  E(RHF) =  -208.012037371     A.U. after   12 cycles
 E2 =    -0.9571369057D+00 EUMP2 =    -0.20896917427658D+03
 Normal termination of Gaussian 09 at Thu Sep  1 15:44:48 2022.
 SCF Done:  E(RHF) =  -208.028857418     A.U. after    8 cycles
 Normal termination of Gaussian 09 at Thu Sep  1 15:45:11 2022.

                         Standard orientation:
 ---------------------------------------------------------------------
 Center     Atomic      Atomic             Coordinates (Angstroms)
 Number     Number       Type             X           Y           Z
 ---------------------------------------------------------------------
      1          6           0       -1.465509   -0.412132   -0.001605
      2          7           0       -0.578531    0.741495   -0.000363
      3          6           0        0.666788    0.576402    0.000363
      4          8           0        1.305688   -0.630190    0.002453
      5          1           0       -0.961118   -1.380379   -0.093681
      6          1           0       -2.050578   -0.408747    0.925113
      7          1           0       -2.179177   -0.304439   -0.825511
      8          1           0        1.330720    1.443763   -0.000522
      9          1           0        2.256691   -0.484765   -0.015032
 ---------------------------------------------------------------------

 SCF Done:  E(RHF) =  -208.032449114     A.U. after    8 cycles

 The electronic state is 1-A.
 Alpha  occ. eigenvalues --  -20.60356 -15.54348 -11.33269 -11.23869  -1.42408
 Alpha  occ. eigenvalues --   -1.21226  -0.95161  -0.80377  -0.75632  -0.65147
 Alpha  occ. eigenvalues --   -0.61247  -0.57591  -0.55975  -0.53616  -0.41349
 Alpha  occ. eigenvalues --   -0.39245
 Alpha virt. eigenvalues --    0.03265   0.04833   0.05389   0.05540   0.07259
 Alpha virt. eigenvalues --    0.07943   0.08007   0.12285   0.13226   0.14089
 Alpha virt. eigenvalues --    0.14481   0.15975   0.16413   0.16452   0.17451

 Mulliken charges:
               1
     1  C   -0.400030
     2  N   -0.361398
     3  C    0.167569
     4  O   -0.517443
     5  H    0.183624
     6  H    0.176008
     7  H    0.175464
     8  H    0.192237
     9  H    0.383970
 Sum of Mulliken charges =  -0.00000

 Dipole moment (field-independent basis, Debye):
    X=              2.4788    Y=             -0.4799    Z=             -0.0246  Tot=              2.5249
 Quadrupole moment (field-independent basis, Debye-Ang):
   XX=            -17.1395   YY=            -27.3535   ZZ=            -25.3164
   XY=              3.2944   XZ=             -0.0886   YZ=              0.0142

 Normal termination of Gaussian 09 at Thu Sep  1 15:47:29 2022.
