 Gaussian 09, Revision E.01,
 Gaussian 09:  ES64L-G09RevE.01 30-Nov-2015

 -----
 #P G4
 -----

 --------
 Frag_906
 --------
 Symbolic Z-matrix:
 Charge =  0 Multiplicity = 1

 SCF Done:  E(RB3LYP) =  -383.703728678     A.U. after   12 cycles
 SCF Done:  E(RB3LYP) =  -383.711510502     A.U. after   11 cycles
 SCF Done:  E(RB3LYP) =  -383.712447256     A.U. after   11 cycles
 SCF Done:  E(RB3LYP) =  -383.712787231     A.U. after   10 cycles
 SCF Done:  E(RB3LYP) =  -383.713212481     A.U. after   11 cycles
 SCF Done:  E(RB3LYP) =  -383.708910231     A.U. after   12 cycles
 SCF Done:  E(RB3LYP) =  -383.713547776     A.U. after   10 cycles
 SCF Done:  E(RB3LYP) =  -383.713899918     A.U. after   10 cycles
 SCF Done:  E(RB3LYP) =  -383.714080371     A.U. after   10 cycles
 SCF Done:  E(RB3LYP) =  -383.714135247     A.U. after   10 cycles
 SCF Done:  E(RB3LYP) =  -383.714215588     A.U. after    7 cycles
 SCF Done:  E(RB3LYP) =  -383.714215821     A.U. after    7 cycles
 SCF Done:  E(RB3LYP) =  -383.714215595     A.U. after    7 cycles
 Optimization completed.
    -- Stationary point found.
 Normal termination of Gaussian 09 at Fri Aug 26 05:00:47 2022.

 ----------------------------------------------------------
 #P Geom=AllCheck Guess=TCheck SCRF=Check B3LYP/GTBas3 Freq
 ----------------------------------------------------------

 Structure from the checkpoint file:  "G4.Frag_906.chk"
 --------
 Frag_906
 --------
 Charge =  0 Multiplicity = 1

 SCF Done:  E(RB3LYP) =  -383.714215595     A.U. after    1 cycles

  Exact polarizability:  78.042   0.603  72.865   1.317   0.757  69.337
 Approx polarizability: 105.960   0.731 101.433  -0.698   0.602 104.025

                      1                      2                      3
                      A                      A                      A
 Frequencies --     95.2856               130.4447               243.5153
 Red. masses --      3.3765                 1.0326                 1.1876
 Frc consts  --      0.0181                 0.0104                 0.0415
 IR Inten    --      1.7982                60.3337                 8.9441

                      4                      5                      6
                      A                      A                      A
 Frequencies --    246.9909               267.7884               279.3321
 Red. masses --      1.5266                 1.1653                 1.8939
 Frc consts  --      0.0549                 0.0492                 0.0871
 IR Inten    --      7.4409                 3.2385                 6.0493

                      7                      8                      9
                      A                      A                      A
 Frequencies --    308.9927               326.2440               339.2783
 Red. masses --      1.2512                 1.5899                 1.9125
 Frc consts  --      0.0704                 0.0997                 0.1297
 IR Inten    --      5.9618                14.4831                 2.3199

                     10                     11                     12
                      A                      A                      A
 Frequencies --    358.9852               371.8447               392.2665
 Red. masses --      2.5153                 1.8491                 1.9521
 Frc consts  --      0.1910                 0.1506                 0.1770
 IR Inten    --     21.6382                38.3912                19.7017

                     13                     14                     15
                      A                      A                      A
 Frequencies --    409.9204               444.7341               507.3772
 Red. masses --      1.9024                 2.5969                 2.9966
 Frc consts  --      0.1883                 0.3026                 0.4545
 IR Inten    --     19.7761                 9.7208                 5.9119

                     16                     17                     18
                      A                      A                      A
 Frequencies --    521.4178               534.9109               674.1607
 Red. masses --      2.5990                 2.8109                 2.9960
 Frc consts  --      0.4163                 0.4739                 0.8023
 IR Inten    --     15.9522                 8.9451                 6.7770

                     19                     20                     21
                      A                      A                      A
 Frequencies --    772.0417               835.6797               866.3353
 Red. masses --      1.6317                 2.6594                 1.5620
 Frc consts  --      0.5730                 1.0942                 0.6907
 IR Inten    --    115.3701                39.7617                83.0058

                     22                     23                     24
                      A                      A                      A
 Frequencies --    911.6391               928.8998               962.4484
 Red. masses --      2.0958                 1.5313                 1.8287
 Frc consts  --      1.0262                 0.7785                 0.9980
 IR Inten    --     81.2794                 1.7241                14.3408

                     25                     26                     27
                      A                      A                      A
 Frequencies --    979.4300              1011.4868              1036.6192
 Red. masses --      1.6778                 1.3619                 1.4699
 Frc consts  --      0.9483                 0.8210                 0.9306
 IR Inten    --      1.8082                 7.4610                17.1847

                     28                     29                     30
                      A                      A                      A
 Frequencies --   1104.8590              1121.1588              1158.2073
 Red. masses --      1.4129                 1.9631                 2.2362
 Frc consts  --      1.0162                 1.4539                 1.7674
 IR Inten    --      5.1535                83.0355                36.2992

                     31                     32                     33
                      A                      A                      A
 Frequencies --   1207.8734              1237.9041              1292.4935
 Red. masses --      2.6077                 2.8344                 1.7086
 Frc consts  --      2.2415                 2.5591                 1.6817
 IR Inten    --     21.1862                 8.4766                17.7836

                     34                     35                     36
                      A                      A                      A
 Frequencies --   1347.6070              1375.9863              1396.0260
 Red. masses --      1.8957                 1.5391                 1.2756
 Frc consts  --      2.0284                 1.7169                 1.4647
 IR Inten    --     17.3365                18.8887                11.2802

                     37                     38                     39
                      A                      A                      A
 Frequencies --   1412.6076              1420.0798              1477.0748
 Red. masses --      1.2604                 1.4632                 1.0546
 Frc consts  --      1.4819                 1.7386                 1.3557
 IR Inten    --     13.6323                21.3952                 1.1217

                     40                     41                     42
                      A                      A                      A
 Frequencies --   1482.6428              1494.2962              1497.4778
 Red. masses --      1.0457                 1.0510                 1.0507
 Frc consts  --      1.3544                 1.3826                 1.3882
 IR Inten    --      0.4156                 2.6348                 0.4221

                     43                     44                     45
                      A                      A                      A
 Frequencies --   1507.5102              1519.2209              1638.9447
 Red. masses --      1.0533                 1.0757                 1.1026
 Frc consts  --      1.4104                 1.4628                 1.7450
 IR Inten    --      1.9417                 5.3142                26.1764

                     46                     47                     48
                      A                      A                      A
 Frequencies --   1649.4720              3029.9889              3037.5210
 Red. masses --      1.0953                 1.0365                 1.0360
 Frc consts  --      1.7557                 5.6066                 5.6316
 IR Inten    --     45.1398                23.0529                16.1043

                     49                     50                     51
                      A                      A                      A
 Frequencies --   3055.1832              3095.5710              3101.6213
 Red. masses --      1.0358                 1.0994                 1.0999
 Frc consts  --      5.6964                 6.2071                 6.2340
 IR Inten    --     11.0843                13.4006                42.0890

                     52                     53                     54
                      A                      A                      A
 Frequencies --   3114.7801              3119.5101              3124.0130
 Red. masses --      1.1020                 1.1017                 1.1005
 Frc consts  --      6.2993                 6.3167                 6.3281
 IR Inten    --     14.1137                22.7347                34.0820

                     55                     56                     57
                      A                      A                      A
 Frequencies --   3143.5785              3485.5487              3518.5804
 Red. masses --      1.1021                 1.0499                 1.0477
 Frc consts  --      6.4170                 7.5151                 7.6421
 IR Inten    --     19.4076                 1.0706                 0.2490

                     58                     59                     60
                      A                      A                      A
 Frequencies --   3573.9430              3617.5866              3817.8311
 Red. masses --      1.0913                 1.0944                 1.0655
 Frc consts  --      8.2129                 8.4384                 9.1500
 IR Inten    --      0.2045                 2.7769                10.1952

 - Thermochemistry -
 -------------------
 Temperature   298.150 Kelvin.  Pressure   1.00000 Atm.
 Atom     1 has atomic number  6 and mass  12.00000

 Molecular mass:   118.11061 amu.
 Principal axes and moments of inertia in atomic units:
                           1         2         3
     Eigenvalues --   741.682851036.028011049.86053
           X            0.99853  -0.01220   0.05272
           Y           -0.01456   0.87770   0.47899
           Z           -0.05212  -0.47906   0.87624
 This molecule is an asymmetric top.
 Rotational symmetry number  1.
 Warning -- assumption of classical behavior for rotation
           may cause significant error
 Rotational temperatures (Kelvin)      0.11678     0.08360     0.08250
 Rotational constants (GHZ):           2.43331     1.74198     1.71903
 Zero-point vibrational energy     519985.4 (Joules/Mol)
                                  124.27949 (Kcal/Mol)
 Warning -- explicit consideration of  17 degrees of freedom as
           vibrations may cause significant error
 Vibrational temperatures:    137.09   187.68   350.36   355.36   385.29
          (Kelvin)            401.90   444.57   469.39   488.15   516.50
                              535.00   564.38   589.78   639.87   730.00
                              750.20   769.62   969.97  1110.79  1202.36
                             1246.46  1311.64  1336.48  1384.75  1409.18
                             1455.30  1491.46  1589.64  1613.10  1666.40
                             1737.86  1781.07  1859.61  1938.90  1979.73
                             2008.57  2032.42  2043.18  2125.18  2133.19
                             2149.96  2154.53  2168.97  2185.82  2358.07
                             2373.22  4359.47  4370.31  4395.72  4453.83
                             4462.54  4481.47  4488.27  4494.75  4522.90
                             5014.92  5062.45  5142.10  5204.89  5493.00

 Zero-point correction=                           0.198052 (Hartree/Particle)
 Thermal correction to Energy=                    0.208347
 Thermal correction to Enthalpy=                  0.209291
 Thermal correction to Gibbs Free Energy=         0.164548
 Sum of electronic and zero-point Energies=           -383.516164
 Sum of electronic and thermal Energies=              -383.505869
 Sum of electronic and thermal Enthalpies=            -383.504924
 Sum of electronic and thermal Free Energies=         -383.549668

                     E (Thermal)             CV                S
                      KCal/Mol        Cal/Mol-Kelvin    Cal/Mol-Kelvin
 Total                  130.740             40.292             94.171
 Electronic               0.000              0.000              0.000
 Translational            0.889              2.981             40.214
 Rotational               0.889              2.981             28.180
 Vibrational            128.962             34.330             25.776
 Vibration     1          0.603              1.953              3.549
 Vibration     2          0.612              1.923              2.939
 Vibration     3          0.659              1.773              1.777
 Vibration     4          0.661              1.768              1.752
 Vibration     5          0.673              1.732              1.610
 Vibration     6          0.680              1.712              1.538
 Vibration     7          0.698              1.657              1.368
 Vibration     8          0.710              1.623              1.279
 Vibration     9          0.719              1.597              1.216
 Vibration    10          0.734              1.557              1.126
 Vibration    11          0.744              1.530              1.072
 Vibration    12          0.760              1.487              0.992
 Vibration    13          0.774              1.449              0.927
 Vibration    14          0.804              1.373              0.812
 Vibration    15          0.863              1.234              0.640
 Vibration    16          0.876              1.203              0.607
 Vibration    17          0.890              1.173              0.576

 Normal termination of Gaussian 09 at Fri Aug 26 05:02:20 2022.

 -----------------------------------------------------------------
 #P Geom=AllCheck Guess=TCheck SCRF=Check CCSD(T,E4T,FrzG4)/GTBas1
 -----------------------------------------------------------------

 Structure from the checkpoint file:  "G4.Frag_906.chk"
 --------
 Frag_906
 --------
 Charge =  0 Multiplicity = 1

 SCF Done:  E(RHF) =  -381.226817877     A.U. after   12 cycles
 E2 =    -0.1177297836D+01 EUMP2 =    -0.38240411571294D+03
 CCSD(T)
 CCSD(T)= -0.38251678353D+03
 .5158784\MP4SDQ=-382.4798492\CCSD=-382.4808172\CCSD(T)=-382.5167835\RM
 Normal termination of Gaussian 09 at Fri Aug 26 05:12:43 2022.

 ---------------------------------------------------------
 #P Geom=AllCheck Guess=TCheck SCRF=Check MP4=FrzG4/GTBas2
 ---------------------------------------------------------

 Structure from the checkpoint file:  "G4.Frag_906.chk"
 --------
 Frag_906
 --------
 Charge =  0 Multiplicity = 1

 SCF Done:  E(RHF) =  -381.238957602     A.U. after   12 cycles
 E2 =    -0.1197468329D+01 EUMP2 =    -0.38243642593077D+03
 Normal termination of Gaussian 09 at Fri Aug 26 05:16:21 2022.

 ---------------------------------------------------------
 #P Geom=AllCheck Guess=TCheck SCRF=Check MP4=FrzG4/GTBas3
 ---------------------------------------------------------

 Structure from the checkpoint file:  "G4.Frag_906.chk"
 --------
 Frag_906
 --------
 Charge =  0 Multiplicity = 1

 SCF Done:  E(RHF) =  -381.283090260     A.U. after   11 cycles
 E2 =    -0.1461321566D+01 EUMP2 =    -0.38274441182578D+03
 Normal termination of Gaussian 09 at Fri Aug 26 05:50:14 2022.

 -----------------------------------------------------------
 #P Geom=AllCheck Guess=TCheck SCRF=Check MP2=Full/GTLargeXP
 -----------------------------------------------------------

 Structure from the checkpoint file:  "G4.Frag_906.chk"
 --------
 Frag_906
 --------
 Charge =  0 Multiplicity = 1

 SCF Done:  E(RHF) =  -381.377872218     A.U. after   12 cycles
 E2 =    -0.1909358981D+01 EUMP2 =    -0.38328723119851D+03
 Normal termination of Gaussian 09 at Fri Aug 26 05:58:27 2022.
 SCF Done:  E(RHF) =  -381.407646326     A.U. after    8 cycles
 Normal termination of Gaussian 09 at Fri Aug 26 06:01:30 2022.

                         Standard orientation:
 ---------------------------------------------------------------------
 Center     Atomic      Atomic             Coordinates (Angstroms)
 Number     Number       Type             X           Y           Z
 ---------------------------------------------------------------------
      1          6           0       -1.430450   -1.172306   -0.632437
      2          6           0       -0.777780    0.041989    0.061521
      3          6           0       -1.278344    1.317717   -0.644223
      4          7           0       -1.178339   -0.020788    1.480772
      5          6           0        0.793033   -0.051522   -0.023530
      6          6           0        1.506267    1.282291    0.232333
      7          7           0        1.272281   -1.006798    0.958822
      8          8           0        1.179910   -0.387383   -1.366877
      9          1           0       -1.296226   -1.138475   -1.717047
     10          1           0       -1.042647   -2.122660   -0.251900
     11          1           0       -2.506349   -1.168101   -0.431553
     12          1           0       -0.886533    1.388531   -1.663424
     13          1           0       -2.372605    1.303190   -0.703413
     14          1           0       -0.987600    2.218614   -0.097723
     15          1           0       -0.583064    0.575772    2.046267
     16          1           0       -2.126344    0.333139    1.578109
     17          1           0        1.183911    1.730325    1.175180
     18          1           0        2.581848    1.097416    0.300083
     19          1           0        1.333894    1.988246   -0.581428
     20          1           0        0.646307   -1.793097    1.080177
     21          1           0        2.192564   -1.339101    0.692407
     22          1           0        0.889615   -1.290641   -1.529869
 ---------------------------------------------------------------------

 SCF Done:  E(RHF) =  -381.414205290     A.U. after    8 cycles

 The electronic state is 1-A.
 Alpha  occ. eigenvalues --  -20.55048 -15.53596 -15.53567 -11.31346 -11.26744
 Alpha  occ. eigenvalues --  -11.21728 -11.21222 -11.20883  -1.36692  -1.20180
 Alpha  occ. eigenvalues --   -1.15634  -1.02367  -0.98463  -0.93102  -0.84598
 Alpha  occ. eigenvalues --   -0.75042  -0.70262  -0.67746  -0.63967  -0.62894
 Alpha  occ. eigenvalues --   -0.59697  -0.59345  -0.56974  -0.54448  -0.54081
 Alpha  occ. eigenvalues --   -0.52521  -0.51840  -0.51281  -0.50145  -0.47725
 Alpha  occ. eigenvalues --   -0.44106  -0.39922  -0.38639
 Alpha virt. eigenvalues --    0.03029   0.03867   0.04249   0.05223   0.05775
 Alpha virt. eigenvalues --    0.06520   0.06680   0.07181   0.07371   0.08843
 Alpha virt. eigenvalues --    0.09156   0.09392   0.10260   0.10460   0.10764

 Mulliken charges:
               1
     1  C   -0.640500
     2  C    0.480536
     3  C   -0.646052
     4  N   -0.801880
     5  C    0.416374
     6  C   -0.559168
     7  N   -0.797415
     8  O   -0.622134
     9  H    0.178355
    10  H    0.162709
    11  H    0.175913
    12  H    0.196000
    13  H    0.171705
    14  H    0.175557
    15  H    0.312746
    16  H    0.290633
    17  H    0.162254
    18  H    0.167858
    19  H    0.183639
    20  H    0.317949
    21  H    0.305959
    22  H    0.368962
 Sum of Mulliken charges =  -0.00000

 Dipole moment (field-independent basis, Debye):
    X=             -1.0197    Y=             -0.2704    Z=             -0.2250  Tot=              1.0787
 Quadrupole moment (field-independent basis, Debye-Ang):
   XX=            -50.8941   YY=            -47.9714   ZZ=            -56.9277
   XY=             -2.7358   XZ=              1.1169   YZ=              4.1012

 Normal termination of Gaussian 09 at Fri Aug 26 06:24:48 2022.
