 Gaussian 09, Revision E.01,
 Gaussian 09:  ES64L-G09RevE.01 30-Nov-2015

 -----
 #P G4
 -----

 --------
 Frag_836
 --------
 Symbolic Z-matrix:
 Charge =  0 Multiplicity = 1

 SCF Done:  E(RB3LYP) =  -379.072183252     A.U. after   14 cycles
 SCF Done:  E(RB3LYP) =  -379.085053817     A.U. after   12 cycles
 SCF Done:  E(RB3LYP) =  -379.087220969     A.U. after   12 cycles
 SCF Done:  E(RB3LYP) =  -379.089000771     A.U. after   12 cycles
 SCF Done:  E(RB3LYP) =  -379.090722306     A.U. after   13 cycles
 SCF Done:  E(RB3LYP) =  -379.091917332     A.U. after   12 cycles
 SCF Done:  E(RB3LYP) =  -379.093121329     A.U. after   12 cycles
 SCF Done:  E(RB3LYP) =  -379.093492733     A.U. after   12 cycles
 SCF Done:  E(RB3LYP) =  -379.093587841     A.U. after   11 cycles
 SCF Done:  E(RB3LYP) =  -379.093669145     A.U. after   11 cycles
 SCF Done:  E(RB3LYP) =  -379.103997815     A.U. after   11 cycles
 SCF Done:  E(RB3LYP) =  -379.104002606     A.U. after    8 cycles
 SCF Done:  E(RB3LYP) =  -379.104004235     A.U. after    9 cycles
 Optimization completed.
    -- Stationary point found.
 Normal termination of Gaussian 09 at Mon Aug 22 03:44:22 2022.

 ----------------------------------------------------------
 #P Geom=AllCheck Guess=TCheck SCRF=Check B3LYP/GTBas3 Freq
 ----------------------------------------------------------

 Structure from the checkpoint file:  "G4.Frag_836.chk"
 --------
 Frag_836
 --------
 Charge =  0 Multiplicity = 1

 SCF Done:  E(RB3LYP) =  -379.104004235     A.U. after    1 cycles

  Exact polarizability:  59.974   3.149  59.063  -0.388  -0.091  42.726
 Approx polarizability:  78.941   6.254  91.077  -0.372   1.345  63.264

                      1                      2                      3
                      A                      A                      A
 Frequencies --     88.2932               104.5079               148.8298
 Red. masses --      2.8286                 1.2290                 1.1765
 Frc consts  --      0.0130                 0.0079                 0.0154
 IR Inten    --      7.9625                63.6530                24.1105

                      4                      5                      6
                      A                      A                      A
 Frequencies --    172.8310               239.9950               269.3418
 Red. masses --      1.0854                 3.4734                 3.2082
 Frc consts  --      0.0191                 0.1179                 0.1371
 IR Inten    --     14.2049                13.3154                10.2433

                      7                      8                      9
                      A                      A                      A
 Frequencies --    396.3259               421.7101               482.0954
 Red. masses --      3.5646                 4.1117                 4.3737
 Frc consts  --      0.3299                 0.4308                 0.5989
 IR Inten    --     11.2865                 4.1879                 7.1973

                     10                     11                     12
                      A                      A                      A
 Frequencies --    531.5436               580.1064               597.0627
 Red. masses --      2.9271                 1.4533                 3.3449
 Frc consts  --      0.4873                 0.2882                 0.7025
 IR Inten    --      7.9050                27.1615                26.8474

                     13                     14                     15
                      A                      A                      A
 Frequencies --    633.6226               740.5818               822.3449
 Red. masses --      1.9788                 3.3527                 1.5871
 Frc consts  --      0.4681                 1.0834                 0.6324
 IR Inten    --     32.5307                 6.4870               127.0495

                     16                     17                     18
                      A                      A                      A
 Frequencies --    885.8835               982.5512              1013.6463
 Red. masses --      1.2784                 2.2690                 2.6073
 Frc consts  --      0.5911                 1.2906                 1.5784
 IR Inten    --      4.7008                 9.1400               294.9535

                     19                     20                     21
                      A                      A                      A
 Frequencies --   1034.5214              1077.5782              1093.0117
 Red. masses --      2.1944                 1.6536                 1.4780
 Frc consts  --      1.3837                 1.1313                 1.0403
 IR Inten    --     26.8894                12.2662                53.5272

                     22                     23                     24
                      A                      A                      A
 Frequencies --   1157.0773              1268.0013              1317.3643
 Red. masses --      2.8509                 1.4391                 1.9054
 Frc consts  --      2.2488                 1.3633                 1.9482
 IR Inten    --    106.0630                 4.3616               146.3056

                     25                     26                     27
                      A                      A                      A
 Frequencies --   1387.5610              1416.8288              1468.6045
 Red. masses --      1.2818                 1.7865                 1.0481
 Frc consts  --      1.4540                 2.1130                 1.3318
 IR Inten    --      3.5208                57.1077                 6.6099

                     28                     29                     30
                      A                      A                      A
 Frequencies --   1476.1084              1488.7046              1630.2116
 Red. masses --      1.4903                 1.1348                 1.1267
 Frc consts  --      1.9132                 1.4818                 1.7642
 IR Inten    --    173.5532                51.3376                20.7218

                     31                     32                     33
                      A                      A                      A
 Frequencies --   1745.9461              3045.9097              3117.0378
 Red. masses --      8.9330                 1.0343                 1.0988
 Frc consts  --     16.0440                 5.6539                 6.2901
 IR Inten    --     56.6205                 6.2613                 2.6844

                     34                     35                     36
                      A                      A                      A
 Frequencies --   3130.2332              3466.8229              3520.1123
 Red. masses --      1.1035                 1.0755                 1.0479
 Frc consts  --      6.3706                 7.6161                 7.6501
 IR Inten    --     14.5433                 1.0807                 5.0867

                     37                     38                     39
                      A                      A                      A
 Frequencies --   3550.9538              3615.0216              3805.0387
 Red. masses --      1.0644                 1.0946                 1.0654
 Frc consts  --      7.9078                 8.4278                 9.0887
 IR Inten    --    169.4740                10.8176                43.7616

 - Thermochemistry -
 -------------------
 Temperature   298.150 Kelvin.  Pressure   1.00000 Atm.
 Atom     1 has atomic number  6 and mass  12.00000

 Molecular mass:   104.05858 amu.
 Principal axes and moments of inertia in atomic units:
                           1         2         3
     Eigenvalues --   520.63961 729.27580 896.78631
           X            0.99968  -0.02390  -0.00792
           Y            0.02366   0.99930  -0.02914
           Z            0.00861   0.02895   0.99954
 This molecule is an asymmetric top.
 Rotational symmetry number  1.
 Warning -- assumption of classical behavior for rotation
           may cause significant error
 Rotational temperatures (Kelvin)      0.16636     0.11877     0.09658
 Rotational constants (GHZ):           3.46639     2.47470     2.01245
 Zero-point vibrational energy     322536.7 (Joules/Mol)
                                   77.08812 (Kcal/Mol)
 Warning -- explicit consideration of  12 degrees of freedom as
           vibrations may cause significant error
 Vibrational temperatures:    127.03   150.36   214.13   248.67   345.30
          (Kelvin)            387.52   570.22   606.75   693.63   764.77
                              834.64   859.04   911.64  1065.53  1183.17
                             1274.59  1413.67  1458.41  1488.44  1550.39
                             1572.60  1664.77  1824.37  1895.39  1996.39
                             2038.50  2112.99  2123.79  2141.91  2345.51
                             2512.02  4382.38  4484.72  4503.70  4987.98
                             5064.65  5109.02  5201.20  5474.60

 Zero-point correction=                           0.122848 (Hartree/Particle)
 Thermal correction to Energy=                    0.131355
 Thermal correction to Enthalpy=                  0.132299
 Thermal correction to Gibbs Free Energy=         0.090298
 Sum of electronic and zero-point Energies=           -378.981157
 Sum of electronic and thermal Energies=              -378.972649
 Sum of electronic and thermal Enthalpies=            -378.971705
 Sum of electronic and thermal Free Energies=         -379.013706

                     E (Thermal)             CV                S
                      KCal/Mol        Cal/Mol-Kelvin    Cal/Mol-Kelvin
 Total                   82.427             30.243             88.400
 Electronic               0.000              0.000              0.000
 Translational            0.889              2.981             39.837
 Rotational               0.889              2.981             27.323
 Vibrational             80.649             24.281             21.240
 Vibration     1          0.601              1.957              3.698
 Vibration     2          0.605              1.946              3.368
 Vibration     3          0.618              1.904              2.687
 Vibration     4          0.626              1.876              2.404
 Vibration     5          0.657              1.779              1.803
 Vibration     6          0.674              1.730              1.600
 Vibration     7          0.763              1.478              0.976
 Vibration     8          0.784              1.423              0.886
 Vibration     9          0.838              1.290              0.704
 Vibration    10          0.887              1.180              0.584
 Vibration    11          0.937              1.074              0.485
 Vibration    12          0.955              1.038              0.455

 Optimization completed.
    -- Stationary point found.
 Normal termination of Gaussian 09 at Mon Aug 22 03:48:17 2022.

 -----------------------------------------------------------------
 #P Geom=AllCheck Guess=TCheck SCRF=Check CCSD(T,E4T,FrzG4)/GTBas1
 -----------------------------------------------------------------

 Structure from the checkpoint file:  "G4.Frag_836.chk"
 --------
 Frag_836
 --------
 Charge =  0 Multiplicity = 1

 SCF Done:  E(RHF) =  -376.862835471     A.U. after   12 cycles
 E2 =    -0.1071235578D+01 EUMP2 =    -0.37793407104820D+03
 CCSD(T)
 CCSD(T)= -0.37801460272D+03
 9\CCSD(T)=-378.0146027\RMSD=7.908e-09\PG=C01 [X(C3H8N2O2)]\\@
 Normal termination of Gaussian 09 at Mon Aug 22 04:01:51 2022.

 ---------------------------------------------------------
 #P Geom=AllCheck Guess=TCheck SCRF=Check MP4=FrzG4/GTBas2
 ---------------------------------------------------------

 Structure from the checkpoint file:  "G4.Frag_836.chk"
 --------
 Frag_836
 --------
 Charge =  0 Multiplicity = 1

 SCF Done:  E(RHF) =  -376.877011410     A.U. after   12 cycles
 E2 =    -0.1090471777D+01 EUMP2 =    -0.37796748318681D+03
 Normal termination of Gaussian 09 at Mon Aug 22 04:19:51 2022.

 ---------------------------------------------------------
 #P Geom=AllCheck Guess=TCheck SCRF=Check MP4=FrzG4/GTBas3
 ---------------------------------------------------------

 Structure from the checkpoint file:  "G4.Frag_836.chk"
 --------
 Frag_836
 --------
 Charge =  0 Multiplicity = 1

 SCF Done:  E(RHF) =  -376.915971510     A.U. after   11 cycles
 E2 =    -0.1313424569D+01 EUMP2 =    -0.37822939607838D+03
 Normal termination of Gaussian 09 at Mon Aug 22 08:17:32 2022.

 -----------------------------------------------------------
 #P Geom=AllCheck Guess=TCheck SCRF=Check MP2=Full/GTLargeXP
 -----------------------------------------------------------

 Structure from the checkpoint file:  "G4.Frag_836.chk"
 --------
 Frag_836
 --------
 Charge =  0 Multiplicity = 1

 SCF Done:  E(RHF) =  -377.019633356     A.U. after   12 cycles
 E2 =    -0.1715178732D+01 EUMP2 =    -0.37873481208790D+03
 Normal termination of Gaussian 09 at Mon Aug 22 08:27:49 2022.
 SCF Done:  E(RHF) =  -377.049407047     A.U. after    8 cycles
 Normal termination of Gaussian 09 at Mon Aug 22 08:35:51 2022.

                         Standard orientation:
 ---------------------------------------------------------------------
 Center     Atomic      Atomic             Coordinates (Angstroms)
 Number     Number       Type             X           Y           Z
 ---------------------------------------------------------------------
      1          6           0        1.763282   -1.042642    0.014716
      2          6           0        0.912811    0.193606    0.037828
      3          7           0        1.302596    1.401159    0.079383
      4          6           0       -0.614187   -0.010419   -0.004545
      5          7           0       -1.046576   -0.840648    1.110637
      6          8           0       -1.261500    1.210122    0.063511
      7          8           0       -0.857519   -0.655031   -1.251742
      8          1           0        1.538605   -1.628258   -0.882258
      9          1           0        2.827744   -0.796192    0.026872
     10          1           0        1.526359   -1.667295    0.881014
     11          1           0        2.319069    1.487397    0.101350
     12          1           0       -1.310203   -1.756492    0.765404
     13          1           0       -1.854691   -0.406227    1.541409
     14          1           0       -0.548467    1.877328    0.005804
     15          1           0       -1.709835   -0.317831   -1.551876
 ---------------------------------------------------------------------

 SCF Done:  E(RHF) =  -377.055897165     A.U. after    8 cycles

 The electronic state is 1-A.
 Alpha  occ. eigenvalues --  -20.56790 -20.56145 -15.55701 -15.54823 -11.37617
 Alpha  occ. eigenvalues --  -11.29784 -11.23625  -1.43162  -1.34259  -1.22406
 Alpha  occ. eigenvalues --   -1.17491  -1.00342  -0.90405  -0.78520  -0.73938
 Alpha  occ. eigenvalues --   -0.68025  -0.66627  -0.65263  -0.62984  -0.59315
 Alpha  occ. eigenvalues --   -0.58290  -0.57571  -0.53508  -0.49389  -0.48199
 Alpha  occ. eigenvalues --   -0.44780  -0.43748  -0.41132
 Alpha virt. eigenvalues --    0.03259   0.04061   0.04982   0.05543   0.06633
 Alpha virt. eigenvalues --    0.06996   0.07209   0.08419   0.08697   0.09898
 Alpha virt. eigenvalues --    0.11411   0.11786   0.12814   0.13237   0.13632

 Mulliken charges:
               1
     1  C   -0.602021
     2  C    0.381331
     3  N   -0.719396
     4  C    0.680708
     5  N   -0.808850
     6  O   -0.675644
     7  O   -0.631568
     8  H    0.224820
     9  H    0.161387
    10  H    0.220925
    11  H    0.295310
    12  H    0.325452
    13  H    0.329316
    14  H    0.425705
    15  H    0.392524
 Sum of Mulliken charges =  -0.00000

 Dipole moment (field-independent basis, Debye):
    X=              0.6086    Y=             -1.4909    Z=             -0.1826  Tot=              1.6207
 Quadrupole moment (field-independent basis, Debye-Ang):
   XX=            -34.5080   YY=            -43.4966   ZZ=            -45.2058
   XY=              1.9741   XZ=              0.4803   YZ=             -0.9460

 Normal termination of Gaussian 09 at Mon Aug 22 12:37:24 2022.
