 Gaussian 09, Revision E.01,
 Gaussian 09:  ES64L-G09RevE.01 30-Nov-2015

 -----
 #P G4
 -----

 --------
 Frag_625
 --------
 Symbolic Z-matrix:
 Charge =  0 Multiplicity = 1

 SCF Done:  E(RB3LYP) =  -311.085413339     A.U. after   14 cycles
 SCF Done:  E(RB3LYP) =  -311.095860420     A.U. after   12 cycles
 SCF Done:  E(RB3LYP) =  -311.096075084     A.U. after   10 cycles
 SCF Done:  E(RB3LYP) =  -311.096083348     A.U. after    8 cycles
 SCF Done:  E(RB3LYP) =  -311.096084321     A.U. after    7 cycles
 Optimization completed.
    -- Stationary point found.
 Normal termination of Gaussian 09 at Fri Aug 26 13:58:26 2022.

 ----------------------------------------------------------
 #P Geom=AllCheck Guess=TCheck SCRF=Check B3LYP/GTBas3 Freq
 ----------------------------------------------------------

 Structure from the checkpoint file:  "G4.Frag_625.chk"
 --------
 Frag_625
 --------
 Charge =  0 Multiplicity = 1

 SCF Done:  E(RB3LYP) =  -311.096084321     A.U. after    1 cycles

  Exact polarizability:  74.660   7.073  74.917  -0.000  -0.000  57.034
 Approx polarizability: 102.705  11.652 114.006  -0.000   0.000  80.636

                      1                      2                      3
                      A                      A                      A
 Frequencies --     81.3682               185.8944               197.8461
 Red. masses --      3.1674                 1.1116                 1.5128
 Frc consts  --      0.0124                 0.0226                 0.0349
 IR Inten    --      0.4967                37.5246                26.8797

                      4                      5                      6
                      A                      A                      A
 Frequencies --    248.6551               281.1709               284.1568
 Red. masses --      1.0443                 2.7017                 1.3230
 Frc consts  --      0.0380                 0.1258                 0.0629
 IR Inten    --      0.0928                 1.0750                 9.6310

                      7                      8                      9
                      A                      A                      A
 Frequencies --    319.9000               350.2585               376.1044
 Red. masses --      1.1771                 2.4651                 2.1769
 Frc consts  --      0.0710                 0.1782                 0.1814
 IR Inten    --     10.4951                 1.0382                 0.7340

                     10                     11                     12
                      A                      A                      A
 Frequencies --    377.5755               481.0368               509.3178
 Red. masses --      2.7423                 2.4229                 2.8205
 Frc consts  --      0.2303                 0.3303                 0.4311
 IR Inten    --      0.0412                 1.1020                 0.8153

                     13                     14                     15
                      A                      A                      A
 Frequencies --    663.6013               689.8712               743.3247
 Red. masses --      3.1025                 3.2673                 1.1140
 Frc consts  --      0.8050                 0.9162                 0.3627
 IR Inten    --      2.3603                 3.7264                10.8087

                     16                     17                     18
                      A                      A                      A
 Frequencies --    850.4182               860.7114               925.5920
 Red. masses --      1.4325                 2.2763                 1.7922
 Frc consts  --      0.6104                 0.9936                 0.9046
 IR Inten    --     41.9830                 4.1003                 0.1951

                     19                     20                     21
                      A                      A                      A
 Frequencies --    941.9702               960.0303               981.2930
 Red. masses --      1.6537                 1.2013                 1.9489
 Frc consts  --      0.8645                 0.6523                 1.1057
 IR Inten    --      2.7354                 0.2308                37.7587

                     22                     23                     24
                      A                      A                      A
 Frequencies --   1043.0507              1044.5216              1191.5555
 Red. masses --      1.3996                 1.4009                 1.9430
 Frc consts  --      0.8971                 0.9005                 1.6253
 IR Inten    --      0.3139                 0.8477                 0.4945

                     25                     26                     27
                      A                      A                      A
 Frequencies --   1225.3974              1237.0456              1264.7222
 Red. masses --      2.6788                 2.8349                 1.5680
 Frc consts  --      2.3700                 2.5560                 1.4777
 IR Inten    --      6.2915                10.5983               109.6925

                     28                     29                     30
                      A                      A                      A
 Frequencies --   1337.5699              1395.0341              1400.5199
 Red. masses --      2.9163                 1.2427                 1.2014
 Frc consts  --      3.0741                 1.4249                 1.3884
 IR Inten    --    113.8787                 3.0392                 3.4847

                     31                     32                     33
                      A                      A                      A
 Frequencies --   1428.8553              1441.2902              1477.5509
 Red. masses --      1.1981                 1.1770                 1.0466
 Frc consts  --      1.4412                 1.4405                 1.3462
 IR Inten    --      2.2182                 8.7845                 0.0646

                     34                     35                     36
                      A                      A                      A
 Frequencies --   1482.5311              1488.1684              1502.9301
 Red. masses --      1.0487                 1.0477                 1.0526
 Frc consts  --      1.3581                 1.3671                 1.4008
 IR Inten    --      0.2859                 0.4089                 4.8299

                     37                     38                     39
                      A                      A                      A
 Frequencies --   1504.4379              1521.8092              1735.5675
 Red. masses --      1.0540                 1.0716                 5.4226
 Frc consts  --      1.4056                 1.4621                 9.6237
 IR Inten    --      9.3801                15.1177                76.8936

                     40                     41                     42
                      A                      A                      A
 Frequencies --   3028.9090              3032.3126              3040.1199
 Red. masses --      1.0352                 1.0349                 1.0357
 Frc consts  --      5.5956                 5.6064                 5.6399
 IR Inten    --     18.2135                34.5545                 8.0762

                     43                     44                     45
                      A                      A                      A
 Frequencies --   3090.5494              3095.6425              3105.3337
 Red. masses --      1.1002                 1.0997                 1.1014
 Frc consts  --      6.1912                 6.2091                 6.2574
 IR Inten    --      1.0532                57.8003                13.2486

                     46                     47                     48
                      A                      A                      A
 Frequencies --   3110.2083              3114.3697              3116.7848
 Red. masses --      1.1026                 1.1017                 1.1017
 Frc consts  --      6.2843                 6.2960                 6.3058
 IR Inten    --      3.9799                43.9535                32.3236

                     49                     50                     51
                      A                      A                      A
 Frequencies --   3183.6341              3283.5026              3850.3334
 Red. masses --      1.0635                 1.1125                 1.0657
 Frc consts  --      6.3511                 7.0667                 9.3083
 IR Inten    --      1.5371                 4.1911                38.0069

 - Thermochemistry -
 -------------------
 Temperature   298.150 Kelvin.  Pressure   1.00000 Atm.
 Atom     1 has atomic number  6 and mass  12.00000

 Molecular mass:   100.08882 amu.
 Principal axes and moments of inertia in atomic units:
                           1         2         3
     Eigenvalues --   562.57820 780.90022 941.66232
           X            0.99852   0.05444   0.00000
           Y           -0.05444   0.99852  -0.00000
           Z           -0.00000   0.00000   1.00000
 This molecule is an asymmetric top.
 Rotational symmetry number  1.
 Warning -- assumption of classical behavior for rotation
           may cause significant error
 Rotational temperatures (Kelvin)      0.15396     0.11092     0.09198
 Rotational constants (GHZ):           3.20798     2.31110     1.91655
 Zero-point vibrational energy     443122.8 (Joules/Mol)
                                  105.90890 (Kcal/Mol)
 Warning -- explicit consideration of  12 degrees of freedom as
           vibrations may cause significant error
 Vibrational temperatures:    117.07   267.46   284.66   357.76   404.54
          (Kelvin)            408.84   460.26   503.94   541.13   543.25
                              692.10   732.79   954.77   992.57  1069.48
                             1223.56  1238.37  1331.72  1355.28  1381.27
                             1411.86  1500.72  1502.83  1714.38  1763.07
                             1779.83  1819.65  1924.46  2007.14  2015.03
                             2055.80  2073.69  2125.86  2133.03  2141.14
                             2162.38  2164.55  2189.54  2497.09  4357.92
                             4362.82  4374.05  4446.61  4453.93  4467.88
                             4474.89  4480.88  4484.35  4580.53  4724.22
                             5539.76

 Zero-point correction=                           0.168777 (Hartree/Particle)
 Thermal correction to Energy=                    0.177616
 Thermal correction to Enthalpy=                  0.178560
 Thermal correction to Gibbs Free Energy=         0.136558
 Sum of electronic and zero-point Energies=           -310.927308
 Sum of electronic and thermal Energies=              -310.918468
 Sum of electronic and thermal Enthalpies=            -310.917524
 Sum of electronic and thermal Free Energies=         -310.959526

                     E (Thermal)             CV                S
                      KCal/Mol        Cal/Mol-Kelvin    Cal/Mol-Kelvin
 Total                  111.456             33.362             88.401
 Electronic               0.000              0.000              0.000
 Translational            0.889              2.981             39.721
 Rotational               0.889              2.981             27.517
 Vibrational            109.678             27.401             21.164
 Vibration     1          0.600              1.962              3.858
 Vibration     2          0.632              1.859              2.268
 Vibration     3          0.637              1.843              2.153
 Vibration     4          0.662              1.765              1.740
 Vibration     5          0.681              1.708              1.527
 Vibration     6          0.683              1.703              1.509
 Vibration     7          0.706              1.635              1.311
 Vibration     8          0.727              1.575              1.165
 Vibration     9          0.747              1.521              1.055
 Vibration    10          0.748              1.518              1.049
 Vibration    11          0.837              1.292              0.707
 Vibration    12          0.864              1.229              0.635

 Optimization completed.
    -- Stationary point found.
 Normal termination of Gaussian 09 at Fri Aug 26 13:59:25 2022.

 -----------------------------------------------------------------
 #P Geom=AllCheck Guess=TCheck SCRF=Check CCSD(T,E4T,FrzG4)/GTBas1
 -----------------------------------------------------------------

 Structure from the checkpoint file:  "G4.Frag_625.chk"
 --------
 Frag_625
 --------
 Charge =  0 Multiplicity = 1

 SCF Done:  E(RHF) =  -309.026150339     A.U. after   12 cycles
 E2 =    -0.9660792774D+00 EUMP2 =    -0.30999222961669D+03
 CCSD(T)
 CCSD(T)= -0.31009469795D+03
 .0934289\MP4SDQ=-310.060693\CCSD=-310.0616418\CCSD(T)=-310.0946979\RMS
 Normal termination of Gaussian 09 at Fri Aug 26 14:04:03 2022.

 ---------------------------------------------------------
 #P Geom=AllCheck Guess=TCheck SCRF=Check MP4=FrzG4/GTBas2
 ---------------------------------------------------------

 Structure from the checkpoint file:  "G4.Frag_625.chk"
 --------
 Frag_625
 --------
 Charge =  0 Multiplicity = 1

 SCF Done:  E(RHF) =  -309.033675916     A.U. after   13 cycles
 E2 =    -0.9786162474D+00 EUMP2 =    -0.31001229216316D+03
 Normal termination of Gaussian 09 at Fri Aug 26 14:05:36 2022.

 ---------------------------------------------------------
 #P Geom=AllCheck Guess=TCheck SCRF=Check MP4=FrzG4/GTBas3
 ---------------------------------------------------------

 Structure from the checkpoint file:  "G4.Frag_625.chk"
 --------
 Frag_625
 --------
 Charge =  0 Multiplicity = 1

 SCF Done:  E(RHF) =  -309.068709068     A.U. after   11 cycles
 E2 =    -0.1199959440D+01 EUMP2 =    -0.31026866850766D+03
 Normal termination of Gaussian 09 at Fri Aug 26 14:18:50 2022.

 -----------------------------------------------------------
 #P Geom=AllCheck Guess=TCheck SCRF=Check MP2=Full/GTLargeXP
 -----------------------------------------------------------

 Structure from the checkpoint file:  "G4.Frag_625.chk"
 --------
 Frag_625
 --------
 Charge =  0 Multiplicity = 1

 SCF Done:  E(RHF) =  -309.140872155     A.U. after   12 cycles
 E2 =    -0.1579385920D+01 EUMP2 =    -0.31072025807501D+03
 Normal termination of Gaussian 09 at Fri Aug 26 14:23:27 2022.
 SCF Done:  E(RHF) =  -309.165668476     A.U. after    8 cycles
 Normal termination of Gaussian 09 at Fri Aug 26 14:27:38 2022.

                         Standard orientation:
 ---------------------------------------------------------------------
 Center     Atomic      Atomic             Coordinates (Angstroms)
 Number     Number       Type             X           Y           Z
 ---------------------------------------------------------------------
      1          6           0        1.732385    1.161036    0.000002
      2          6           0        0.967639    0.069698   -0.000002
      3          8           0        1.591621   -1.153190   -0.000007
      4          6           0       -0.557966    0.034563   -0.000001
      5          6           0       -1.053360   -0.707385    1.264721
      6          6           0       -1.155806    1.450361    0.000026
      7          6           0       -1.053365   -0.707341   -1.264745
      8          1           0        1.309369    2.153119   -0.000002
      9          1           0        2.811475    1.067623    0.000006
     10          1           0        0.932800   -1.852469    0.000039
     11          1           0       -0.683815   -1.737139    1.323513
     12          1           0       -2.146978   -0.756813    1.270857
     13          1           0       -0.726831   -0.189046    2.171063
     14          1           0       -0.849829    2.013302   -0.886307
     15          1           0       -0.849833    2.013267    0.886383
     16          1           0       -2.248839    1.390913    0.000023
     17          1           0       -0.726845   -0.188969   -2.171072
     18          1           0       -0.683814   -1.737090   -1.323577
     19          1           0       -2.146983   -0.756773   -1.270877
 ---------------------------------------------------------------------

 SCF Done:  E(RHF) =  -309.170903591     A.U. after    7 cycles

 The electronic state is 1-A.
 Alpha  occ. eigenvalues --  -20.57563 -11.28972 -11.25514 -11.22666 -11.22664
 Alpha  occ. eigenvalues --  -11.21931 -11.19576  -1.39395  -1.11326  -1.00592
 Alpha  occ. eigenvalues --   -0.94411  -0.93759  -0.82479  -0.75951  -0.68194
 Alpha  occ. eigenvalues --   -0.63231  -0.61406  -0.60002  -0.58146  -0.57644
 Alpha  occ. eigenvalues --   -0.56371  -0.53649  -0.52813  -0.52383  -0.47683
 Alpha  occ. eigenvalues --   -0.47647  -0.46839  -0.33259
 Alpha virt. eigenvalues --    0.03108   0.03906   0.04171   0.04635   0.06046
 Alpha virt. eigenvalues --    0.06501   0.06680   0.07138   0.07594   0.09103
 Alpha virt. eigenvalues --    0.09394   0.09628   0.09934   0.09955   0.10796

 Mulliken charges:
               1
     1  C   -0.540656
     2  C    0.236720
     3  O   -0.587339
     4  C    0.342304
     5  C   -0.569578
     6  C   -0.653964
     7  C   -0.569577
     8  H    0.184808
     9  H    0.206689
    10  H    0.382838
    11  H    0.153594
    12  H    0.173579
    13  H    0.183411
    14  H    0.183045
    15  H    0.183045
    16  H    0.180494
    17  H    0.183410
    18  H    0.153598
    19  H    0.173578
 Sum of Mulliken charges =  -0.00000

 Dipole moment (field-independent basis, Debye):
    X=             -2.3882    Y=             -0.4579    Z=              0.0001  Tot=              2.4317
 Quadrupole moment (field-independent basis, Debye-Ang):
   XX=            -49.2767   YY=            -42.8638   ZZ=            -47.1705
   XY=              1.5509   XZ=              0.0001   YZ=             -0.0002

 Normal termination of Gaussian 09 at Fri Aug 26 14:40:51 2022.
