 Gaussian 09, Revision E.01,
 Gaussian 09:  ES64L-G09RevE.01 30-Nov-2015

 -----
 #P G4
 -----

 --------
 Frag_593
 --------
 Symbolic Z-matrix:
 Charge =  0 Multiplicity = 1

 SCF Done:  E(RB3LYP) =  -302.662274021     A.U. after   14 cycles
 SCF Done:  E(RB3LYP) =  -302.672818891     A.U. after   12 cycles
 SCF Done:  E(RB3LYP) =  -302.673462490     A.U. after   11 cycles
 SCF Done:  E(RB3LYP) =  -302.673064433     A.U. after   13 cycles
 SCF Done:  E(RB3LYP) =  -302.673638706     A.U. after    9 cycles
 SCF Done:  E(RB3LYP) =  -302.673874278     A.U. after   11 cycles
 SCF Done:  E(RB3LYP) =  -302.673929945     A.U. after   10 cycles
 SCF Done:  E(RB3LYP) =  -302.673947477     A.U. after   10 cycles
 SCF Done:  E(RB3LYP) =  -302.673951736     A.U. after    9 cycles
 SCF Done:  E(RB3LYP) =  -302.673953091     A.U. after    8 cycles
 SCF Done:  E(RB3LYP) =  -302.673953438     A.U. after    7 cycles
 SCF Done:  E(RB3LYP) =  -302.673953663     A.U. after    8 cycles
 SCF Done:  E(RB3LYP) =  -302.673953767     A.U. after    6 cycles
 Optimization completed.
    -- Stationary point found.
 Normal termination of Gaussian 09 at Tue Aug 30 09:41:50 2022.

 ----------------------------------------------------------
 #P Geom=AllCheck Guess=TCheck SCRF=Check B3LYP/GTBas3 Freq
 ----------------------------------------------------------

 Structure from the checkpoint file:  "G4.Frag_593.chk"
 --------
 Frag_593
 --------
 Charge =  0 Multiplicity = 1

 SCF Done:  E(RB3LYP) =  -302.673953767     A.U. after    1 cycles

  Exact polarizability:  54.011   2.171  60.402  -0.093   0.435  29.637
 Approx polarizability:  68.996  -1.452 110.056   0.284   1.628  45.222

                      1                      2                      3
                      A                      A                      A
 Frequencies --     78.4646               157.4143               283.0483
 Red. masses --      5.1488                 1.0399                 3.2444
 Frc consts  --      0.0187                 0.0152                 0.1531
 IR Inten    --      2.2787                 0.7957                13.3780

                      4                      5                      6
                      A                      A                      A
 Frequencies --    317.8509               402.2583               419.7150
 Red. masses --      1.3944                 3.1814                 2.6496
 Frc consts  --      0.0830                 0.3033                 0.2750
 IR Inten    --    111.9393                14.8648               120.1505

                      7                      8                      9
                      A                      A                      A
 Frequencies --    497.7336               528.2670               575.6723
 Red. masses --      2.9852                 1.3368                 2.7703
 Frc consts  --      0.4357                 0.2198                 0.5409
 IR Inten    --     12.4818                13.0742                16.0966

                     10                     11                     12
                      A                      A                      A
 Frequencies --    703.2350               723.6523               820.0481
 Red. masses --      3.0495                 3.2819                 1.1130
 Frc consts  --      0.8885                 1.0126                 0.4410
 IR Inten    --      4.7225                 6.8664                44.7756

                     13                     14                     15
                      A                      A                      A
 Frequencies --    971.7574              1040.8748              1113.2495
 Red. masses --      1.9207                 1.9687                 1.9300
 Frc consts  --      1.0686                 1.2567                 1.4093
 IR Inten    --     10.1675                 0.7753                10.1275

                     16                     17                     18
                      A                      A                      A
 Frequencies --   1143.3180              1206.1058              1377.3154
 Red. masses --      1.3478                 2.4416                 1.2993
 Frc consts  --      1.0380                 2.0927                 1.4522
 IR Inten    --    101.9600               113.0804                33.2421

                     19                     20                     21
                      A                      A                      A
 Frequencies --   1433.2988              1467.3425              1472.3817
 Red. masses --      2.6267                 1.0507                 1.0482
 Frc consts  --      3.1793                 1.3329                 1.3388
 IR Inten    --      7.1682                 6.2451                 8.0446

                     22                     23                     24
                      A                      A                      A
 Frequencies --   1589.6052              1715.6726              1795.2696
 Red. masses --      1.3544                 6.7700                10.0946
 Frc consts  --      2.0164                11.7412                19.1690
 IR Inten    --     71.3712               227.3696               110.4676

                     25                     26                     27
                      A                      A                      A
 Frequencies --   3043.5216              3106.3813              3158.6971
 Red. masses --      1.0371                 1.0984                 1.1016
 Frc consts  --      5.6602                 6.2450                 6.4758
 IR Inten    --      0.9639                 3.4216                 5.6444

                     28                     29                     30
                      A                      A                      A
 Frequencies --   3526.2367              3603.8118              3736.0843
 Red. masses --      1.0742                 1.0437                 1.1041
 Frc consts  --      7.8699                 7.9866                 9.0802
 IR Inten    --      1.9729                45.0154                63.7722

 - Thermochemistry -
 -------------------
 Temperature   298.150 Kelvin.  Pressure   1.00000 Atm.
 Atom     1 has atomic number  6 and mass  12.00000

 Molecular mass:    86.04801 amu.
 Principal axes and moments of inertia in atomic units:
                           1         2         3
     Eigenvalues --   335.55187 518.20425 840.70561
           X            0.98748   0.15769  -0.00452
           Y           -0.15770   0.98749  -0.00155
           Z            0.00422   0.00224   0.99999
 This molecule is an asymmetric top.
 Rotational symmetry number  1.
 Rotational temperatures (Kelvin)      0.25812     0.16714     0.10303
 Rotational constants (GHZ):           5.37843     3.48268     2.14670
 Zero-point vibrational energy     251265.3 (Joules/Mol)
                                   60.05386 (Kcal/Mol)
 Warning -- explicit consideration of   9 degrees of freedom as
           vibrations may cause significant error
 Vibrational temperatures:    112.89   226.48   407.24   457.32   578.76
          (Kelvin)            603.88   716.13   760.06   828.26  1011.80
                             1041.17  1179.86  1398.14  1497.58  1601.72
                             1644.98  1735.32  1981.65  2062.19  2111.18
                             2118.43  2287.08  2468.47  2582.99  4378.94
                             4469.38  4544.65  5073.46  5185.07  5375.39

 Zero-point correction=                           0.095702 (Hartree/Particle)
 Thermal correction to Energy=                    0.102437
 Thermal correction to Enthalpy=                  0.103381
 Thermal correction to Gibbs Free Energy=         0.065427
 Sum of electronic and zero-point Energies=           -302.578252
 Sum of electronic and thermal Energies=              -302.571517
 Sum of electronic and thermal Enthalpies=            -302.570573
 Sum of electronic and thermal Free Energies=         -302.608527

                     E (Thermal)             CV                S
                      KCal/Mol        Cal/Mol-Kelvin    Cal/Mol-Kelvin
 Total                   64.280             23.758             79.882
 Electronic               0.000              0.000              0.000
 Translational            0.889              2.981             39.270
 Rotational               0.889              2.981             26.483
 Vibrational             62.503             17.796             14.129
 Vibration     1          0.600              1.964              3.929
 Vibration     2          0.621              1.894              2.581
 Vibration     3          0.682              1.705              1.515
 Vibration     4          0.704              1.639              1.321
 Vibration     5          0.768              1.465              0.954
 Vibration     6          0.782              1.427              0.893
 Vibration     7          0.853              1.255              0.664
 Vibration     8          0.883              1.187              0.591
 Vibration     9          0.932              1.084              0.493

 Optimization completed.
    -- Stationary point found.
 Normal termination of Gaussian 09 at Tue Aug 30 09:42:16 2022.

 -----------------------------------------------------------------
 #P Geom=AllCheck Guess=TCheck SCRF=Check CCSD(T,E4T,FrzG4)/GTBas1
 -----------------------------------------------------------------

 Structure from the checkpoint file:  "G4.Frag_593.chk"
 --------
 Frag_593
 --------
 Charge =  0 Multiplicity = 1

 SCF Done:  E(RHF) =  -300.844714912     A.U. after   14 cycles
 E2 =    -0.8814424958D+00 EUMP2 =    -0.30172615740825D+03
 CCSD(T)
 CCSD(T)= -0.30179472437D+03
 D=-301.7631837\CCSD(T)=-301.7947244\RMSD=7.361e-09\PG=C01 [X(C3H6N2O1)
 Normal termination of Gaussian 09 at Tue Aug 30 09:44:01 2022.

 ---------------------------------------------------------
 #P Geom=AllCheck Guess=TCheck SCRF=Check MP4=FrzG4/GTBas2
 ---------------------------------------------------------

 Structure from the checkpoint file:  "G4.Frag_593.chk"
 --------
 Frag_593
 --------
 Charge =  0 Multiplicity = 1

 SCF Done:  E(RHF) =  -300.855283013     A.U. after   13 cycles
 E2 =    -0.8943511578D+00 EUMP2 =    -0.30174963417057D+03
 Normal termination of Gaussian 09 at Tue Aug 30 09:44:35 2022.

 ---------------------------------------------------------
 #P Geom=AllCheck Guess=TCheck SCRF=Check MP4=FrzG4/GTBas3
 ---------------------------------------------------------

 Structure from the checkpoint file:  "G4.Frag_593.chk"
 --------
 Frag_593
 --------
 Charge =  0 Multiplicity = 1

 SCF Done:  E(RHF) =  -300.883531267     A.U. after   13 cycles
 E2 =    -0.1066968377D+01 EUMP2 =    -0.30195049964376D+03
 Normal termination of Gaussian 09 at Tue Aug 30 09:47:19 2022.

 -----------------------------------------------------------
 #P Geom=AllCheck Guess=TCheck SCRF=Check MP2=Full/GTLargeXP
 -----------------------------------------------------------

 Structure from the checkpoint file:  "G4.Frag_593.chk"
 --------
 Frag_593
 --------
 Charge =  0 Multiplicity = 1

 SCF Done:  E(RHF) =  -300.963000550     A.U. after   12 cycles
 E2 =    -0.1399987019D+01 EUMP2 =    -0.30236298756904D+03
 Normal termination of Gaussian 09 at Tue Aug 30 09:48:54 2022.
 SCF Done:  E(RHF) =  -300.986137979     A.U. after    9 cycles
 Normal termination of Gaussian 09 at Tue Aug 30 09:50:31 2022.

                         Standard orientation:
 ---------------------------------------------------------------------
 Center     Atomic      Atomic             Coordinates (Angstroms)
 Number     Number       Type             X           Y           Z
 ---------------------------------------------------------------------
      1          6           0        1.833363    0.652167   -0.044183
      2          6           0        0.667004   -0.309899    0.002799
      3          8           0        0.820248   -1.510229    0.059528
      4          6           0       -0.748557    0.271760   -0.005203
      5          7           0       -1.043751    1.517511    0.053457
      6          7           0       -1.696556   -0.700253   -0.090919
      7          1           0        1.771710    1.295968   -0.927602
      8          1           0        2.761283    0.080848   -0.068794
      9          1           0        1.832410    1.303656    0.836287
     10          1           0       -0.204170    2.090193    0.075842
     11          1           0       -2.654058   -0.445662    0.081592
     12          1           0       -1.397875   -1.648153    0.068205
 ---------------------------------------------------------------------

 SCF Done:  E(RHF) =  -300.990992014     A.U. after    8 cycles

 The electronic state is 1-A.
 Alpha  occ. eigenvalues --  -20.57674 -15.57365 -15.54355 -11.35967 -11.33098
 Alpha  occ. eigenvalues --  -11.25311  -1.42108  -1.26895  -1.15646  -1.03030
 Alpha  occ. eigenvalues --   -0.88763  -0.77323  -0.73547  -0.67250  -0.64321
 Alpha  occ. eigenvalues --   -0.63032  -0.62395  -0.56982  -0.55257  -0.50629
 Alpha  occ. eigenvalues --   -0.49439  -0.41639  -0.37551
 Alpha virt. eigenvalues --    0.03370   0.04450   0.05122   0.05312   0.06420
 Alpha virt. eigenvalues --    0.07110   0.07643   0.07758   0.08499   0.08715
 Alpha virt. eigenvalues --    0.09798   0.11333   0.12858   0.13471   0.13877

 Mulliken charges:
               1
     1  C   -0.590273
     2  C    0.488260
     3  O   -0.528386
     4  C    0.357706
     5  N   -0.674831
     6  N   -0.678451
     7  H    0.211750
     8  H    0.226027
     9  H    0.209647
    10  H    0.278161
    11  H    0.345735
    12  H    0.354655
 Sum of Mulliken charges =  -0.00000

 Dipole moment (field-independent basis, Debye):
    X=              1.1892    Y=              0.4629    Z=              0.3020  Tot=              1.3114
 Quadrupole moment (field-independent basis, Debye-Ang):
   XX=            -32.9774   YY=            -40.1800   ZZ=            -36.9533
   XY=              9.2659   XZ=             -1.1179   YZ=             -0.4304

 Normal termination of Gaussian 09 at Tue Aug 30 09:56:31 2022.
