 Gaussian 09, Revision E.01,
 Gaussian 09:  ES64L-G09RevE.01 30-Nov-2015

 -----
 #P G4
 -----

 ---------
 Frag_1012
 ---------
 Symbolic Z-matrix:
 Charge =  0 Multiplicity = 1

 SCF Done:  E(RB3LYP) =  -299.962698545     A.U. after   14 cycles
 SCF Done:  E(RB3LYP) =  -299.980296420     A.U. after   12 cycles
 SCF Done:  E(RB3LYP) =  -299.983719385     A.U. after   11 cycles
 SCF Done:  E(RB3LYP) =  -299.986495516     A.U. after   12 cycles
 SCF Done:  E(RB3LYP) =  -299.987804688     A.U. after   12 cycles
 SCF Done:  E(RB3LYP) =  -299.988155643     A.U. after   12 cycles
 SCF Done:  E(RB3LYP) =  -299.988474321     A.U. after   10 cycles
 SCF Done:  E(RB3LYP) =  -299.988932362     A.U. after   12 cycles
 SCF Done:  E(RB3LYP) =  -299.989213631     A.U. after   10 cycles
 SCF Done:  E(RB3LYP) =  -299.989472466     A.U. after   11 cycles
 SCF Done:  E(RB3LYP) =  -299.989557532     A.U. after    7 cycles
 SCF Done:  E(RB3LYP) =  -299.989558344     A.U. after    7 cycles
 SCF Done:  E(RB3LYP) =  -299.989558547     A.U. after    7 cycles
 Optimization completed.
    -- Stationary point found.
 Normal termination of Gaussian 09 at Fri Aug 26 11:31:39 2022.

 ----------------------------------------------------------
 #P Geom=AllCheck Guess=TCheck SCRF=Check B3LYP/GTBas3 Freq
 ----------------------------------------------------------

 Structure from the checkpoint file:  "G4.Frag_1012.chk"
 ---------
 Frag_1012
 ---------
 Charge =  0 Multiplicity = 1

 SCF Done:  E(RB3LYP) =  -299.989558547     A.U. after    1 cycles

  Exact polarizability:  60.292  -3.776  59.709   1.325  -0.432  37.185
 Approx polarizability:  79.815  -9.897  90.296   3.581  -2.930  57.087

                      1                      2                      3
                      A                      A                      A
 Frequencies --    116.7846               149.8498               177.5428
 Red. masses --      3.7849                 1.0397                 1.2481
 Frc consts  --      0.0304                 0.0138                 0.0232
 IR Inten    --      4.1393                 1.2676                22.4132

                      4                      5                      6
                      A                      A                      A
 Frequencies --    258.2228               315.5148               353.2866
 Red. masses --      1.8003                 3.1685                 1.2605
 Frc consts  --      0.0707                 0.1858                 0.0927
 IR Inten    --     52.7134                15.3617                 4.9884

                      7                      8                      9
                      A                      A                      A
 Frequencies --    435.0330               505.2945               585.8941
 Red. masses --      3.2363                 2.8874                 3.9558
 Frc consts  --      0.3609                 0.4344                 0.8001
 IR Inten    --     11.3628                19.7158                12.8644

                     10                     11                     12
                      A                      A                      A
 Frequencies --    593.7481               756.6006               828.8893
 Red. masses --      3.1921                 4.8533                 1.1573
 Frc consts  --      0.6630                 1.6369                 0.4685
 IR Inten    --      8.2184                14.9418                39.6007

                     13                     14                     15
                      A                      A                      A
 Frequencies --    952.3205               959.8370              1018.1492
 Red. masses --      2.0848                 2.5413                 1.5924
 Frc consts  --      1.1140                 1.3794                 0.9726
 IR Inten    --    143.2572                36.3384                20.3066

                     16                     17                     18
                      A                      A                      A
 Frequencies --   1065.3694              1088.8744              1181.2243
 Red. masses --      1.6451                 1.4167                 1.8423
 Frc consts  --      1.1001                 0.9897                 1.5145
 IR Inten    --      8.2110                47.4225               103.1991

                     19                     20                     21
                      A                      A                      A
 Frequencies --   1296.2114              1327.8609              1362.5493
 Red. masses --      2.0247                 1.1244                 1.2984
 Frc consts  --      2.0043                 1.1681                 1.4202
 IR Inten    --     34.8762                 7.3137                29.7251

                     22                     23                     24
                      A                      A                      A
 Frequencies --   1401.8808              1436.6465              1470.5766
 Red. masses --      1.2517                 2.3630                 1.1192
 Frc consts  --      1.4493                 2.8735                 1.4260
 IR Inten    --      2.3720                62.3144                 9.1007

                     25                     26                     27
                      A                      A                      A
 Frequencies --   1477.7857              1682.9151              1698.9342
 Red. masses --      1.1440                 2.7982                 1.1799
 Frc consts  --      1.4719                 4.6693                 2.0065
 IR Inten    --     17.7411               133.8609                 2.3322

                     28                     29                     30
                      A                      A                      A
 Frequencies --   1707.5330              3054.8220              3123.7179
 Red. masses --      1.2896                 1.0353                 1.0996
 Frc consts  --      2.2154                 5.6921                 6.3216
 IR Inten    --     60.8665                 8.7305                 9.4793

                     31                     32                     33
                      A                      A                      A
 Frequencies --   3138.1886              3410.2093              3421.3007
 Red. masses --      1.1032                 1.0520                 1.0539
 Frc consts  --      6.4010                 7.2079                 7.2680
 IR Inten    --     16.7430                19.2565                 5.3225

                     34                     35                     36
                      A                      A                      A
 Frequencies --   3491.6255              3516.5227              3524.6880
 Red. masses --      1.0878                 1.0752                 1.0869
 Frc consts  --      7.8134                 7.8340                 7.9560
 IR Inten    --      4.9205                 0.6906                 1.3141

 - Thermochemistry -
 -------------------
 Temperature   298.150 Kelvin.  Pressure   1.00000 Atm.
 Atom     1 has atomic number  6 and mass  12.00000

 Molecular mass:    88.07490 amu.
 Principal axes and moments of inertia in atomic units:
                           1         2         3
     Eigenvalues --   366.00154 503.99097 830.06801
           X            0.99818   0.06021   0.00204
           Y           -0.06021   0.99818   0.00384
           Z           -0.00181  -0.00396   0.99999
 This molecule is an asymmetric top.
 Rotational symmetry number  1.
 Rotational temperatures (Kelvin)      0.23665     0.17186     0.10435
 Rotational constants (GHZ):           4.93097     3.58090     2.17421
 Zero-point vibrational energy     316330.9 (Joules/Mol)
                                   75.60491 (Kcal/Mol)
 Warning -- explicit consideration of  10 degrees of freedom as
           vibrations may cause significant error
 Vibrational temperatures:    168.03   215.60   255.44   371.52   453.95
          (Kelvin)            508.30   625.91   727.01   842.97   854.27
                             1088.58  1192.59  1370.18  1380.99  1464.89
                             1532.83  1566.65  1699.52  1864.96  1910.49
                             1960.40  2016.99  2067.01  2115.83  2126.20
                             2421.34  2444.38  2456.76  4395.20  4494.33
                             4515.15  4906.52  4922.48  5023.66  5059.49
                             5071.23

 Zero-point correction=                           0.120484 (Hartree/Particle)
 Thermal correction to Energy=                    0.127740
 Thermal correction to Enthalpy=                  0.128684
 Thermal correction to Gibbs Free Energy=         0.089865
 Sum of electronic and zero-point Energies=           -299.869074
 Sum of electronic and thermal Energies=              -299.861819
 Sum of electronic and thermal Enthalpies=            -299.860874
 Sum of electronic and thermal Free Energies=         -299.899693

                     E (Thermal)             CV                S
                      KCal/Mol        Cal/Mol-Kelvin    Cal/Mol-Kelvin
 Total                   80.158             25.610             81.701
 Electronic               0.000              0.000              0.000
 Translational            0.889              2.981             39.340
 Rotational               0.889              2.981             26.529
 Vibrational             78.381             19.649             15.833
 Vibration     1          0.608              1.935              3.153
 Vibration     2          0.618              1.903              2.674
 Vibration     3          0.628              1.870              2.354
 Vibration     4          0.667              1.749              1.674
 Vibration     5          0.703              1.644              1.333
 Vibration     6          0.729              1.569              1.152
 Vibration     7          0.796              1.394              0.842
 Vibration     8          0.861              1.238              0.645
 Vibration     9          0.943              1.062              0.475
 Vibration    10          0.951              1.045              0.461

 Normal termination of Gaussian 09 at Fri Aug 26 11:32:10 2022.

 -----------------------------------------------------------------
 #P Geom=AllCheck Guess=TCheck SCRF=Check CCSD(T,E4T,FrzG4)/GTBas1
 -----------------------------------------------------------------

 Structure from the checkpoint file:  "G4.Frag_1012.chk"
 ---------
 Frag_1012
 ---------
 Charge =  0 Multiplicity = 1

 SCF Done:  E(RHF) =  -298.102692847     A.U. after   13 cycles
 E2 =    -0.9119382172D+00 EUMP2 =    -0.29901463106445D+03
 CCSD(T)
 CCSD(T)= -0.29909340037D+03
 -299.0626315\CCSD=-299.0630106\CCSD(T)=-299.0934004\RMSD=4.698e-09\PG=
 Normal termination of Gaussian 09 at Fri Aug 26 11:34:13 2022.

 ---------------------------------------------------------
 #P Geom=AllCheck Guess=TCheck SCRF=Check MP4=FrzG4/GTBas2
 ---------------------------------------------------------

 Structure from the checkpoint file:  "G4.Frag_1012.chk"
 ---------
 Frag_1012
 ---------
 Charge =  0 Multiplicity = 1

 SCF Done:  E(RHF) =  -298.113682692     A.U. after   13 cycles
 E2 =    -0.9265435673D+00 EUMP2 =    -0.29904022625897D+03
 Normal termination of Gaussian 09 at Fri Aug 26 11:34:52 2022.

 ---------------------------------------------------------
 #P Geom=AllCheck Guess=TCheck SCRF=Check MP4=FrzG4/GTBas3
 ---------------------------------------------------------

 Structure from the checkpoint file:  "G4.Frag_1012.chk"
 ---------
 Frag_1012
 ---------
 Charge =  0 Multiplicity = 1

 SCF Done:  E(RHF) =  -298.144494076     A.U. after   11 cycles
 E2 =    -0.1107321761D+01 EUMP2 =    -0.29925181583708D+03
 Normal termination of Gaussian 09 at Fri Aug 26 11:38:16 2022.

 -----------------------------------------------------------
 #P Geom=AllCheck Guess=TCheck SCRF=Check MP2=Full/GTLargeXP
 -----------------------------------------------------------

 Structure from the checkpoint file:  "G4.Frag_1012.chk"
 ---------
 Frag_1012
 ---------
 Charge =  0 Multiplicity = 1

 SCF Done:  E(RHF) =  -298.222444810     A.U. after   12 cycles
 E2 =    -0.1443530835D+01 EUMP2 =    -0.29966597564505D+03
 Normal termination of Gaussian 09 at Fri Aug 26 11:40:05 2022.
 SCF Done:  E(RHF) =  -298.245504484     A.U. after    9 cycles
 Normal termination of Gaussian 09 at Fri Aug 26 11:42:09 2022.

                         Standard orientation:
 ---------------------------------------------------------------------
 Center     Atomic      Atomic             Coordinates (Angstroms)
 Number     Number       Type             X           Y           Z
 ---------------------------------------------------------------------
      1          6           0        1.683471    0.903931   -0.071381
      2          6           0        0.697295   -0.239838   -0.039979
      3          7           0        0.979918   -1.478639    0.126521
      4          7           0       -0.636135    0.106065   -0.245230
      5          7           0       -1.608612   -0.898311    0.016715
      6          7           0       -1.009309    1.404898    0.160950
      7          1           0        1.486692    1.574191   -0.910734
      8          1           0        2.699048    0.509669   -0.150538
      9          1           0        1.607171    1.508230    0.836573
     10          1           0        1.985509   -1.606814    0.205285
     11          1           0       -1.118318   -1.627843    0.541232
     12          1           0       -1.838094   -1.332387   -0.876002
     13          1           0       -1.446622    1.336609    1.081812
     14          1           0       -1.741009    1.715698   -0.472158
 ---------------------------------------------------------------------

 SCF Done:  E(RHF) =  -298.250378584     A.U. after    8 cycles

 The electronic state is 1-A.
 Alpha  occ. eigenvalues --  -15.62076 -15.58448 -15.57287 -15.52423 -11.31601
 Alpha  occ. eigenvalues --  -11.23254  -1.35273  -1.19932  -1.15427  -1.01791
 Alpha  occ. eigenvalues --   -0.96130  -0.77034  -0.70933  -0.68630  -0.65305
 Alpha  occ. eigenvalues --   -0.63101  -0.60633  -0.58202  -0.56011  -0.47508
 Alpha  occ. eigenvalues --   -0.45347  -0.43823  -0.41456  -0.35765
 Alpha virt. eigenvalues --    0.03660   0.04720   0.05261   0.05487   0.07389
 Alpha virt. eigenvalues --    0.07626   0.07787   0.08714   0.08968   0.10534
 Alpha virt. eigenvalues --    0.11408   0.11813   0.13164   0.13886   0.13938

 Mulliken charges:
               1
     1  C   -0.487415
     2  C    0.358813
     3  N   -0.756763
     4  N    0.016569
     5  N   -0.626780
     6  N   -0.592092
     7  H    0.201117
     8  H    0.174245
     9  H    0.193787
    10  H    0.282679
    11  H    0.331551
    12  H    0.301405
    13  H    0.295427
    14  H    0.307456
 Sum of Mulliken charges =  -0.00000

 Dipole moment (field-independent basis, Debye):
    X=              0.2720    Y=              1.5412    Z=             -0.2132  Tot=              1.5794
 Quadrupole moment (field-independent basis, Debye-Ang):
   XX=            -33.2456   YY=            -39.6805   ZZ=            -36.3140
   XY=             -0.5893   XZ=              1.5370   YZ=              0.7952

 Normal termination of Gaussian 09 at Fri Aug 26 11:49:28 2022.
