 Gaussian 09, Revision E.01,
 Gaussian 09:  ES64L-G09RevE.01 30-Nov-2015

 -----
 #P G4
 -----

 --------
 Frag_575
 --------
 Symbolic Z-matrix:
 Charge =  0 Multiplicity = 1

 SCF Done:  E(RB3LYP) =  -248.486056787     A.U. after   13 cycles
 SCF Done:  E(RB3LYP) =  -248.493110115     A.U. after   12 cycles
 SCF Done:  E(RB3LYP) =  -248.494085659     A.U. after   11 cycles
 SCF Done:  E(RB3LYP) =  -248.497085809     A.U. after   14 cycles
 SCF Done:  E(RB3LYP) =  -248.498471150     A.U. after   11 cycles
 SCF Done:  E(RB3LYP) =  -248.501083570     A.U. after   12 cycles
 SCF Done:  E(RB3LYP) =  -248.501978575     A.U. after   12 cycles
 SCF Done:  E(RB3LYP) =  -248.502355665     A.U. after   11 cycles
 SCF Done:  E(RB3LYP) =  -248.502474214     A.U. after    9 cycles
 SCF Done:  E(RB3LYP) =  -248.502552487     A.U. after    9 cycles
 SCF Done:  E(RB3LYP) =  -248.504340575     A.U. after    8 cycles
 SCF Done:  E(RB3LYP) =  -248.504344259     A.U. after    8 cycles
 SCF Done:  E(RB3LYP) =  -248.504344503     A.U. after    7 cycles
 Optimization completed.
    -- Stationary point found.
 Normal termination of Gaussian 09 at Thu Aug 25 19:44:16 2022.

 ----------------------------------------------------------
 #P Geom=AllCheck Guess=TCheck SCRF=Check B3LYP/GTBas3 Freq
 ----------------------------------------------------------

 Structure from the checkpoint file:  "G4.Frag_575.chk"
 --------
 Frag_575
 --------
 Charge =  0 Multiplicity = 1

 SCF Done:  E(RB3LYP) =  -248.504344503     A.U. after    1 cycles

  Exact polarizability:  48.873   1.554  49.956   0.081  -0.017  31.927
 Approx polarizability:  60.731   2.491  79.798   0.096  -0.054  47.100

                      1                      2                      3
                      A                      A                      A
 Frequencies --     69.9523               146.4365               185.9998
 Red. masses --      1.9696                 1.0815                 1.1990
 Frc consts  --      0.0057                 0.0137                 0.0244
 IR Inten    --     51.3154                16.7382                53.5170

                      4                      5                      6
                      A                      A                      A
 Frequencies --    287.5786               406.6459               459.4720
 Red. masses --      3.5584                 3.4370                 2.2376
 Frc consts  --      0.1734                 0.3349                 0.2783
 IR Inten    --      1.3242                 1.8339                 0.2328

                      7                      8                      9
                      A                      A                      A
 Frequencies --    587.1648               807.6535               840.5203
 Red. masses --      3.8309                 2.9365                 1.1796
 Frc consts  --      0.7782                 1.1286                 0.4910
 IR Inten    --     30.0605                 6.0699                36.1538

                     10                     11                     12
                      A                      A                      A
 Frequencies --    975.2763              1068.0804              1097.4385
 Red. masses --      2.0406                 1.3010                 1.7825
 Frc consts  --      1.1436                 0.8745                 1.2649
 IR Inten    --     28.1761                17.8718                 2.1111

                     13                     14                     15
                      A                      A                      A
 Frequencies --   1103.4770              1132.7617              1216.4999
 Red. masses --      2.5984                 2.3960                 1.1046
 Frc consts  --      1.8642                 1.8114                 0.9632
 IR Inten    --     41.1518                19.5483                70.9982

                     16                     17                     18
                      A                      A                      A
 Frequencies --   1257.2707              1366.1892              1414.8978
 Red. masses --      1.0879                 1.3068                 1.4301
 Frc consts  --      1.0132                 1.4371                 1.6868
 IR Inten    --      0.3287                79.5795                37.9038

                     19                     20                     21
                      A                      A                      A
 Frequencies --   1447.6261              1473.6537              1482.5806
 Red. masses --      1.5999                 1.0679                 1.0451
 Frc consts  --      1.9754                 1.3664                 1.3534
 IR Inten    --     16.8588                 1.8772                 8.3145

                     22                     23                     24
                      A                      A                      A
 Frequencies --   1502.3462              1745.2775              2958.5721
 Red. masses --      1.1159                 8.3210                 1.0548
 Frc consts  --      1.4839                14.9332                 5.4399
 IR Inten    --      5.6153                52.8043                42.8158

                     25                     26                     27
                      A                      A                      A
 Frequencies --   2981.0938              3028.8434              3079.9503
 Red. masses --      1.1036                 1.0391                 1.0984
 Frc consts  --      5.7785                 5.6163                 6.1391
 IR Inten    --     41.1530                16.4682                18.3732

                     28                     29                     30
                      A                      A                      A
 Frequencies --   3149.2919              3433.2443              3848.8727
 Red. masses --      1.0988                 1.0722                 1.0666
 Frc consts  --      6.4211                 7.4465                 9.3090
 IR Inten    --      7.4001                 3.1049                33.7920

 - Thermochemistry -
 -------------------
 Temperature   298.150 Kelvin.  Pressure   1.00000 Atm.
 Atom     1 has atomic number  6 and mass  12.00000

 Molecular mass:    73.05276 amu.
 Principal axes and moments of inertia in atomic units:
                           1         2         3
     Eigenvalues --   186.70481 482.12107 646.39512
           X            0.99977   0.02148   0.00064
           Y           -0.02148   0.99977  -0.00025
           Z           -0.00065   0.00023   1.00000
 This molecule is an asymmetric top.
 Rotational symmetry number  1.
 Rotational temperatures (Kelvin)      0.46391     0.17965     0.13400
 Rotational constants (GHZ):           9.66628     3.74334     2.79201
 Zero-point vibrational energy     266496.1 (Joules/Mol)
                                   63.69410 (Kcal/Mol)
 Warning -- explicit consideration of   7 degrees of freedom as
           vibrations may cause significant error
 Vibrational temperatures:    100.65   210.69   267.61   413.76   585.07
          (Kelvin)            661.08   844.80  1162.03  1209.32  1403.20
                             1536.73  1578.97  1587.66  1629.79  1750.27
                             1808.93  1965.64  2035.72  2082.81  2120.26
                             2133.10  2161.54  2511.06  4256.72  4289.12
                             4357.82  4431.36  4531.12  4939.67  5537.66

 Zero-point correction=                           0.101503 (Hartree/Particle)
 Thermal correction to Energy=                    0.107876
 Thermal correction to Enthalpy=                  0.108820
 Thermal correction to Gibbs Free Energy=         0.071735
 Sum of electronic and zero-point Energies=           -248.402842
 Sum of electronic and thermal Energies=              -248.396468
 Sum of electronic and thermal Enthalpies=            -248.395524
 Sum of electronic and thermal Free Energies=         -248.432610

                     E (Thermal)             CV                S
                      KCal/Mol        Cal/Mol-Kelvin    Cal/Mol-Kelvin
 Total                   67.693             20.939             78.053
 Electronic               0.000              0.000              0.000
 Translational            0.889              2.981             38.782
 Rotational               0.889              2.981             25.568
 Vibrational             65.916             14.978             13.703
 Vibration     1          0.598              1.968              4.155
 Vibration     2          0.617              1.907              2.718
 Vibration     3          0.632              1.859              2.267
 Vibration     4          0.685              1.697              1.488
 Vibration     5          0.771              1.456              0.939
 Vibration     6          0.817              1.340              0.768
 Vibration     7          0.944              1.059              0.472

 Normal termination of Gaussian 09 at Thu Aug 25 19:45:42 2022.

 -----------------------------------------------------------------
 #P Geom=AllCheck Guess=TCheck SCRF=Check CCSD(T,E4T,FrzG4)/GTBas1
 -----------------------------------------------------------------

 Structure from the checkpoint file:  "G4.Frag_575.chk"
 --------
 Frag_575
 --------
 Charge =  0 Multiplicity = 1

 SCF Done:  E(RHF) =  -246.960623964     A.U. after   12 cycles
 E2 =    -0.7261665221D+00 EUMP2 =    -0.24768679048576D+03
 CCSD(T)
 CCSD(T)= -0.24775360230D+03
 =-247.7306298\CCSD(T)=-247.7536023\RMSD=8.585e-09\PG=C01 [X(C3H7N1O1)]
 Normal termination of Gaussian 09 at Thu Aug 25 19:47:38 2022.

 ---------------------------------------------------------
 #P Geom=AllCheck Guess=TCheck SCRF=Check MP4=FrzG4/GTBas2
 ---------------------------------------------------------

 Structure from the checkpoint file:  "G4.Frag_575.chk"
 --------
 Frag_575
 --------
 Charge =  0 Multiplicity = 1

 SCF Done:  E(RHF) =  -246.969991601     A.U. after   13 cycles
 E2 =    -0.7370385260D+00 EUMP2 =    -0.24770703012724D+03
 Normal termination of Gaussian 09 at Thu Aug 25 19:49:41 2022.

 ---------------------------------------------------------
 #P Geom=AllCheck Guess=TCheck SCRF=Check MP4=FrzG4/GTBas3
 ---------------------------------------------------------

 Structure from the checkpoint file:  "G4.Frag_575.chk"
 --------
 Frag_575
 --------
 Charge =  0 Multiplicity = 1

 SCF Done:  E(RHF) =  -246.994987066     A.U. after   12 cycles
 E2 =    -0.8927307083D+00 EUMP2 =    -0.24788771777399D+03
 Normal termination of Gaussian 09 at Thu Aug 25 20:29:20 2022.

 -----------------------------------------------------------
 #P Geom=AllCheck Guess=TCheck SCRF=Check MP2=Full/GTLargeXP
 -----------------------------------------------------------

 Structure from the checkpoint file:  "G4.Frag_575.chk"
 --------
 Frag_575
 --------
 Charge =  0 Multiplicity = 1

 SCF Done:  E(RHF) =  -247.060466305     A.U. after   12 cycles
 E2 =    -0.1172015209D+01 EUMP2 =    -0.24823248151385D+03
 Normal termination of Gaussian 09 at Thu Aug 25 20:32:00 2022.
 SCF Done:  E(RHF) =  -247.080376345     A.U. after    8 cycles
 Normal termination of Gaussian 09 at Thu Aug 25 20:34:57 2022.

                         Standard orientation:
 ---------------------------------------------------------------------
 Center     Atomic      Atomic             Coordinates (Angstroms)
 Number     Number       Type             X           Y           Z
 ---------------------------------------------------------------------
      1          6           0       -1.843567   -0.527421   -0.001441
      2          6           0       -0.508464    0.170387    0.000941
      3          7           0       -0.439990    1.437596    0.001696
      4          6           0        0.704584   -0.744659    0.002156
      5          8           0        1.878509    0.038472   -0.006773
      6          1           0       -1.951036   -1.174509    0.877564
      7          1           0       -1.950133   -1.169900   -0.883857
      8          1           0       -2.644453    0.212666    0.000105
      9          1           0        0.544110    1.721922    0.003494
     10          1           0        0.651865   -1.396366    0.890611
     11          1           0        0.646496   -1.407634   -0.877746
     12          1           0        2.639697   -0.546973    0.022209
 ---------------------------------------------------------------------

 SCF Done:  E(RHF) =  -247.084598022     A.U. after    8 cycles

 The electronic state is 1-A.
 Alpha  occ. eigenvalues --  -20.57626 -15.53360 -11.29772 -11.28063 -11.22628
 Alpha  occ. eigenvalues --   -1.38511  -1.20401  -1.00714  -0.94168  -0.73947
 Alpha  occ. eigenvalues --   -0.72209  -0.66548  -0.65656  -0.57405  -0.56012
 Alpha  occ. eigenvalues --   -0.54949  -0.52978  -0.47384  -0.41295  -0.41171
 Alpha virt. eigenvalues --    0.02966   0.03988   0.05083   0.05830   0.07177
 Alpha virt. eigenvalues --    0.07581   0.07724   0.08791   0.09245   0.10155
 Alpha virt. eigenvalues --    0.13104   0.13303   0.14027   0.14756   0.15651

 Mulliken charges:
               1
     1  C   -0.520401
     2  C    0.299764
     3  N   -0.622329
     4  C   -0.137979
     5  O   -0.576232
     6  H    0.174217
     7  H    0.174590
     8  H    0.209779
     9  H    0.306781
    10  H    0.157029
    11  H    0.157506
    12  H    0.377275
 Sum of Mulliken charges =  -0.00000

 Dipole moment (field-independent basis, Debye):
    X=              1.3547    Y=             -3.8924    Z=              0.0585  Tot=              4.1218
 Quadrupole moment (field-independent basis, Debye-Ang):
   XX=            -27.4680   YY=            -33.4205   ZZ=            -31.7964
   XY=              0.0044   XZ=              0.1703   YZ=             -0.0298

 Normal termination of Gaussian 09 at Thu Aug 25 22:04:37 2022.
