 Gaussian 09, Revision E.01,
 Gaussian 09:  ES64L-G09RevE.01 30-Nov-2015

 -----
 #P G4
 -----

 ---------
 Frag_1066
 ---------
 Symbolic Z-matrix:
 Charge =  0 Multiplicity = 1

 SCF Done:  E(RB3LYP) =  -323.714179160     A.U. after   14 cycles
 SCF Done:  E(RB3LYP) =  -323.721109742     A.U. after   12 cycles
 SCF Done:  E(RB3LYP) =  -323.719387000     A.U. after   13 cycles
 SCF Done:  E(RB3LYP) =  -323.721431864     A.U. after    9 cycles
 SCF Done:  E(RB3LYP) =  -323.721781015     A.U. after   13 cycles
 SCF Done:  E(RB3LYP) =  -323.722051422     A.U. after   12 cycles
 SCF Done:  E(RB3LYP) =  -323.723307596     A.U. after   15 cycles
 SCF Done:  E(RB3LYP) =  -323.694035180     A.U. after   13 cycles
 SCF Done:  E(RB3LYP) =  -323.723755221     A.U. after    9 cycles
 SCF Done:  E(RB3LYP) =  -323.726579268     A.U. after   15 cycles
 SCF Done:  E(RB3LYP) =  -323.743005063     A.U. after    9 cycles
 SCF Done:  E(RB3LYP) =  -323.743005657     A.U. after    8 cycles
 SCF Done:  E(RB3LYP) =  -323.743005748     A.U. after    7 cycles
 Optimization completed.
    -- Stationary point found.
 Normal termination of Gaussian 09 at Sun Aug 21 17:49:05 2022.

 ----------------------------------------------------------
 #P Geom=AllCheck Guess=TCheck SCRF=Check B3LYP/GTBas3 Freq
 ----------------------------------------------------------

 Structure from the checkpoint file:  "G4.Frag_1066.chk"
 ---------
 Frag_1066
 ---------
 Charge =  0 Multiplicity = 1

 SCF Done:  E(RB3LYP) =  -323.743005748     A.U. after    1 cycles

  Exact polarizability:  52.382   0.164  42.171   2.157   0.651  44.009
 Approx polarizability:  77.580  -0.188  57.070   6.701   0.966  65.489

                      1                      2                      3
                      A                      A                      A
 Frequencies --     86.1008               208.9083               280.2256
 Red. masses --      4.1105                 1.0373                 1.0798
 Frc consts  --      0.0180                 0.0267                 0.0500
 IR Inten    --      0.1082                 1.7696                49.0816

                      4                      5                      6
                      A                      A                      A
 Frequencies --    304.4979               333.2558               372.7104
 Red. masses --      3.4795                 2.4854                 3.1463
 Frc consts  --      0.1901                 0.1626                 0.2575
 IR Inten    --      9.5127                 6.7021                 2.7642

                      7                      8                      9
                      A                      A                      A
 Frequencies --    406.8695               432.6913               515.9127
 Red. masses --      1.8710                 2.8886                 1.4174
 Frc consts  --      0.1825                 0.3186                 0.2223
 IR Inten    --     41.5319                35.4161                 8.7278

                     10                     11                     12
                      A                      A                      A
 Frequencies --    645.9735               829.5593               839.1331
 Red. masses --      3.8365                 3.2645                 2.3497
 Frc consts  --      0.9432                 1.3236                 0.9748
 IR Inten    --      5.2039                95.4780                93.7236

                     13                     14                     15
                      A                      A                      A
 Frequencies --    896.1429               981.9540              1007.0221
 Red. masses --      1.8410                 1.6120                 1.7281
 Frc consts  --      0.8711                 0.9158                 1.0325
 IR Inten    --     14.3608                 4.3815                 3.7843

                     16                     17                     18
                      A                      A                      A
 Frequencies --   1035.7735              1203.4985              1216.2857
 Red. masses --      1.6677                 3.4466                 2.4167
 Frc consts  --      1.0541                 2.9413                 2.1064
 IR Inten    --     30.6867                67.7357                 7.9316

                     19                     20                     21
                      A                      A                      A
 Frequencies --   1280.8327              1371.2318              1397.9045
 Red. masses --      1.5559                 1.1949                 1.2529
 Frc consts  --      1.5039                 1.3237                 1.4425
 IR Inten    --     71.6110                61.3493                 6.1981

                     22                     23                     24
                      A                      A                      A
 Frequencies --   1439.3867              1487.1215              1494.1177
 Red. masses --      1.4149                 1.0461                 1.1607
 Frc consts  --      1.7271                 1.3630                 1.5267
 IR Inten    --     46.4792                 1.8852                 7.0682

                     25                     26                     27
                      A                      A                      A
 Frequencies --   1664.4528              1821.6780              2957.5193
 Red. masses --      1.0961                10.3171                 1.0875
 Frc consts  --      1.7891                20.1721                 5.6045
 IR Inten    --     22.2545               137.1469                63.4687

                     28                     29                     30
                      A                      A                      A
 Frequencies --   3044.1701              3118.1448              3135.4823
 Red. masses --      1.0348                 1.1008                 1.1033
 Frc consts  --      5.6501                 6.3058                 6.3907
 IR Inten    --      9.7195                13.8606                14.4887

                     31                     32                     33
                      A                      A                      A
 Frequencies --   3490.0263              3568.9163              3681.5124
 Red. masses --      1.0487                 1.0926                 1.0648
 Frc consts  --      7.5258                 8.1998                 8.5029
 IR Inten    --      0.8324                 2.7805                72.8694

 - Thermochemistry -
 -------------------
 Temperature   298.150 Kelvin.  Pressure   1.00000 Atm.
 Atom     1 has atomic number  6 and mass  12.00000

 Molecular mass:    89.04768 amu.
 Principal axes and moments of inertia in atomic units:
                           1         2         3
     Eigenvalues --   364.17532 624.86058 629.09467
           X            0.99938   0.02169   0.02771
           Y           -0.03112   0.91229   0.40836
           Z           -0.01642  -0.40897   0.91240
 This molecule is an asymmetric top.
 Rotational symmetry number  1.
 Rotational temperatures (Kelvin)      0.23784     0.13861     0.13768
 Rotational constants (GHZ):           4.95569     2.88823     2.86879
 Zero-point vibrational energy     278424.9 (Joules/Mol)
                                   66.54515 (Kcal/Mol)
 Warning -- explicit consideration of   9 degrees of freedom as
           vibrations may cause significant error
 Vibrational temperatures:    123.88   300.57   403.18   438.10   479.48
          (Kelvin)            536.25   585.39   622.55   742.28   929.41
                             1193.55  1207.32  1289.35  1412.81  1448.88
                             1490.25  1731.56  1749.96  1842.83  1972.89
                             2011.27  2070.95  2139.63  2149.70  2394.77
                             2620.99  4255.21  4379.88  4486.31  4511.25
                             5021.36  5134.87  5296.87

 Zero-point correction=                           0.106046 (Hartree/Particle)
 Thermal correction to Energy=                    0.113076
 Thermal correction to Enthalpy=                  0.114020
 Thermal correction to Gibbs Free Energy=         0.075711
 Sum of electronic and zero-point Energies=           -323.636959
 Sum of electronic and thermal Energies=              -323.629930
 Sum of electronic and thermal Enthalpies=            -323.628986
 Sum of electronic and thermal Free Energies=         -323.667295

                     E (Thermal)             CV                S
                      KCal/Mol        Cal/Mol-Kelvin    Cal/Mol-Kelvin
 Total                   70.956             25.160             80.628
 Electronic               0.000              0.000              0.000
 Translational            0.889              2.981             39.372
 Rotational               0.889              2.981             26.462
 Vibrational             69.179             19.198             14.794
 Vibration     1          0.601              1.959              3.747
 Vibration     2          0.642              1.827              2.053
 Vibration     3          0.680              1.710              1.532
 Vibration     4          0.695              1.665              1.392
 Vibration     5          0.715              1.609              1.244
 Vibration     6          0.744              1.528              1.069
 Vibration     7          0.772              1.455              0.938
 Vibration     8          0.794              1.399              0.850
 Vibration     9          0.871              1.215              0.620

 Optimization completed.
    -- Stationary point found.
 Normal termination of Gaussian 09 at Sun Aug 21 17:51:14 2022.

 -----------------------------------------------------------------
 #P Geom=AllCheck Guess=TCheck SCRF=Check CCSD(T,E4T,FrzG4)/GTBas1
 -----------------------------------------------------------------

 Structure from the checkpoint file:  "G4.Frag_1066.chk"
 ---------
 Frag_1066
 ---------
 Charge =  0 Multiplicity = 1

 SCF Done:  E(RHF) =  -321.834781186     A.U. after   14 cycles
 E2 =    -0.9064651093D+00 EUMP2 =    -0.32274124629573D+03
 CCSD(T)
 CCSD(T)= -0.32281047841D+03
 38\MP4SDTQ=-322.8131919\MP4SDQ=-322.7838477\CCSD=-322.7825862\CCSD(T)=
 Normal termination of Gaussian 09 at Sun Aug 21 17:56:41 2022.

 ---------------------------------------------------------
 #P Geom=AllCheck Guess=TCheck SCRF=Check MP4=FrzG4/GTBas2
 ---------------------------------------------------------

 Structure from the checkpoint file:  "G4.Frag_1066.chk"
 ---------
 Frag_1066
 ---------
 Charge =  0 Multiplicity = 1

 SCF Done:  E(RHF) =  -321.846137920     A.U. after   14 cycles
 E2 =    -0.9216019440D+00 EUMP2 =    -0.32276773986357D+03
 Normal termination of Gaussian 09 at Sun Aug 21 18:01:57 2022.

 ---------------------------------------------------------
 #P Geom=AllCheck Guess=TCheck SCRF=Check MP4=FrzG4/GTBas3
 ---------------------------------------------------------

 Structure from the checkpoint file:  "G4.Frag_1066.chk"
 ---------
 Frag_1066
 ---------
 Charge =  0 Multiplicity = 1

 SCF Done:  E(RHF) =  -321.876521680     A.U. after   13 cycles
 E2 =    -0.1114563978D+01 EUMP2 =    -0.32299108565844D+03
 Normal termination of Gaussian 09 at Sun Aug 21 20:17:15 2022.

 -----------------------------------------------------------
 #P Geom=AllCheck Guess=TCheck SCRF=Check MP2=Full/GTLargeXP
 -----------------------------------------------------------

 Structure from the checkpoint file:  "G4.Frag_1066.chk"
 ---------
 Frag_1066
 ---------
 Charge =  0 Multiplicity = 1

 SCF Done:  E(RHF) =  -321.964536837     A.U. after   13 cycles
 E2 =    -0.1457129163D+01 EUMP2 =    -0.32342166599952D+03
 Normal termination of Gaussian 09 at Sun Aug 21 20:22:38 2022.
 SCF Done:  E(RHF) =  -321.990099918     A.U. after    9 cycles
 Normal termination of Gaussian 09 at Sun Aug 21 20:28:16 2022.

                         Standard orientation:
 ---------------------------------------------------------------------
 Center     Atomic      Atomic             Coordinates (Angstroms)
 Number     Number       Type             X           Y           Z
 ---------------------------------------------------------------------
      1          6           0       -1.209435   -1.220922   -0.116332
      2          6           0       -0.353584    0.042892    0.037106
      3          7           0       -0.997351    1.143167   -0.663785
      4          8           0       -0.111483    0.296072    1.402663
      5          6           0        0.990978   -0.168998   -0.668559
      6          8           0        2.042629   -0.106340   -0.081713
      7          1           0       -2.161499   -1.065641    0.401118
      8          1           0       -1.412217   -1.439903   -1.167994
      9          1           0       -0.710369   -2.075336    0.346504
     10          1           0       -0.561324    2.016231   -0.379804
     11          1           0       -1.972217    1.201543   -0.383728
     12          1           0        0.853906    0.288224    1.506301
     13          1           0        0.928253   -0.362982   -1.756795
 ---------------------------------------------------------------------

 SCF Done:  E(RHF) =  -321.995604553     A.U. after    8 cycles

 The electronic state is 1-A.
 Alpha  occ. eigenvalues --  -20.57971 -20.56008 -15.56223 -11.34502 -11.33458
 Alpha  occ. eigenvalues --  -11.23586  -1.42781  -1.37397  -1.19854  -1.01833
 Alpha  occ. eigenvalues --   -0.90744  -0.78903  -0.73763  -0.69445  -0.67516
 Alpha  occ. eigenvalues --   -0.64965  -0.58379  -0.57190  -0.55069  -0.54986
 Alpha  occ. eigenvalues --   -0.53652  -0.48367  -0.44672  -0.42324
 Alpha virt. eigenvalues --    0.03332   0.04400   0.04541   0.05534   0.06826
 Alpha virt. eigenvalues --    0.07014   0.07449   0.07617   0.08806   0.09986
 Alpha virt. eigenvalues --    0.11049   0.12202   0.12798   0.13431   0.14216

 Mulliken charges:
               1
     1  C   -0.549317
     2  C    0.459284
     3  N   -0.718468
     4  O   -0.620740
     5  C    0.194052
     6  O   -0.533564
     7  H    0.178223
     8  H    0.187625
     9  H    0.190300
    10  H    0.299942
    11  H    0.294798
    12  H    0.404015
    13  H    0.213850
 Sum of Mulliken charges =  -0.00000

 Dipole moment (field-independent basis, Debye):
    X=             -1.8439    Y=             -0.2060    Z=             -1.1797  Tot=              2.1986
 Quadrupole moment (field-independent basis, Debye-Ang):
   XX=            -39.5478   YY=            -33.3949   ZZ=            -39.4238
   XY=              0.3289   XZ=              0.0833   YZ=              1.1344

 Normal termination of Gaussian 09 at Sun Aug 21 23:01:20 2022.
