 Gaussian 09, Revision E.01,
 Gaussian 09:  ES64L-G09RevE.01 30-Nov-2015

 -----
 #P G4
 -----

 --------
 Frag_854
 --------
 Symbolic Z-matrix:
 Charge =  0 Multiplicity = 1

 SCF Done:  E(RB3LYP) =  -324.944586097     A.U. after   13 cycles
 SCF Done:  E(RB3LYP) =  -324.952332788     A.U. after   11 cycles
 SCF Done:  E(RB3LYP) =  -324.953405248     A.U. after   11 cycles
 SCF Done:  E(RB3LYP) =  -324.953710465     A.U. after   10 cycles
 SCF Done:  E(RB3LYP) =  -324.953847134     A.U. after   10 cycles
 SCF Done:  E(RB3LYP) =  -324.953908002     A.U. after   10 cycles
 SCF Done:  E(RB3LYP) =  -324.953976361     A.U. after   10 cycles
 SCF Done:  E(RB3LYP) =  -324.954017344     A.U. after   10 cycles
 SCF Done:  E(RB3LYP) =  -324.954024487     A.U. after    9 cycles
 SCF Done:  E(RB3LYP) =  -324.954030216     A.U. after    9 cycles
 SCF Done:  E(RB3LYP) =  -324.954033043     A.U. after    8 cycles
 SCF Done:  E(RB3LYP) =  -324.954033366     A.U. after    7 cycles
 Optimization completed.
    -- Stationary point found.
 Normal termination of Gaussian 09 at Fri Aug 26 08:06:28 2022.

 ----------------------------------------------------------
 #P Geom=AllCheck Guess=TCheck SCRF=Check B3LYP/GTBas3 Freq
 ----------------------------------------------------------

 Structure from the checkpoint file:  "G4.Frag_854.chk"
 --------
 Frag_854
 --------
 Charge =  0 Multiplicity = 1

 SCF Done:  E(RB3LYP) =  -324.954033366     A.U. after    1 cycles

  Exact polarizability:  54.223   0.964  46.005  -0.422  -1.406  47.099
 Approx polarizability:  65.260  -0.408  68.181  -1.366  -2.047  68.446

                      1                      2                      3
                      A                      A                      A
 Frequencies --    121.7941               187.0891               209.2643
 Red. masses --      1.9109                 1.2806                 1.1662
 Frc consts  --      0.0167                 0.0264                 0.0301
 IR Inten    --      3.8505                 1.4474                60.5314

                      4                      5                      6
                      A                      A                      A
 Frequencies --    239.9811               254.3063               350.1340
 Red. masses --      1.0861                 2.1498                 1.3220
 Frc consts  --      0.0369                 0.0819                 0.0955
 IR Inten    --      0.3298                 1.3358               121.0184

                      7                      8                      9
                      A                      A                      A
 Frequencies --    370.7432               397.5148               511.9163
 Red. masses --      3.5463                 1.9915                 2.5869
 Frc consts  --      0.2872                 0.1854                 0.3994
 IR Inten    --      4.7578                18.8627                 8.3849

                     10                     11                     12
                      A                      A                      A
 Frequencies --    532.4745               597.0737               707.1900
 Red. masses --      3.5845                 4.0236                 1.7636
 Frc consts  --      0.5988                 0.8451                 0.5197
 IR Inten    --     12.7159                14.4115                70.5176

                     13                     14                     15
                      A                      A                      A
 Frequencies --    813.6736               904.7746               962.3652
 Red. masses --      2.6885                 2.0475                 1.9412
 Frc consts  --      1.0487                 0.9875                 1.0593
 IR Inten    --     27.8554                39.2364                53.7141

                     16                     17                     18
                      A                      A                      A
 Frequencies --   1066.3619              1080.4141              1093.0350
 Red. masses --      2.0178                 1.5278                 2.9744
 Frc consts  --      1.3519                 1.0507                 2.0937
 IR Inten    --     73.8800                82.2658                57.5382

                     19                     20                     21
                      A                      A                      A
 Frequencies --   1153.4397              1197.1210              1215.3604
 Red. masses --      1.3862                 1.5559                 3.8054
 Frc consts  --      1.0866                 1.3137                 3.3118
 IR Inten    --     17.5957                 7.1054               144.4960

                     22                     23                     24
                      A                      A                      A
 Frequencies --   1350.9889              1358.1659              1400.0370
 Red. masses --      1.5735                 1.5425                 1.3174
 Frc consts  --      1.6921                 1.6764                 1.5215
 IR Inten    --      2.0198               161.7943                21.1149

                     25                     26                     27
                      A                      A                      A
 Frequencies --   1450.6397              1472.0012              1485.8377
 Red. masses --      1.1728                 1.1673                 1.0611
 Frc consts  --      1.4542                 1.4902                 1.3802
 IR Inten    --      7.5721                20.7541                 5.7393

                     28                     29                     30
                      A                      A                      A
 Frequencies --   1494.3444              1504.8039              1526.1825
 Red. masses --      1.0788                 1.1300                 1.1174
 Frc consts  --      1.4194                 1.5077                 1.5335
 IR Inten    --      3.1724                 4.2192                26.4432

                     31                     32                     33
                      A                      A                      A
 Frequencies --   3011.4395              3030.1390              3086.7272
 Red. masses --      1.0458                 1.0429                 1.0890
 Frc consts  --      5.5877                 5.6419                 6.1131
 IR Inten    --     58.2819                16.9954                31.5535

                     34                     35                     36
                      A                      A                      A
 Frequencies --   3106.1302              3126.4865              3146.5690
 Red. masses --      1.0932                 1.1018                 1.1022
 Frc consts  --      6.2140                 6.3452                 6.4294
 IR Inten    --     21.7628                15.7364                12.4088

                     37                     38                     39
                      A                      A                      A
 Frequencies --   3537.2212              3825.2574              3834.3576
 Red. masses --      1.0741                 1.0650                 1.0658
 Frc consts  --      7.9181                 9.1819                 9.2323
 IR Inten    --      0.2797                29.1407                22.5294

 - Thermochemistry -
 -------------------
 Temperature   298.150 Kelvin.  Pressure   1.00000 Atm.
 Atom     1 has atomic number  6 and mass  12.00000

 Molecular mass:    91.06333 amu.
 Principal axes and moments of inertia in atomic units:
                           1         2         3
     Eigenvalues --   367.82066 641.19910 655.99563
           X            0.99884   0.04791  -0.00507
           Y           -0.04736   0.95703  -0.28609
           Z           -0.00885   0.28600   0.95819
 This molecule is an asymmetric top.
 Rotational symmetry number  1.
 Rotational temperatures (Kelvin)      0.23548     0.13508     0.13203
 Rotational constants (GHZ):           4.90658     2.81463     2.75115
 Zero-point vibrational energy     339221.2 (Joules/Mol)
                                   81.07581 (Kcal/Mol)
 Warning -- explicit consideration of  11 degrees of freedom as
           vibrations may cause significant error
 Vibrational temperatures:    175.23   269.18   301.08   345.28   365.89
          (Kelvin)            503.76   533.42   571.93   736.53   766.11
                              859.05  1017.49  1170.69  1301.77  1384.63
                             1534.26  1554.47  1572.63  1659.54  1722.39
                             1748.63  1943.77  1954.10  2014.34  2087.14
                             2117.88  2137.79  2150.03  2165.07  2195.83
                             4332.78  4359.69  4441.11  4469.02  4498.31
                             4527.21  5089.27  5503.69  5516.78

 Zero-point correction=                           0.129203 (Hartree/Particle)
 Thermal correction to Energy=                    0.136898
 Thermal correction to Enthalpy=                  0.137842
 Thermal correction to Gibbs Free Energy=         0.098430
 Sum of electronic and zero-point Energies=           -324.824831
 Sum of electronic and thermal Energies=              -324.817135
 Sum of electronic and thermal Enthalpies=            -324.816191
 Sum of electronic and thermal Free Energies=         -324.855603

                     E (Thermal)             CV                S
                      KCal/Mol        Cal/Mol-Kelvin    Cal/Mol-Kelvin
 Total                   85.905             27.846             82.950
 Electronic               0.000              0.000              0.000
 Translational            0.889              2.981             39.439
 Rotational               0.889              2.981             26.539
 Vibrational             84.127             21.885             16.971
 Vibration     1          0.609              1.931              3.072
 Vibration     2          0.632              1.858              2.256
 Vibration     3          0.642              1.827              2.050
 Vibration     4          0.657              1.779              1.803
 Vibration     5          0.665              1.756              1.701
 Vibration     6          0.727              1.575              1.166
 Vibration     7          0.743              1.532              1.077
 Vibration     8          0.764              1.475              0.972
 Vibration     9          0.867              1.224              0.629
 Vibration    10          0.887              1.178              0.582
 Vibration    11          0.955              1.038              0.455

 Optimization completed.
    -- Stationary point found.
 Normal termination of Gaussian 09 at Fri Aug 26 08:07:03 2022.

 -----------------------------------------------------------------
 #P Geom=AllCheck Guess=TCheck SCRF=Check CCSD(T,E4T,FrzG4)/GTBas1
 -----------------------------------------------------------------

 Structure from the checkpoint file:  "G4.Frag_854.chk"
 --------
 Frag_854
 --------
 Charge =  0 Multiplicity = 1

 SCF Done:  E(RHF) =  -322.996488663     A.U. after   12 cycles
 E2 =    -0.9169256311D+00 EUMP2 =    -0.32391341429365D+03
 CCSD(T)
 CCSD(T)= -0.32398906417D+03
 637529\CCSD(T)=-323.9890642\RMSD=3.983e-09\PG=C01 [X(C3H9N1O2)]\\@
 Normal termination of Gaussian 09 at Fri Aug 26 08:09:17 2022.

 ---------------------------------------------------------
 #P Geom=AllCheck Guess=TCheck SCRF=Check MP4=FrzG4/GTBas2
 ---------------------------------------------------------

 Structure from the checkpoint file:  "G4.Frag_854.chk"
 --------
 Frag_854
 --------
 Charge =  0 Multiplicity = 1

 SCF Done:  E(RHF) =  -323.006936638     A.U. after   11 cycles
 E2 =    -0.9330070984D+00 EUMP2 =    -0.32393994373591D+03
 Normal termination of Gaussian 09 at Fri Aug 26 08:10:08 2022.

 ---------------------------------------------------------
 #P Geom=AllCheck Guess=TCheck SCRF=Check MP4=FrzG4/GTBas3
 ---------------------------------------------------------

 Structure from the checkpoint file:  "G4.Frag_854.chk"
 --------
 Frag_854
 --------
 Charge =  0 Multiplicity = 1

 SCF Done:  E(RHF) =  -323.043874847     A.U. after   11 cycles
 E2 =    -0.1140593995D+01 EUMP2 =    -0.32418446884224D+03
 Normal termination of Gaussian 09 at Fri Aug 26 08:14:25 2022.

 -----------------------------------------------------------
 #P Geom=AllCheck Guess=TCheck SCRF=Check MP2=Full/GTLargeXP
 -----------------------------------------------------------

 Structure from the checkpoint file:  "G4.Frag_854.chk"
 --------
 Frag_854
 --------
 Charge =  0 Multiplicity = 1

 SCF Done:  E(RHF) =  -323.131478479     A.U. after   11 cycles
 E2 =    -0.1487280205D+01 EUMP2 =    -0.32461875868426D+03
 Normal termination of Gaussian 09 at Fri Aug 26 08:16:37 2022.
 SCF Done:  E(RHF) =  -323.157349782     A.U. after    8 cycles
 Normal termination of Gaussian 09 at Fri Aug 26 08:18:37 2022.

                         Standard orientation:
 ---------------------------------------------------------------------
 Center     Atomic      Atomic             Coordinates (Angstroms)
 Number     Number       Type             X           Y           Z
 ---------------------------------------------------------------------
      1          6           0        2.051624   -0.138360    0.016473
      2          7           0        0.768005   -0.737315   -0.352791
      3          6           0       -0.404242    0.047251   -0.006701
      4          6           0       -1.662307   -0.815371   -0.169141
      5          8           0       -0.450325    1.176556   -0.842896
      6          8           0       -0.360887    0.630583    1.284681
      7          1           0        2.860225   -0.758943   -0.379509
      8          1           0        2.123696    0.852263   -0.438582
      9          1           0        2.190626   -0.015767    1.099031
     10          1           0        0.687745   -1.674647    0.024597
     11          1           0       -1.673040   -1.651890    0.540541
     12          1           0       -1.713440   -1.229704   -1.179285
     13          1           0       -2.540583   -0.192385    0.007855
     14          1           0       -0.156288    0.869529   -1.707271
     15          1           0       -0.575734   -0.055482    1.924096
 ---------------------------------------------------------------------

 SCF Done:  E(RHF) =  -323.163184227     A.U. after    8 cycles

 The electronic state is 1-A.
 Alpha  occ. eigenvalues --  -20.55848 -20.55398 -15.55217 -11.36809 -11.24247
 Alpha  occ. eigenvalues --  -11.22563  -1.41831  -1.33149  -1.19659  -1.00537
 Alpha  occ. eigenvalues --   -0.90522  -0.83355  -0.72153  -0.67552  -0.66235
 Alpha  occ. eigenvalues --   -0.61434  -0.60295  -0.58148  -0.55235  -0.54558
 Alpha  occ. eigenvalues --   -0.52992  -0.50893  -0.49362  -0.44563  -0.39436
 Alpha virt. eigenvalues --    0.03212   0.04023   0.04782   0.05510   0.06603
 Alpha virt. eigenvalues --    0.06900   0.07070   0.08356   0.08659   0.09603
 Alpha virt. eigenvalues --    0.10713   0.11397   0.14106   0.14748   0.15528

 Mulliken charges:
               1
     1  C   -0.465204
     2  N   -0.455129
     3  C    0.557666
     4  C   -0.573013
     5  O   -0.597244
     6  O   -0.571436
     7  H    0.176171
     8  H    0.186829
     9  H    0.161739
    10  H    0.280597
    11  H    0.160402
    12  H    0.189091
    13  H    0.203006
    14  H    0.382904
    15  H    0.363620
 Sum of Mulliken charges =  -0.00000

 Dipole moment (field-independent basis, Debye):
    X=              0.1954    Y=             -3.2637    Z=              0.2244  Tot=              3.2772
 Quadrupole moment (field-independent basis, Debye-Ang):
   XX=            -36.1283   YY=            -40.3772   ZZ=            -34.4579
   XY=              1.9863   XZ=             -0.5322   YZ=             -3.7372

 Normal termination of Gaussian 09 at Fri Aug 26 08:26:36 2022.
