 Gaussian 09, Revision E.01,
 Gaussian 09:  ES64L-G09RevE.01 30-Nov-2015

 -----
 #P G4
 -----

 ---------
 Frag_1053
 ---------
 Symbolic Z-matrix:
 Charge =  0 Multiplicity = 1

 SCF Done:  E(RB3LYP) =  -305.496629987     A.U. after   12 cycles
 SCF Done:  E(RB3LYP) =  -305.500633480     A.U. after   11 cycles
 SCF Done:  E(RB3LYP) =  -305.501047362     A.U. after   10 cycles
 SCF Done:  E(RB3LYP) =  -305.501215115     A.U. after   10 cycles
 SCF Done:  E(RB3LYP) =  -305.501316671     A.U. after   10 cycles
 SCF Done:  E(RB3LYP) =  -305.501368210     A.U. after   10 cycles
 SCF Done:  E(RB3LYP) =  -305.501397308     A.U. after    9 cycles
 SCF Done:  E(RB3LYP) =  -305.501402902     A.U. after    9 cycles
 SCF Done:  E(RB3LYP) =  -305.501405685     A.U. after    8 cycles
 SCF Done:  E(RB3LYP) =  -305.501407751     A.U. after    8 cycles
 SCF Done:  E(RB3LYP) =  -305.501408347     A.U. after    7 cycles
 SCF Done:  E(RB3LYP) =  -305.501408638     A.U. after    7 cycles
 SCF Done:  E(RB3LYP) =  -305.501408889     A.U. after    8 cycles
 Optimization completed.
    -- Stationary point found.
 Normal termination of Gaussian 09 at Thu Aug 25 02:11:48 2022.

 ----------------------------------------------------------
 #P Geom=AllCheck Guess=TCheck SCRF=Check B3LYP/GTBas3 Freq
 ----------------------------------------------------------

 Structure from the checkpoint file:  "G4.Frag_1053.chk"
 ---------
 Frag_1053
 ---------
 Charge =  0 Multiplicity = 1

 SCF Done:  E(RB3LYP) =  -305.501408889     A.U. after    1 cycles

  Exact polarizability:  41.596  -0.494  35.361  -0.479  -0.221  29.938
 Approx polarizability:  51.519  -0.598  49.428  -0.436   0.084  42.670

                      1                      2                      3
                      A                      A                      A
 Frequencies --    112.9003               123.7252               175.6405
 Red. masses --      1.4351                 1.4854                 1.1934
 Frc consts  --      0.0108                 0.0134                 0.0217
 IR Inten    --     54.0195                31.6525                53.6762

                      4                      5                      6
                      A                      A                      A
 Frequencies --    186.6235               305.6839               477.7410
 Red. masses --      1.1917                 3.3406                 4.2136
 Frc consts  --      0.0245                 0.1839                 0.5666
 IR Inten    --     93.2414                 7.6222                 5.6422

                      7                      8                      9
                      A                      A                      A
 Frequencies --    539.6159               666.2410               983.7831
 Red. masses --      4.7175                 8.7044                 3.0089
 Frc consts  --      0.8093                 2.2764                 1.7157
 IR Inten    --      2.4544                 6.1406                89.0257

                     10                     11                     12
                      A                      A                      A
 Frequencies --   1049.4667              1118.0278              1128.4621
 Red. masses --      3.0457                 5.2470                 3.3652
 Frc consts  --      1.9764                 3.8642                 2.5248
 IR Inten    --    104.9624               153.1883               161.7138

                     13                     14                     15
                      A                      A                      A
 Frequencies --   1181.2243              1227.6872              1274.9306
 Red. masses --      1.2786                 1.5689                 1.3453
 Frc consts  --      1.0511                 1.3932                 1.2884
 IR Inten    --      2.0197                37.4016                78.4489

                     16                     17                     18
                      A                      A                      A
 Frequencies --   1300.1278              1417.7112              1443.7776
 Red. masses --      1.3405                 1.3183                 1.2460
 Frc consts  --      1.3351                 1.5611                 1.5303
 IR Inten    --    137.4703                73.9459                57.0357

                     19                     20                     21
                      A                      A                      A
 Frequencies --   1484.6102              1497.4019              1515.2484
 Red. masses --      1.0551                 1.2271                 1.0958
 Frc consts  --      1.3702                 1.6210                 1.4824
 IR Inten    --      6.1082                49.8734                 4.1236

                     22                     23                     24
                      A                      A                      A
 Frequencies --   2866.2414              2994.9692              3075.2421
 Red. masses --      1.0789                 1.0447                 1.0903
 Frc consts  --      5.2222                 5.5212                 6.0754
 IR Inten    --    119.3153                52.8509                35.1452

                     25                     26                     27
                      A                      A                      A
 Frequencies --   3132.5259              3815.7514              3823.2118
 Red. masses --      1.1017                 1.0652                 1.0654
 Frc consts  --      6.3695                 9.1376                 9.1749
 IR Inten    --     22.2611                32.6352                40.5701

 - Thermochemistry -
 -------------------
 Temperature   298.150 Kelvin.  Pressure   1.00000 Atm.
 Atom     1 has atomic number  6 and mass  12.00000

 Molecular mass:    78.03169 amu.
 Principal axes and moments of inertia in atomic units:
                           1         2         3
     Eigenvalues --   195.03982 443.44134 589.82858
           X            0.99999   0.00328   0.00093
           Y           -0.00328   0.99999   0.00001
           Z           -0.00093  -0.00002   1.00000
 This molecule is an asymmetric top.
 Rotational symmetry number  1.
 Rotational temperatures (Kelvin)      0.44408     0.19532     0.14685
 Rotational constants (GHZ):           9.25319     4.06985     3.05977
 Zero-point vibrational energy     232784.8 (Joules/Mol)
                                   55.63689 (Kcal/Mol)
 Warning -- explicit consideration of   7 degrees of freedom as
           vibrations may cause significant error
 Vibrational temperatures:    162.44   178.01   252.71   268.51   439.81
          (Kelvin)            687.36   776.39   958.57  1415.44  1509.95
                             1608.59  1623.60  1699.52  1766.37  1834.34
                             1870.59  2039.77  2077.27  2136.02  2154.42
                             2180.10  4123.88  4309.09  4424.58  4507.00
                             5490.01  5500.74

 Zero-point correction=                           0.088663 (Hartree/Particle)
 Thermal correction to Energy=                    0.095255
 Thermal correction to Enthalpy=                  0.096199
 Thermal correction to Gibbs Free Energy=         0.058748
 Sum of electronic and zero-point Energies=           -305.412746
 Sum of electronic and thermal Energies=              -305.406154
 Sum of electronic and thermal Enthalpies=            -305.405209
 Sum of electronic and thermal Free Energies=         -305.442661

                     E (Thermal)             CV                S
                      KCal/Mol        Cal/Mol-Kelvin    Cal/Mol-Kelvin
 Total                   59.774             20.954             78.824
 Electronic               0.000              0.000              0.000
 Translational            0.889              2.981             38.979
 Rotational               0.889              2.981             25.437
 Vibrational             57.996             14.992             14.408
 Vibration     1          0.607              1.939              3.218
 Vibration     2          0.610              1.929              3.041
 Vibration     3          0.628              1.872              2.374
 Vibration     4          0.632              1.858              2.261
 Vibration     5          0.696              1.663              1.386
 Vibration     6          0.834              1.299              0.716
 Vibration     7          0.895              1.162              0.566

 Optimization completed.
    -- Stationary point found.
 Normal termination of Gaussian 09 at Thu Aug 25 02:13:02 2022.

 -----------------------------------------------------------------
 #P Geom=AllCheck Guess=TCheck SCRF=Check CCSD(T,E4T,FrzG4)/GTBas1
 -----------------------------------------------------------------

 Structure from the checkpoint file:  "G4.Frag_1053.chk"
 ---------
 Frag_1053
 ---------
 Charge =  0 Multiplicity = 1

 SCF Done:  E(RHF) =  -303.791446975     A.U. after   11 cycles
 E2 =    -0.7927028655D+00 EUMP2 =    -0.30458414984080D+03
 CCSD(T)
 CCSD(T)= -0.30463844172D+03
 MP4SDQ=-304.6187543\CCSD=-304.618581\CCSD(T)=-304.6384417\RMSD=9.024e-
 Normal termination of Gaussian 09 at Thu Aug 25 02:14:49 2022.

 ---------------------------------------------------------
 #P Geom=AllCheck Guess=TCheck SCRF=Check MP4=FrzG4/GTBas2
 ---------------------------------------------------------

 Structure from the checkpoint file:  "G4.Frag_1053.chk"
 ---------
 Frag_1053
 ---------
 Charge =  0 Multiplicity = 1

 SCF Done:  E(RHF) =  -303.802826171     A.U. after   11 cycles
 E2 =    -0.8079102233D+00 EUMP2 =    -0.30461073639435D+03
 Normal termination of Gaussian 09 at Thu Aug 25 02:17:12 2022.

 ---------------------------------------------------------
 #P Geom=AllCheck Guess=TCheck SCRF=Check MP4=FrzG4/GTBas3
 ---------------------------------------------------------

 Structure from the checkpoint file:  "G4.Frag_1053.chk"
 ---------
 Frag_1053
 ---------
 Charge =  0 Multiplicity = 1

 SCF Done:  E(RHF) =  -303.832984200     A.U. after   11 cycles
 E2 =    -0.9908270152D+00 EUMP2 =    -0.30482381121469D+03
 Normal termination of Gaussian 09 at Thu Aug 25 02:57:24 2022.

 -----------------------------------------------------------
 #P Geom=AllCheck Guess=TCheck SCRF=Check MP2=Full/GTLargeXP
 -----------------------------------------------------------

 Structure from the checkpoint file:  "G4.Frag_1053.chk"
 ---------
 Frag_1053
 ---------
 Charge =  0 Multiplicity = 1

 SCF Done:  E(RHF) =  -303.922738335     A.U. after   11 cycles
 E2 =    -0.1290138553D+01 EUMP2 =    -0.30521287688789D+03
 Normal termination of Gaussian 09 at Thu Aug 25 02:59:43 2022.
 SCF Done:  E(RHF) =  -303.947960848     A.U. after    8 cycles
 Normal termination of Gaussian 09 at Thu Aug 25 03:02:24 2022.

                         Standard orientation:
 ---------------------------------------------------------------------
 Center     Atomic      Atomic             Coordinates (Angstroms)
 Number     Number       Type             X           Y           Z
 ---------------------------------------------------------------------
      1          6           0        1.894273   -0.019955    0.077817
      2          8           0        0.654280   -0.581999   -0.320261
      3          6           0       -0.448714   -0.005936    0.292109
      4          8           0       -1.581354   -0.732931   -0.058240
      5          8           0       -0.600886    1.296208   -0.174031
      6          1           0        1.979729    1.024759   -0.239419
      7          1           0        2.676164   -0.612015   -0.401294
      8          1           0        2.024935   -0.071443    1.169273
      9          1           0       -0.301574   -0.007222    1.394156
     10          1           0       -1.392191   -1.662709    0.111953
     11          1           0       -1.436737    1.633757    0.166026
 ---------------------------------------------------------------------

 SCF Done:  E(RHF) =  -303.953639697     A.U. after    8 cycles

 The electronic state is 1-A.
 Alpha  occ. eigenvalues --  -20.57191 -20.57009 -20.56891 -11.39318 -11.27738
 Alpha  occ. eigenvalues --   -1.46210  -1.35814  -1.34908  -0.96074  -0.86745
 Alpha  occ. eigenvalues --   -0.74878  -0.74568  -0.69376  -0.62374  -0.61337
 Alpha  occ. eigenvalues --   -0.57590  -0.54911  -0.51612  -0.51025  -0.47368
 Alpha  occ. eigenvalues --   -0.44863
 Alpha virt. eigenvalues --    0.03994   0.04131   0.05120   0.05738   0.07192
 Alpha virt. eigenvalues --    0.07702   0.08294   0.11673   0.12582   0.14464
 Alpha virt. eigenvalues --    0.14576   0.15589   0.16093   0.16689   0.17354

 Mulliken charges:
               1
     1  C   -0.360444
     2  O   -0.343857
     3  C    0.442378
     4  O   -0.569040
     5  O   -0.565967
     6  H    0.194945
     7  H    0.183831
     8  H    0.148656
     9  H    0.115766
    10  H    0.377800
    11  H    0.375933
 Sum of Mulliken charges =  -0.00000

 Dipole moment (field-independent basis, Debye):
    X=              0.6447    Y=             -0.3347    Z=              2.4495  Tot=              2.5549
 Quadrupole moment (field-independent basis, Debye-Ang):
   XX=            -27.6909   YY=            -27.5689   ZZ=            -30.9411
   XY=             -0.8763   XZ=             -1.4727   YZ=              0.1154

 Normal termination of Gaussian 09 at Thu Aug 25 04:20:42 2022.
