 Gaussian 09, Revision E.01,
 Gaussian 09:  ES64L-G09RevE.01 30-Nov-2015

 -----
 #P G4
 -----

 --------
 Frag_985
 --------
 Symbolic Z-matrix:
 Charge =  0 Multiplicity = 1

 SCF Done:  E(RB3LYP) =  -205.257915117     A.U. after   15 cycles
 SCF Done:  E(RB3LYP) =  -205.288119087     A.U. after   13 cycles
 SCF Done:  E(RB3LYP) =  -205.294249168     A.U. after   13 cycles
 SCF Done:  E(RB3LYP) =  -205.294513896     A.U. after   11 cycles
 SCF Done:  E(RB3LYP) =  -205.294535749     A.U. after    9 cycles
 Optimization completed.
    -- Stationary point found.
 Normal termination of Gaussian 09 at Fri Aug 26 11:14:59 2022.

 ----------------------------------------------------------
 #P Geom=AllCheck Guess=TCheck SCRF=Check B3LYP/GTBas3 Freq
 ----------------------------------------------------------

 Structure from the checkpoint file:  "G4.Frag_985.chk"
 --------
 Frag_985
 --------
 Charge =  0 Multiplicity = 1

 SCF Done:  E(RB3LYP) =  -205.294535749     A.U. after    1 cycles

  Exact polarizability:  37.981  -3.649  46.380  -0.000  -0.000  21.697
 Approx polarizability:  50.813  -8.294  97.327  -0.000  -0.000  31.567

                      1                      2                      3
                      A                      A                      A
 Frequencies --    108.9867               487.8662               551.7998
 Red. masses --      1.0711                 2.7830                 2.6778
 Frc consts  --      0.0075                 0.3903                 0.4804
 IR Inten    --      0.0414                 0.8017                 4.8420

                      4                      5                      6
                      A                      A                      A
 Frequencies --    607.4703               660.4635               895.7156
 Red. masses --      3.5286                 1.0901                 4.3708
 Frc consts  --      0.7672                 0.2802                 2.0661
 IR Inten    --     30.3658               110.4271                 6.2050

                      7                      8                      9
                      A                      A                      A
 Frequencies --    904.1955              1109.4471              1149.6472
 Red. masses --      1.3442                 1.3944                 1.4118
 Frc consts  --      0.6475                 1.0113                 1.0994
 IR Inten    --     28.9464                18.3010                 0.9179

                     10                     11                     12
                      A                      A                      A
 Frequencies --   1257.8764              1356.5510              1424.8261
 Red. masses --      3.1208                 1.4294                 1.1876
 Frc consts  --      2.9094                 1.5498                 1.4206
 IR Inten    --     27.7298               133.9907                 1.8257

                     13                     14                     15
                      A                      A                      A
 Frequencies --   1474.3892              1486.6997              1541.8289
 Red. masses --      1.0621                 1.0426                 2.0232
 Frc consts  --      1.3603                 1.3577                 2.8338
 IR Inten    --     12.5347                 9.9406               151.7205

                     16                     17                     18
                      A                      A                      A
 Frequencies --   1644.9353              3071.4317              3152.0561
 Red. masses --      2.9431                 1.0326                 1.1048
 Frc consts  --      4.6920                 5.7396                 6.4671
 IR Inten    --     62.1970                 7.6289                 5.5787

                     19                     20                     21
                      A                      A                      A
 Frequencies --   3201.9092              3400.4937              3450.8584
 Red. masses --      1.1047                 1.0711                 1.0745
 Frc consts  --      6.6726                 7.2974                 7.5391
 IR Inten    --      0.7643                 2.6968                 0.8242

 - Thermochemistry -
 -------------------
 Temperature   298.150 Kelvin.  Pressure   1.00000 Atm.
 Atom     1 has atomic number  6 and mass  12.00000

 Molecular mass:    59.04835 amu.
 Principal axes and moments of inertia in atomic units:
                           1         2         3
     Eigenvalues --   158.31622 177.34489 324.18525
           X            0.99065  -0.13643  -0.00000
           Y            0.13643   0.99065   0.00000
           Z            0.00000  -0.00000   1.00000
 This molecule is an asymmetric top.
 Rotational symmetry number  1.
 Rotational temperatures (Kelvin)      0.54709     0.48839     0.26717
 Rotational constants (GHZ):          11.39960    10.17645     5.56701
 Zero-point vibrational energy     197021.6 (Joules/Mol)
                                   47.08930 (Kcal/Mol)
 Warning -- explicit consideration of   4 degrees of freedom as
           vibrations may cause significant error
 Vibrational temperatures:    156.81   701.93   793.92   874.01   950.26
          (Kelvin)           1288.73  1300.93  1596.24  1654.08  1809.80
                             1951.77  2050.00  2121.31  2139.03  2218.35
                             2366.69  4419.10  4535.10  4606.83  4892.55
                             4965.01

 Zero-point correction=                           0.075042 (Hartree/Particle)
 Thermal correction to Energy=                    0.079498
 Thermal correction to Enthalpy=                  0.080442
 Thermal correction to Gibbs Free Energy=         0.048283
 Sum of electronic and zero-point Energies=           -205.219494
 Sum of electronic and thermal Energies=              -205.215038
 Sum of electronic and thermal Enthalpies=            -205.214094
 Sum of electronic and thermal Free Energies=         -205.246253

                     E (Thermal)             CV                S
                      KCal/Mol        Cal/Mol-Kelvin    Cal/Mol-Kelvin
 Total                   49.886             14.412             67.684
 Electronic               0.000              0.000              0.000
 Translational            0.889              2.981             38.148
 Rotational               0.889              2.981             23.724
 Vibrational             48.108              8.450              5.812
 Vibration     1          0.606              1.942              3.287
 Vibration     2          0.844              1.277              0.689
 Vibration     3          0.907              1.136              0.540
 Vibration     4          0.966              1.016              0.437

 Optimization completed.
    -- Stationary point found.
 Normal termination of Gaussian 09 at Fri Aug 26 11:15:12 2022.

 -----------------------------------------------------------------
 #P Geom=AllCheck Guess=TCheck SCRF=Check CCSD(T,E4T,FrzG4)/GTBas1
 -----------------------------------------------------------------

 Structure from the checkpoint file:  "G4.Frag_985.chk"
 --------
 Frag_985
 --------
 Charge =  0 Multiplicity = 1

 SCF Done:  E(RHF) =  -203.997296289     A.U. after   14 cycles
 E2 =    -0.6438097651D+00 EUMP2 =    -0.20464110605367D+03
 CCSD(T)
 CCSD(T)= -0.20468925666D+03
 82\CCSD=-204.6630531\CCSD(T)=-204.6892567\RMSD=3.460e-09\PG=C01 [X(C1H
 Normal termination of Gaussian 09 at Fri Aug 26 11:15:33 2022.

 ---------------------------------------------------------
 #P Geom=AllCheck Guess=TCheck SCRF=Check MP4=FrzG4/GTBas2
 ---------------------------------------------------------

 Structure from the checkpoint file:  "G4.Frag_985.chk"
 --------
 Frag_985
 --------
 Charge =  0 Multiplicity = 1

 SCF Done:  E(RHF) =  -204.006290011     A.U. after   13 cycles
 E2 =    -0.6524763284D+00 EUMP2 =    -0.20465876633970D+03
 Normal termination of Gaussian 09 at Fri Aug 26 11:15:41 2022.

 ---------------------------------------------------------
 #P Geom=AllCheck Guess=TCheck SCRF=Check MP4=FrzG4/GTBas3
 ---------------------------------------------------------

 Structure from the checkpoint file:  "G4.Frag_985.chk"
 --------
 Frag_985
 --------
 Charge =  0 Multiplicity = 1

 SCF Done:  E(RHF) =  -204.026328626     A.U. after   13 cycles
 E2 =    -0.7720964056D+00 EUMP2 =    -0.20479842503211D+03
 Normal termination of Gaussian 09 at Fri Aug 26 11:16:09 2022.

 -----------------------------------------------------------
 #P Geom=AllCheck Guess=TCheck SCRF=Check MP2=Full/GTLargeXP
 -----------------------------------------------------------

 Structure from the checkpoint file:  "G4.Frag_985.chk"
 --------
 Frag_985
 --------
 Charge =  0 Multiplicity = 1

 SCF Done:  E(RHF) =  -204.081777235     A.U. after   12 cycles
 E2 =    -0.9964321565D+00 EUMP2 =    -0.20507820939159D+03
 Normal termination of Gaussian 09 at Fri Aug 26 11:16:26 2022.
 SCF Done:  E(RHF) =  -204.097988444     A.U. after   10 cycles
 Normal termination of Gaussian 09 at Fri Aug 26 11:16:54 2022.

                         Standard orientation:
 ---------------------------------------------------------------------
 Center     Atomic      Atomic             Coordinates (Angstroms)
 Number     Number       Type             X           Y           Z
 ---------------------------------------------------------------------
      1          6           0       -1.321208   -0.200818   -0.000002
      2          7           0        0.146918    0.006839   -0.000000
      3          7           0        0.637450    1.198609    0.000001
      4          7           0        0.823915   -1.081967    0.000005
      5          1           0       -1.734632    0.271771    0.892847
      6          1           0       -1.734639    0.271818   -0.892823
      7          1           0       -1.517304   -1.269420   -0.000028
      8          1           0       -0.150372    1.848352    0.000000
      9          1           0        1.806221   -0.781976   -0.000029
 ---------------------------------------------------------------------

 SCF Done:  E(RHF) =  -204.101385088     A.U. after    8 cycles

 The electronic state is 1-A.
 Alpha  occ. eigenvalues --  -15.75831 -15.57699 -15.56992 -11.29614  -1.43842
 Alpha  occ. eigenvalues --   -1.17725  -1.05025  -0.83764  -0.73859  -0.68162
 Alpha  occ. eigenvalues --   -0.67731  -0.60203  -0.55507  -0.47523  -0.45969
 Alpha  occ. eigenvalues --   -0.33820
 Alpha virt. eigenvalues --    0.03565   0.04830   0.05106   0.05859   0.08341
 Alpha virt. eigenvalues --    0.09176   0.09210   0.10134   0.12100   0.13595
 Alpha virt. eigenvalues --    0.13639   0.16029   0.16112   0.16733   0.18082

 Mulliken charges:
               1
     1  C   -0.485058
     2  N    0.441424
     3  N   -0.650006
     4  N   -0.567411
     5  H    0.213674
     6  H    0.213673
     7  H    0.247094
     8  H    0.278708
     9  H    0.307903
 Sum of Mulliken charges =  -0.00000

 Dipole moment (field-independent basis, Debye):
    X=             -3.1831    Y=              0.6022    Z=             -0.0001  Tot=              3.2396
 Quadrupole moment (field-independent basis, Debye-Ang):
   XX=            -21.7587   YY=            -28.5129   ZZ=            -25.8533
   XY=             -2.3942   XZ=             -0.0001   YZ=              0.0000

 Normal termination of Gaussian 09 at Fri Aug 26 11:19:25 2022.
