 Gaussian 09, Revision E.01,
 Gaussian 09:  ES64L-G09RevE.01 30-Nov-2015

 -----
 #P G4
 -----

 --------
 Frag_958
 --------
 Symbolic Z-matrix:
 Charge =  0 Multiplicity = 1

 SCF Done:  E(RB3LYP) =  -439.493654505     A.U. after   12 cycles
 SCF Done:  E(RB3LYP) =  -439.501963520     A.U. after   11 cycles
 SCF Done:  E(RB3LYP) =  -439.503814564     A.U. after   11 cycles
 SCF Done:  E(RB3LYP) =  -439.504219910     A.U. after   11 cycles
 SCF Done:  E(RB3LYP) =  -439.504353225     A.U. after   10 cycles
 SCF Done:  E(RB3LYP) =  -439.504390523     A.U. after    9 cycles
 SCF Done:  E(RB3LYP) =  -439.504430022     A.U. after    9 cycles
 SCF Done:  E(RB3LYP) =  -439.504471423     A.U. after   10 cycles
 SCF Done:  E(RB3LYP) =  -439.504519551     A.U. after   10 cycles
 SCF Done:  E(RB3LYP) =  -439.504615432     A.U. after   10 cycles
 SCF Done:  E(RB3LYP) =  -439.506841249     A.U. after    9 cycles
 SCF Done:  E(RB3LYP) =  -439.506844460     A.U. after    7 cycles
 SCF Done:  E(RB3LYP) =  -439.506845318     A.U. after    7 cycles
 Optimization completed.
    -- Stationary point found.
 Normal termination of Gaussian 09 at Fri Aug 26 15:26:32 2022.

 ----------------------------------------------------------
 #P Geom=AllCheck Guess=TCheck SCRF=Check B3LYP/GTBas3 Freq
 ----------------------------------------------------------

 Structure from the checkpoint file:  "G4.Frag_958.chk"
 --------
 Frag_958
 --------
 Charge =  0 Multiplicity = 1

 SCF Done:  E(RB3LYP) =  -439.506845318     A.U. after    1 cycles

  Exact polarizability:  66.351  -0.832  62.828  -0.170   0.728  59.075
 Approx polarizability:  88.513   0.500  87.476   1.642   2.695  88.636

                      1                      2                      3
                      A                      A                      A
 Frequencies --    102.8042               134.7500               196.7823
 Red. masses --      3.8729                 1.2495                 1.1759
 Frc consts  --      0.0241                 0.0134                 0.0268
 IR Inten    --      2.5738                48.2371                17.9994

                      4                      5                      6
                      A                      A                      A
 Frequencies --    220.0592               229.4452               241.3583
 Red. masses --      1.1130                 1.1293                 1.2996
 Frc consts  --      0.0318                 0.0350                 0.0446
 IR Inten    --     24.5332                87.2543                 1.5901

                      7                      8                      9
                      A                      A                      A
 Frequencies --    257.6628               280.8647               346.9330
 Red. masses --      2.7090                 1.9165                 3.2288
 Frc consts  --      0.1060                 0.0891                 0.2290
 IR Inten    --      4.1835                 2.9831                19.1229

                     10                     11                     12
                      A                      A                      A
 Frequencies --    354.7974               362.4905               404.9656
 Red. masses --      2.2502                 3.1477                 1.3842
 Frc consts  --      0.1669                 0.2437                 0.1338
 IR Inten    --      2.9217                 8.2126                78.3024

                     13                     14                     15
                      A                      A                      A
 Frequencies --    442.5112               466.2820               547.2385
 Red. masses --      2.7818                 2.8737                 3.1016
 Frc consts  --      0.3209                 0.3681                 0.5473
 IR Inten    --      2.1069                24.0626                13.9435

                     16                     17                     18
                      A                      A                      A
 Frequencies --    559.7688               571.5072               721.4536
 Red. masses --      3.5327                 3.5498                 4.1653
 Frc consts  --      0.6522                 0.6831                 1.2774
 IR Inten    --     13.4499                18.1756                 4.2677

                     19                     20                     21
                      A                      A                      A
 Frequencies --    859.1961               904.6082               928.7131
 Red. masses --      2.9308                 1.6547                 1.4881
 Frc consts  --      1.2747                 0.7978                 0.7562
 IR Inten    --     14.5864               139.1078                 5.1628

                     22                     23                     24
                      A                      A                      A
 Frequencies --    969.0205               987.8821              1000.3377
 Red. masses --      2.1509                 2.3527                 1.5037
 Frc consts  --      1.1900                 1.3528                 0.8866
 IR Inten    --     15.7670                64.0619                35.7494

                     25                     26                     27
                      A                      A                      A
 Frequencies --   1049.1740              1118.7420              1140.8954
 Red. masses --      2.3706                 1.6671                 1.6323
 Frc consts  --      1.5375                 1.2293                 1.2519
 IR Inten    --    179.6936               106.9974                 6.5565

                     28                     29                     30
                      A                      A                      A
 Frequencies --   1210.2469              1222.0389              1279.8073
 Red. masses --      2.8808                 2.8312                 1.5024
 Frc consts  --      2.4861                 2.4911                 1.4499
 IR Inten    --     32.4591                30.6267               104.6178

                     31                     32                     33
                      A                      A                      A
 Frequencies --   1342.7018              1386.3321              1391.4873
 Red. masses --      1.5139                 1.3530                 1.6413
 Frc consts  --      1.6080                 1.5321                 1.8724
 IR Inten    --     69.2907                26.3331                26.4563

                     34                     35                     36
                      A                      A                      A
 Frequencies --   1406.1655              1419.2144              1477.8390
 Red. masses --      1.8237                 1.4098                 1.0500
 Frc consts  --      2.1246                 1.6730                 1.3511
 IR Inten    --     50.5294                20.6245                 0.5561

                     37                     38                     39
                      A                      A                      A
 Frequencies --   1490.9321              1495.9112              1519.7607
 Red. masses --      1.0499                 1.0514                 1.0985
 Frc consts  --      1.3750                 1.3862                 1.4948
 IR Inten    --      0.2512                 0.5435                15.0902

                     40                     41                     42
                      A                      A                      A
 Frequencies --   1657.2368              3032.5911              3040.3725
 Red. masses --      1.1045                 1.0413                 1.0395
 Frc consts  --      1.7873                 5.6423                 5.6615
 IR Inten    --     64.6991                14.1660                29.1832

                     43                     44                     45
                      A                      A                      A
 Frequencies --   3104.1875              3109.8828              3136.7619
 Red. masses --      1.0948                 1.0952                 1.1023
 Frc consts  --      6.2156                 6.2405                 6.3901
 IR Inten    --      4.8908                35.3513                13.8860

                     46                     47                     48
                      A                      A                      A
 Frequencies --   3143.8629              3502.8044              3580.7872
 Red. masses --      1.1014                 1.0490                 1.0918
 Frc consts  --      6.4138                 7.5831                 8.2478
 IR Inten    --     13.0724                 8.0383                18.4807

                     49                     50                     51
                      A                      A                      A
 Frequencies --   3818.5357              3822.1089              3824.5817
 Red. masses --      1.0663                 1.0657                 1.0652
 Frc consts  --      9.1602                 9.1730                 9.1803
 IR Inten    --     12.8834                39.0646                51.5801

 - Thermochemistry -
 -------------------
 Temperature   298.150 Kelvin.  Pressure   1.00000 Atm.
 Atom     1 has atomic number  6 and mass  12.00000

 Molecular mass:   121.07389 amu.
 Principal axes and moments of inertia in atomic units:
                           1         2         3
     Eigenvalues --   714.19081 993.820611013.79661
           X            0.99848  -0.03820  -0.03981
           Y            0.03449   0.99533  -0.09012
           Z            0.04306   0.08861   0.99514
 This molecule is an asymmetric top.
 Rotational symmetry number  1.
 Warning -- assumption of classical behavior for rotation
           may cause significant error
 Rotational temperatures (Kelvin)      0.12128     0.08715     0.08544
 Rotational constants (GHZ):           2.52697     1.81596     1.78018
 Zero-point vibrational energy     423576.1 (Joules/Mol)
                                  101.23712 (Kcal/Mol)
 Warning -- explicit consideration of  17 degrees of freedom as
           vibrations may cause significant error
 Vibrational temperatures:    147.91   193.87   283.13   316.62   330.12
          (Kelvin)            347.26   370.72   404.10   499.16   510.47
                              521.54   582.65   636.67   670.87   787.35
                              805.38   822.27  1038.01  1236.19  1301.53
                             1336.21  1394.20  1421.34  1439.26  1509.53
                             1609.62  1641.49  1741.27  1758.24  1841.35
                             1931.85  1994.62  2002.04  2023.16  2041.93
                             2126.28  2145.12  2152.28  2186.59  2384.39
                             4363.22  4374.41  4466.23  4474.42  4513.10
                             4523.31  5039.75  5151.95  5494.01  5499.16
                             5502.71

 Zero-point correction=                           0.161332 (Hartree/Particle)
 Thermal correction to Energy=                    0.171605
 Thermal correction to Enthalpy=                  0.172549
 Thermal correction to Gibbs Free Energy=         0.127598
 Sum of electronic and zero-point Energies=           -439.345514
 Sum of electronic and thermal Energies=              -439.335240
 Sum of electronic and thermal Enthalpies=            -439.334296
 Sum of electronic and thermal Free Energies=         -439.379247

                     E (Thermal)             CV                S
                      KCal/Mol        Cal/Mol-Kelvin    Cal/Mol-Kelvin
 Total                  107.684             38.495             94.607
 Electronic               0.000              0.000              0.000
 Translational            0.889              2.981             40.288
 Rotational               0.889              2.981             28.067
 Vibrational            105.906             32.534             26.252
 Vibration     1          0.605              1.947              3.400
 Vibration     2          0.613              1.919              2.877
 Vibration     3          0.636              1.844              2.163
 Vibration     4          0.647              1.811              1.959
 Vibration     5          0.652              1.796              1.883
 Vibration     6          0.658              1.777              1.793
 Vibration     7          0.667              1.750              1.678
 Vibration     8          0.681              1.709              1.528
 Vibration     9          0.725              1.582              1.180
 Vibration    10          0.731              1.565              1.145
 Vibration    11          0.736              1.550              1.111
 Vibration    12          0.770              1.459              0.945
 Vibration    13          0.802              1.377              0.819
 Vibration    14          0.824              1.325              0.748
 Vibration    15          0.902              1.146              0.550
 Vibration    16          0.915              1.118              0.524
 Vibration    17          0.928              1.093              0.501

 Normal termination of Gaussian 09 at Fri Aug 26 15:27:48 2022.

 -----------------------------------------------------------------
 #P Geom=AllCheck Guess=TCheck SCRF=Check CCSD(T,E4T,FrzG4)/GTBas1
 -----------------------------------------------------------------

 Structure from the checkpoint file:  "G4.Frag_958.chk"
 --------
 Frag_958
 --------
 Charge =  0 Multiplicity = 1

 SCF Done:  E(RHF) =  -436.897601081     A.U. after   11 cycles
 E2 =    -0.1232543500D+01 EUMP2 =    -0.43813014458115D+03
 CCSD(T)
 CCSD(T)= -0.43822549408D+03
 8.2264465\MP4SDQ=-438.1909343\CCSD=-438.1908753\CCSD(T)=-438.2254941\R
 Normal termination of Gaussian 09 at Fri Aug 26 15:36:30 2022.

 ---------------------------------------------------------
 #P Geom=AllCheck Guess=TCheck SCRF=Check MP4=FrzG4/GTBas2
 ---------------------------------------------------------

 Structure from the checkpoint file:  "G4.Frag_958.chk"
 --------
 Frag_958
 --------
 Charge =  0 Multiplicity = 1

 SCF Done:  E(RHF) =  -436.912319946     A.U. after   12 cycles
 E2 =    -0.1255773819D+01 EUMP2 =    -0.43816809376453D+03
 Normal termination of Gaussian 09 at Fri Aug 26 15:39:37 2022.

 ---------------------------------------------------------
 #P Geom=AllCheck Guess=TCheck SCRF=Check MP4=FrzG4/GTBas3
 ---------------------------------------------------------

 Structure from the checkpoint file:  "G4.Frag_958.chk"
 --------
 Frag_958
 --------
 Charge =  0 Multiplicity = 1

 SCF Done:  E(RHF) =  -436.960573316     A.U. after   11 cycles
 E2 =    -0.1530679273D+01 EUMP2 =    -0.43849125258885D+03
 Normal termination of Gaussian 09 at Fri Aug 26 16:04:00 2022.

 -----------------------------------------------------------
 #P Geom=AllCheck Guess=TCheck SCRF=Check MP2=Full/GTLargeXP
 -----------------------------------------------------------

 Structure from the checkpoint file:  "G4.Frag_958.chk"
 --------
 Frag_958
 --------
 Charge =  0 Multiplicity = 1

 SCF Done:  E(RHF) =  -437.079541023     A.U. after   12 cycles
 E2 =    -0.1995203146D+01 EUMP2 =    -0.43907474416898D+03
 Normal termination of Gaussian 09 at Fri Aug 26 16:11:00 2022.
 SCF Done:  E(RHF) =  -437.114312571     A.U. after    8 cycles
 Normal termination of Gaussian 09 at Fri Aug 26 16:16:46 2022.

                         Standard orientation:
 ---------------------------------------------------------------------
 Center     Atomic      Atomic             Coordinates (Angstroms)
 Number     Number       Type             X           Y           Z
 ---------------------------------------------------------------------
      1          6           0       -1.313822    1.407104    0.199206
      2          6           0       -0.770676   -0.004366   -0.041452
      3          6           0       -1.348780   -0.998700    0.974871
      4          8           0       -1.076496   -0.433890   -1.374597
      5          6           0        0.791517    0.002793    0.014283
      6          7           0        1.301281   -1.285628   -0.379689
      7          8           0        1.210231    0.302624    1.335054
      8          8           0        1.316963    1.020952   -0.814388
      9          1           0       -0.982256    1.790402    1.168276
     10          1           0       -0.970786    2.077499   -0.590340
     11          1           0       -2.409452    1.395940    0.198984
     12          1           0       -0.959914   -2.004288    0.800035
     13          1           0       -2.441467   -1.027629    0.888155
     14          1           0       -1.102650   -0.699655    1.996382
     15          1           0       -2.033089   -0.510521   -1.447115
     16          1           0        0.723385   -1.643633   -1.134467
     17          1           0        2.236926   -1.149825   -0.751396
     18          1           0        1.512529   -0.532286    1.707869
     19          1           0        1.562789    1.744924   -0.228561
 ---------------------------------------------------------------------

 SCF Done:  E(RHF) =  -437.122090216     A.U. after    8 cycles

 The electronic state is 1-A.
 Alpha  occ. eigenvalues --  -20.56484 -20.55870 -20.55479 -15.54370 -11.36688
 Alpha  occ. eigenvalues --  -11.29217 -11.21790 -11.21394  -1.42601  -1.36678
 Alpha  occ. eigenvalues --   -1.33198  -1.17636  -1.05163  -0.94152  -0.88966
 Alpha  occ. eigenvalues --   -0.78526  -0.73042  -0.69520  -0.69251  -0.66076
 Alpha  occ. eigenvalues --   -0.62901  -0.60022  -0.58486  -0.56993  -0.55298
 Alpha  occ. eigenvalues --   -0.54621  -0.52941  -0.51410  -0.51126  -0.49216
 Alpha  occ. eigenvalues --   -0.44491  -0.44262  -0.41888
 Alpha virt. eigenvalues --    0.03148   0.04238   0.04273   0.05030   0.06269
 Alpha virt. eigenvalues --    0.06568   0.06923   0.07158   0.07493   0.09496
 Alpha virt. eigenvalues --    0.10220   0.10297   0.10700   0.11671   0.12236

 Mulliken charges:
               1
     1  C   -0.667019
     2  C    0.499325
     3  C   -0.611667
     4  O   -0.652728
     5  C    0.625481
     6  N   -0.810191
     7  O   -0.659204
     8  O   -0.647771
     9  H    0.202811
    10  H    0.200345
    11  H    0.162490
    12  H    0.196404
    13  H    0.160555
    14  H    0.186991
    15  H    0.370928
    16  H    0.334338
    17  H    0.312344
    18  H    0.404144
    19  H    0.392423
 Sum of Mulliken charges =  -0.00000

 Dipole moment (field-independent basis, Debye):
    X=             -1.2294    Y=             -0.4428    Z=              1.0341  Tot=              1.6664
 Quadrupole moment (field-independent basis, Debye-Ang):
   XX=            -43.3162   YY=            -48.7370   ZZ=            -52.4396
   XY=             -0.1479   XZ=              1.4896   YZ=              1.0026

 Normal termination of Gaussian 09 at Fri Aug 26 16:35:49 2022.
