 Gaussian 09, Revision E.01,
 Gaussian 09:  ES64L-G09RevE.01 30-Nov-2015

 -----
 #P G4
 -----

 --------
 Frag_747
 --------
 Symbolic Z-matrix:
 Charge =  0 Multiplicity = 1

 SCF Done:  E(RB3LYP) =  -324.946921188     A.U. after   12 cycles
 SCF Done:  E(RB3LYP) =  -324.952873103     A.U. after   11 cycles
 SCF Done:  E(RB3LYP) =  -324.953501185     A.U. after   10 cycles
 SCF Done:  E(RB3LYP) =  -324.953841415     A.U. after   10 cycles
 SCF Done:  E(RB3LYP) =  -324.953960501     A.U. after   10 cycles
 SCF Done:  E(RB3LYP) =  -324.954000940     A.U. after   10 cycles
 SCF Done:  E(RB3LYP) =  -324.954070272     A.U. after    9 cycles
 SCF Done:  E(RB3LYP) =  -324.954142238     A.U. after   10 cycles
 SCF Done:  E(RB3LYP) =  -324.954180011     A.U. after   10 cycles
 SCF Done:  E(RB3LYP) =  -324.954239040     A.U. after   10 cycles
 SCF Done:  E(RB3LYP) =  -324.954269546     A.U. after    7 cycles
 SCF Done:  E(RB3LYP) =  -324.954269780     A.U. after    6 cycles
 SCF Done:  E(RB3LYP) =  -324.954269870     A.U. after    6 cycles
 Optimization completed.
    -- Stationary point found.
 Normal termination of Gaussian 09 at Fri Aug 26 13:06:34 2022.

 ----------------------------------------------------------
 #P Geom=AllCheck Guess=TCheck SCRF=Check B3LYP/GTBas3 Freq
 ----------------------------------------------------------

 Structure from the checkpoint file:  "G4.Frag_747.chk"
 --------
 Frag_747
 --------
 Charge =  0 Multiplicity = 1

 SCF Done:  E(RB3LYP) =  -324.954269870     A.U. after    1 cycles

  Exact polarizability:  51.301   0.026  50.063   0.438   0.253  46.249
 Approx polarizability:  67.485   1.987  69.212   1.143   1.569  67.382

                      1                      2                      3
                      A                      A                      A
 Frequencies --    122.5379               162.4835               218.7936
 Red. masses --      1.5174                 1.5322                 1.1806
 Frc consts  --      0.0134                 0.0238                 0.0333
 IR Inten    --     53.6618                 6.7282                 2.0172

                      4                      5                      6
                      A                      A                      A
 Frequencies --    249.0025               286.3957               318.6170
 Red. masses --      2.3647                 1.1746                 1.2886
 Frc consts  --      0.0864                 0.0568                 0.0771
 IR Inten    --      7.0482                 3.6850               141.3828

                      7                      8                      9
                      A                      A                      A
 Frequencies --    358.1004               391.3743               466.2161
 Red. masses --      1.9788                 2.8188                 4.2526
 Frc consts  --      0.1495                 0.2544                 0.5446
 IR Inten    --     21.6076                 3.4569                 2.9001

                     10                     11                     12
                      A                      A                      A
 Frequencies --    499.1545               574.4356               763.0754
 Red. masses --      2.5996                 4.0607                 3.6539
 Frc consts  --      0.3816                 0.7895                 1.2536
 IR Inten    --     11.8129                18.3692                10.7176

                     13                     14                     15
                      A                      A                      A
 Frequencies --    860.9957               910.9723               945.4925
 Red. masses --      1.2840                 1.7466                 2.0312
 Frc consts  --      0.5608                 0.8540                 1.0698
 IR Inten    --    121.6292                19.1404                65.4158

                     16                     17                     18
                      A                      A                      A
 Frequencies --    991.3823              1078.7992              1109.2662
 Red. masses --      2.2186                 1.9528                 1.5037
 Frc consts  --      1.2847                 1.3390                 1.0901
 IR Inten    --     80.0735                 7.8165                21.8338

                     19                     20                     21
                      A                      A                      A
 Frequencies --   1126.1334              1170.0498              1229.2418
 Red. masses --      1.9281                 1.6972                 1.9047
 Frc consts  --      1.4406                 1.3690                 1.6957
 IR Inten    --     18.7558                44.1603                84.9268

                     22                     23                     24
                      A                      A                      A
 Frequencies --   1288.2089              1305.9909              1389.0342
 Red. masses --      1.3545                 1.3899                 1.2379
 Frc consts  --      1.3243                 1.3967                 1.4072
 IR Inten    --     89.0073                49.4368                13.4838

                     25                     26                     27
                      A                      A                      A
 Frequencies --   1426.1503              1458.7552              1482.0844
 Red. masses --      1.4962                 1.8265                 1.0512
 Frc consts  --      1.7929                 2.2900                 1.3604
 IR Inten    --      1.5246                42.1533                 1.1555

                     28                     29                     30
                      A                      A                      A
 Frequencies --   1488.8963              1507.4716              1642.4954
 Red. masses --      1.0791                 1.1000                 1.0920
 Frc consts  --      1.4094                 1.4728                 1.7357
 IR Inten    --      0.1761                 0.6668                35.9463

                     31                     32                     33
                      A                      A                      A
 Frequencies --   2859.6068              3059.7518              3064.3254
 Red. masses --      1.0731                 1.0758                 1.0437
 Frc consts  --      5.1701                 5.9343                 5.7743
 IR Inten    --    120.2170                16.4670                20.2728

                     34                     35                     36
                      A                      A                      A
 Frequencies --   3139.8050              3158.3671              3503.1835
 Red. masses --      1.1026                 1.1020                 1.0486
 Frc consts  --      6.4042                 6.4765                 7.5820
 IR Inten    --     17.8533                 8.4475                 1.9900

                     37                     38                     39
                      A                      A                      A
 Frequencies --   3588.1599              3788.6178              3807.7180
 Red. masses --      1.0930                 1.0659                 1.0657
 Frc consts  --      8.2912                 9.0146                 9.1032
 IR Inten    --      3.1874                 9.8033                15.9387

 - Thermochemistry -
 -------------------
 Temperature   298.150 Kelvin.  Pressure   1.00000 Atm.
 Atom     1 has atomic number  6 and mass  12.00000

 Molecular mass:    91.06333 amu.
 Principal axes and moments of inertia in atomic units:
                           1         2         3
     Eigenvalues --   380.59417 656.47258 673.43619
           X            0.99898  -0.04423   0.00931
           Y            0.04520   0.97604  -0.21284
           Z            0.00033   0.21304   0.97704
 This molecule is an asymmetric top.
 Rotational symmetry number  1.
 Rotational temperatures (Kelvin)      0.22758     0.13194     0.12861
 Rotational constants (GHZ):           4.74190     2.74915     2.67990
 Zero-point vibrational energy     339686.5 (Joules/Mol)
                                   81.18701 (Kcal/Mol)
 Warning -- explicit consideration of  11 degrees of freedom as
           vibrations may cause significant error
 Vibrational temperatures:    176.30   233.78   314.79   358.26   412.06
          (Kelvin)            458.42   515.23   563.10   670.78   718.17
                              826.48  1097.89  1238.78  1310.68  1360.35
                             1426.38  1552.15  1595.98  1620.25  1683.44
                             1768.60  1853.44  1879.03  1998.51  2051.91
                             2098.82  2132.39  2142.19  2168.91  2363.18
                             4114.33  4402.29  4408.88  4517.47  4544.18
                             5040.29  5162.56  5450.97  5478.45

 Zero-point correction=                           0.129380 (Hartree/Particle)
 Thermal correction to Energy=                    0.137157
 Thermal correction to Enthalpy=                  0.138101
 Thermal correction to Gibbs Free Energy=         0.098496
 Sum of electronic and zero-point Energies=           -324.824890
 Sum of electronic and thermal Energies=              -324.817113
 Sum of electronic and thermal Enthalpies=            -324.816169
 Sum of electronic and thermal Free Energies=         -324.855773

                     E (Thermal)             CV                S
                      KCal/Mol        Cal/Mol-Kelvin    Cal/Mol-Kelvin
 Total                   86.067             28.096             83.355
 Electronic               0.000              0.000              0.000
 Translational            0.889              2.981             39.439
 Rotational               0.889              2.981             26.623
 Vibrational             84.290             22.135             17.293
 Vibration     1          0.610              1.930              3.060
 Vibration     2          0.623              1.888              2.521
 Vibration     3          0.647              1.812              1.969
 Vibration     4          0.662              1.764              1.738
 Vibration     5          0.684              1.699              1.495
 Vibration     6          0.705              1.638              1.317
 Vibration     7          0.733              1.559              1.130
 Vibration     8          0.759              1.489              0.995
 Vibration     9          0.824              1.325              0.748
 Vibration    10          0.855              1.252              0.660
 Vibration    11          0.931              1.087              0.496

 Optimization completed.
    -- Stationary point found.
 Normal termination of Gaussian 09 at Fri Aug 26 13:07:09 2022.

 -----------------------------------------------------------------
 #P Geom=AllCheck Guess=TCheck SCRF=Check CCSD(T,E4T,FrzG4)/GTBas1
 -----------------------------------------------------------------

 Structure from the checkpoint file:  "G4.Frag_747.chk"
 --------
 Frag_747
 --------
 Charge =  0 Multiplicity = 1

 SCF Done:  E(RHF) =  -322.995286437     A.U. after   12 cycles
 E2 =    -0.9180109536D+00 EUMP2 =    -0.32391329739050D+03
 CCSD(T)
 CCSD(T)= -0.32398899035D+03
 \CCSD(T)=-323.9889903\RMSD=4.580e-09\PG=C01 [X(C3H9N1O2)]\\@
 Normal termination of Gaussian 09 at Fri Aug 26 13:09:25 2022.

 ---------------------------------------------------------
 #P Geom=AllCheck Guess=TCheck SCRF=Check MP4=FrzG4/GTBas2
 ---------------------------------------------------------

 Structure from the checkpoint file:  "G4.Frag_747.chk"
 --------
 Frag_747
 --------
 Charge =  0 Multiplicity = 1

 SCF Done:  E(RHF) =  -323.007608580     A.U. after   12 cycles
 E2 =    -0.9351945316D+00 EUMP2 =    -0.32394280311127D+03
 Normal termination of Gaussian 09 at Fri Aug 26 13:10:14 2022.

 ---------------------------------------------------------
 #P Geom=AllCheck Guess=TCheck SCRF=Check MP4=FrzG4/GTBas3
 ---------------------------------------------------------

 Structure from the checkpoint file:  "G4.Frag_747.chk"
 --------
 Frag_747
 --------
 Charge =  0 Multiplicity = 1

 SCF Done:  E(RHF) =  -323.044042185     A.U. after   11 cycles
 E2 =    -0.1141637798D+01 EUMP2 =    -0.32418567998303D+03
 Normal termination of Gaussian 09 at Fri Aug 26 13:14:29 2022.

 -----------------------------------------------------------
 #P Geom=AllCheck Guess=TCheck SCRF=Check MP2=Full/GTLargeXP
 -----------------------------------------------------------

 Structure from the checkpoint file:  "G4.Frag_747.chk"
 --------
 Frag_747
 --------
 Charge =  0 Multiplicity = 1

 SCF Done:  E(RHF) =  -323.133405529     A.U. after   12 cycles
 E2 =    -0.1489393185D+01 EUMP2 =    -0.32462279871431D+03
 Normal termination of Gaussian 09 at Fri Aug 26 13:16:38 2022.
 SCF Done:  E(RHF) =  -323.159475375     A.U. after    8 cycles
 Normal termination of Gaussian 09 at Fri Aug 26 13:18:33 2022.

                         Standard orientation:
 ---------------------------------------------------------------------
 Center     Atomic      Atomic             Coordinates (Angstroms)
 Number     Number       Type             X           Y           Z
 ---------------------------------------------------------------------
      1          6           0       -0.701222    1.439752   -0.340941
      2          6           0       -0.437865   -0.019784   -0.003698
      3          8           0       -0.401016   -0.102687    1.419563
      4          8           0       -1.508738   -0.783908   -0.516854
      5          6           0        0.893386   -0.545581   -0.571475
      6          7           0        2.016494    0.190130   -0.009169
      7          1           0       -0.746103    1.569513   -1.424654
      8          1           0        0.099196    2.062499    0.059930
      9          1           0       -1.655856    1.741646    0.094896
     10          1           0       -0.556217   -1.024373    1.653900
     11          1           0       -1.189856   -1.675440   -0.698183
     12          1           0        0.918152   -1.638153   -0.367626
     13          1           0        0.889440   -0.424914   -1.660697
     14          1           0        2.897092   -0.204269   -0.320768
     15          1           0        1.980935    0.109023    1.002386
 ---------------------------------------------------------------------

 SCF Done:  E(RHF) =  -323.165330687     A.U. after    8 cycles

 The electronic state is 1-A.
 Alpha  occ. eigenvalues --  -20.56814 -20.55926 -15.54479 -11.33964 -11.26192
 Alpha  occ. eigenvalues --  -11.20464  -1.41351  -1.33449  -1.18574  -1.01169
 Alpha  occ. eigenvalues --   -0.92251  -0.80131  -0.73001  -0.68726  -0.65546
 Alpha  occ. eigenvalues --   -0.63680  -0.61185  -0.56244  -0.54342  -0.53379
 Alpha  occ. eigenvalues --   -0.52769  -0.51699  -0.47661  -0.45014  -0.39928
 Alpha virt. eigenvalues --    0.03069   0.04389   0.04795   0.05065   0.06748
 Alpha virt. eigenvalues --    0.07288   0.07560   0.07898   0.08638   0.10163
 Alpha virt. eigenvalues --    0.11737   0.12299   0.13059   0.13742   0.15083

 Mulliken charges:
               1
     1  C   -0.520428
     2  C    0.494766
     3  O   -0.614499
     4  O   -0.609552
     5  C   -0.215689
     6  N   -0.685603
     7  H    0.163901
     8  H    0.200443
     9  H    0.183153
    10  H    0.361747
    11  H    0.362000
    12  H    0.107858
    13  H    0.174803
    14  H    0.287650
    15  H    0.309451
 Sum of Mulliken charges =  -0.00000

 Dipole moment (field-independent basis, Debye):
    X=              1.6709    Y=             -2.8510    Z=             -0.5014  Tot=              3.3424
 Quadrupole moment (field-independent basis, Debye-Ang):
   XX=            -39.4771   YY=            -33.8442   ZZ=            -37.9668
   XY=             -2.2133   XZ=             -0.1329   YZ=             -1.2561

 Normal termination of Gaussian 09 at Fri Aug 26 13:26:38 2022.
