 Gaussian 09, Revision E.01,
 Gaussian 09:  ES64L-G09RevE.01 30-Nov-2015

 -----
 #P G4
 -----

 --------
 Frag_658
 --------
 Symbolic Z-matrix:
 Charge =  0 Multiplicity = 1

 SCF Done:  E(RB3LYP) =  -324.939755994     A.U. after   12 cycles
 SCF Done:  E(RB3LYP) =  -324.947739035     A.U. after   11 cycles
 SCF Done:  E(RB3LYP) =  -324.948569298     A.U. after   10 cycles
 SCF Done:  E(RB3LYP) =  -324.948901800     A.U. after   10 cycles
 SCF Done:  E(RB3LYP) =  -324.949070051     A.U. after   10 cycles
 SCF Done:  E(RB3LYP) =  -324.949208598     A.U. after   10 cycles
 SCF Done:  E(RB3LYP) =  -324.949288328     A.U. after   10 cycles
 SCF Done:  E(RB3LYP) =  -324.949403317     A.U. after   10 cycles
 SCF Done:  E(RB3LYP) =  -324.949453468     A.U. after   10 cycles
 SCF Done:  E(RB3LYP) =  -324.949486038     A.U. after    9 cycles
 SCF Done:  E(RB3LYP) =  -324.950779805     A.U. after    9 cycles
 SCF Done:  E(RB3LYP) =  -324.950780725     A.U. after    7 cycles
 SCF Done:  E(RB3LYP) =  -324.950780915     A.U. after    6 cycles
 Optimization completed.
    -- Stationary point found.
 Normal termination of Gaussian 09 at Fri Aug 19 11:44:57 2022.

 ----------------------------------------------------------
 #P Geom=AllCheck Guess=TCheck SCRF=Check B3LYP/GTBas3 Freq
 ----------------------------------------------------------

 Structure from the checkpoint file:  "G4.Frag_658.chk"
 --------
 Frag_658
 --------
 Charge =  0 Multiplicity = 1

 SCF Done:  E(RB3LYP) =  -324.950780915     A.U. after    1 cycles

  Exact polarizability:  55.419   0.877  48.225   0.725   1.212  43.902
 Approx polarizability:  70.636   1.973  66.350   0.453   3.543  64.660

                      1                      2                      3
                      A                      A                      A
 Frequencies --     88.4334               195.8098               217.2366
 Red. masses --      1.8951                 1.2017                 1.0507
 Frc consts  --      0.0087                 0.0271                 0.0292
 IR Inten    --      2.2244                 5.6517                 9.9672

                      4                      5                      6
                      A                      A                      A
 Frequencies --    248.4207               287.1115               310.9699
 Red. masses --      1.1200                 2.5866                 1.3757
 Frc consts  --      0.0407                 0.1256                 0.0784
 IR Inten    --      4.0896                37.6789                73.0434

                      7                      8                      9
                      A                      A                      A
 Frequencies --    368.7779               394.7261               472.6592
 Red. masses --      2.3899                 2.6369                 2.8828
 Frc consts  --      0.1915                 0.2421                 0.3795
 IR Inten    --     13.2283                 1.4018                15.7872

                     10                     11                     12
                      A                      A                      A
 Frequencies --    538.1568               580.6576               764.8871
 Red. masses --      3.4689                 3.8311                 4.2506
 Frc consts  --      0.5919                 0.7610                 1.4652
 IR Inten    --     23.9500                 0.7524                10.5107

                     13                     14                     15
                      A                      A                      A
 Frequencies --    860.9932               913.2118               967.7487
 Red. masses --      2.4550                 1.7431                 1.8236
 Frc consts  --      1.0723                 0.8565                 1.0063
 IR Inten    --     73.0353               153.9365                 8.3367

                     16                     17                     18
                      A                      A                      A
 Frequencies --   1020.9669              1114.0479              1156.5301
 Red. masses --      1.5698                 2.8489                 1.9893
 Frc consts  --      0.9641                 2.0832                 1.5677
 IR Inten    --     16.6442               105.8486                31.4430

                     19                     20                     21
                      A                      A                      A
 Frequencies --   1163.2985              1180.8701              1220.4338
 Red. masses --      2.5529                 1.3754                 1.4374
 Frc consts  --      2.0355                 1.1300                 1.2614
 IR Inten    --    186.2564                38.2081                25.6525

                     22                     23                     24
                      A                      A                      A
 Frequencies --   1319.1826              1384.7233              1419.5265
 Red. masses --      1.7599                 1.4143                 1.8751
 Frc consts  --      1.8044                 1.5978                 2.2262
 IR Inten    --     86.8714                24.0989                88.4281

                     25                     26                     27
                      A                      A                      A
 Frequencies --   1469.6002              1484.5715              1492.1797
 Red. masses --      1.1189                 1.0693                 1.0728
 Frc consts  --      1.4237                 1.3886                 1.4074
 IR Inten    --      1.2090                 3.1307                 1.0973

                     28                     29                     30
                      A                      A                      A
 Frequencies --   1500.6212              1515.5120              1644.6477
 Red. masses --      1.0628                 1.0538                 1.1069
 Frc consts  --      1.4100                 1.4260                 1.7641
 IR Inten    --      0.6889                 8.5408                36.4896

                     31                     32                     33
                      A                      A                      A
 Frequencies --   2990.8013              3044.7413              3053.4241
 Red. masses --      1.0410                 1.0412                 1.0926
 Frc consts  --      5.4860                 5.6871                 6.0018
 IR Inten    --     48.8162                11.6545                50.6594

                     34                     35                     36
                      A                      A                      A
 Frequencies --   3111.6014              3119.4494              3146.8894
 Red. masses --      1.0997                 1.0976                 1.1014
 Frc consts  --      6.2734                 6.2929                 6.4260
 IR Inten    --     28.4970                20.1826                11.0960

                     37                     38                     39
                      A                      A                      A
 Frequencies --   3502.5349              3587.9630              3812.4167
 Red. masses --      1.0490                 1.0919                 1.0658
 Frc consts  --      7.5821                 8.2816                 9.1273
 IR Inten    --      2.0580                 3.3669                 9.3908

 - Thermochemistry -
 -------------------
 Temperature   298.150 Kelvin.  Pressure   1.00000 Atm.
 Atom     1 has atomic number  6 and mass  12.00000

 Molecular mass:    91.06333 amu.
 Principal axes and moments of inertia in atomic units:
                           1         2         3
     Eigenvalues --   380.58184 618.18875 637.66978
           X            0.99977   0.00621   0.02065
           Y           -0.00395   0.99418  -0.10769
           Z           -0.02120   0.10759   0.99397
 This molecule is an asymmetric top.
 Rotational symmetry number  1.
 Rotational temperatures (Kelvin)      0.22758     0.14011     0.13583
 Rotational constants (GHZ):           4.74206     2.91940     2.83021
 Zero-point vibrational energy     338939.9 (Joules/Mol)
                                   81.00859 (Kcal/Mol)
 Warning -- explicit consideration of  11 degrees of freedom as
           vibrations may cause significant error
 Vibrational temperatures:    127.24   281.73   312.55   357.42   413.09
          (Kelvin)            447.42   530.59   567.92   680.05   774.29
                              835.44  1100.50  1238.78  1313.91  1392.37
                             1468.94  1602.86  1663.99  1673.72  1699.01
                             1755.93  1898.01  1992.31  2042.38  2114.42
                             2135.96  2146.91  2159.06  2180.48  2366.28
                             4303.09  4380.70  4393.19  4476.89  4488.19
                             4527.67  5039.36  5162.27  5485.21

 Zero-point correction=                           0.129095 (Hartree/Particle)
 Thermal correction to Energy=                    0.136816
 Thermal correction to Enthalpy=                  0.137760
 Thermal correction to Gibbs Free Energy=         0.098167
 Sum of electronic and zero-point Energies=           -324.821686
 Sum of electronic and thermal Energies=              -324.813965
 Sum of electronic and thermal Enthalpies=            -324.813021
 Sum of electronic and thermal Free Energies=         -324.852614

                     E (Thermal)             CV                S
                      KCal/Mol        Cal/Mol-Kelvin    Cal/Mol-Kelvin
 Total                   85.853             27.702             83.330
 Electronic               0.000              0.000              0.000
 Translational            0.889              2.981             39.439
 Rotational               0.889              2.981             26.509
 Vibrational             84.076             21.741             17.382
 Vibration     1          0.601              1.957              3.694
 Vibration     2          0.636              1.846              2.172
 Vibration     3          0.646              1.815              1.982
 Vibration     4          0.662              1.765              1.742
 Vibration     5          0.684              1.698              1.491
 Vibration     6          0.700              1.653              1.357
 Vibration     7          0.741              1.536              1.085
 Vibration     8          0.762              1.481              0.982
 Vibration     9          0.830              1.311              0.730
 Vibration    10          0.893              1.166              0.569
 Vibration    11          0.937              1.073              0.484

 Optimization completed.
    -- Stationary point found.
 Normal termination of Gaussian 09 at Fri Aug 19 11:47:46 2022.

 -----------------------------------------------------------------
 #P Geom=AllCheck Guess=TCheck SCRF=Check CCSD(T,E4T,FrzG4)/GTBas1
 -----------------------------------------------------------------

 Structure from the checkpoint file:  "G4.Frag_658.chk"
 --------
 Frag_658
 --------
 Charge =  0 Multiplicity = 1

 SCF Done:  E(RHF) =  -322.994979933     A.U. after   12 cycles
 E2 =    -0.9156455134D+00 EUMP2 =    -0.32391062544623D+03
 CCSD(T)
 CCSD(T)= -0.32398702821D+03
 D=-323.961424\CCSD(T)=-323.9870282\RMSD=3.380e-09\PG=C01 [X(C3H9N1O2)]
 Normal termination of Gaussian 09 at Fri Aug 19 11:53:43 2022.

 ---------------------------------------------------------
 #P Geom=AllCheck Guess=TCheck SCRF=Check MP4=FrzG4/GTBas2
 ---------------------------------------------------------

 Structure from the checkpoint file:  "G4.Frag_658.chk"
 --------
 Frag_658
 --------
 Charge =  0 Multiplicity = 1

 SCF Done:  E(RHF) =  -323.005932176     A.U. after   12 cycles
 E2 =    -0.9314319268D+00 EUMP2 =    -0.32393736410325D+03
 Normal termination of Gaussian 09 at Fri Aug 19 12:02:49 2022.

 ---------------------------------------------------------
 #P Geom=AllCheck Guess=TCheck SCRF=Check MP4=FrzG4/GTBas3
 ---------------------------------------------------------

 Structure from the checkpoint file:  "G4.Frag_658.chk"
 --------
 Frag_658
 --------
 Charge =  0 Multiplicity = 1

 SCF Done:  E(RHF) =  -323.039792204     A.U. after   11 cycles
 E2 =    -0.1139026258D+01 EUMP2 =    -0.32417881846185D+03
 Normal termination of Gaussian 09 at Fri Aug 19 15:21:51 2022.

 -----------------------------------------------------------
 #P Geom=AllCheck Guess=TCheck SCRF=Check MP2=Full/GTLargeXP
 -----------------------------------------------------------

 Structure from the checkpoint file:  "G4.Frag_658.chk"
 --------
 Frag_658
 --------
 Charge =  0 Multiplicity = 1

 SCF Done:  E(RHF) =  -323.127903796     A.U. after   11 cycles
 E2 =    -0.1484948579D+01 EUMP2 =    -0.32461285237444D+03
 Normal termination of Gaussian 09 at Fri Aug 19 15:28:39 2022.
 SCF Done:  E(RHF) =  -323.153635467     A.U. after    8 cycles
 Normal termination of Gaussian 09 at Fri Aug 19 15:34:34 2022.

                         Standard orientation:
 ---------------------------------------------------------------------
 Center     Atomic      Atomic             Coordinates (Angstroms)
 Number     Number       Type             X           Y           Z
 ---------------------------------------------------------------------
      1          6           0        1.993837   -0.047610   -0.061295
      2          8           0        0.778431   -0.537896   -0.581080
      3          6           0       -0.409859   -0.029232   -0.007670
      4          6           0       -0.664610    1.428521   -0.408500
      5          7           0       -1.436459   -0.880502   -0.546596
      6          8           0       -0.383399   -0.158577    1.412647
      7          1           0        2.129471    1.028694   -0.244610
      8          1           0        2.790482   -0.583705   -0.581814
      9          1           0        2.085068   -0.240738    1.014988
     10          1           0        0.097106    2.098416    0.003700
     11          1           0       -0.655288    1.512874   -1.496112
     12          1           0       -1.639325    1.754522   -0.035046
     13          1           0       -1.150897   -1.844055   -0.396409
     14          1           0       -2.292149   -0.731427   -0.021327
     15          1           0        0.014279    0.630641    1.795056
 ---------------------------------------------------------------------

 SCF Done:  E(RHF) =  -323.159433667     A.U. after    8 cycles

 The electronic state is 1-A.
 Alpha  occ. eigenvalues --  -20.56388 -20.55669 -15.53846 -11.36814 -11.27314
 Alpha  occ. eigenvalues --  -11.22468  -1.42110  -1.34108  -1.17590  -0.99575
 Alpha  occ. eigenvalues --   -0.93878  -0.80656  -0.71704  -0.69092  -0.67507
 Alpha  occ. eigenvalues --   -0.63028  -0.61553  -0.57039  -0.56250  -0.54144
 Alpha  occ. eigenvalues --   -0.52195  -0.50814  -0.47541  -0.43502  -0.41745
 Alpha virt. eigenvalues --    0.03254   0.04080   0.04970   0.05267   0.06859
 Alpha virt. eigenvalues --    0.07100   0.07322   0.07642   0.08686   0.09961
 Alpha virt. eigenvalues --    0.11624   0.12372   0.13303   0.14345   0.14791

 Mulliken charges:
               1
     1  C   -0.360867
     2  O   -0.365223
     3  C    0.599136
     4  C   -0.560620
     5  N   -0.723930
     6  O   -0.608779
     7  H    0.153440
     8  H    0.184095
     9  H    0.170429
    10  H    0.160395
    11  H    0.201969
    12  H    0.179409
    13  H    0.307886
    14  H    0.293626
    15  H    0.369033
 Sum of Mulliken charges =  -0.00000

 Dipole moment (field-independent basis, Debye):
    X=              0.7066    Y=              1.9713    Z=              1.3676  Tot=              2.5012
 Quadrupole moment (field-independent basis, Debye-Ang):
   XX=            -33.8161   YY=            -35.3176   ZZ=            -41.3475
   XY=              0.8989   XZ=             -0.1965   YZ=              0.9610

 Normal termination of Gaussian 09 at Fri Aug 19 18:32:56 2022.
