 Gaussian 09, Revision E.01,
 Gaussian 09:  ES64L-G09RevE.01 30-Nov-2015

 -----
 #P G4
 -----

 --------
 Frag_490
 --------
 Symbolic Z-matrix:
 Charge =  0 Multiplicity = 1

 SCF Done:  E(RB3LYP) =  -351.633789820     A.U. after   13 cycles
 SCF Done:  E(RB3LYP) =  -351.638371670     A.U. after   11 cycles
 SCF Done:  E(RB3LYP) =  -351.638530374     A.U. after   10 cycles
 SCF Done:  E(RB3LYP) =  -351.638775551     A.U. after    9 cycles
 SCF Done:  E(RB3LYP) =  -351.638981105     A.U. after   10 cycles
 SCF Done:  E(RB3LYP) =  -351.639115126     A.U. after    9 cycles
 SCF Done:  E(RB3LYP) =  -351.639125054     A.U. after   10 cycles
 SCF Done:  E(RB3LYP) =  -351.639146612     A.U. after   11 cycles
 SCF Done:  E(RB3LYP) =  -351.639166209     A.U. after    9 cycles
 SCF Done:  E(RB3LYP) =  -351.639170022     A.U. after    8 cycles
 SCF Done:  E(RB3LYP) =  -351.639170128     A.U. after    7 cycles
 SCF Done:  E(RB3LYP) =  -351.639170310     A.U. after    6 cycles
 SCF Done:  E(RB3LYP) =  -351.639170577     A.U. after    6 cycles
 Optimization completed.
    -- Stationary point found.
 Normal termination of Gaussian 09 at Fri Aug 26 12:51:25 2022.

 ----------------------------------------------------------
 #P Geom=AllCheck Guess=TCheck SCRF=Check B3LYP/GTBas3 Freq
 ----------------------------------------------------------

 Structure from the checkpoint file:  "G4.Frag_490.chk"
 --------
 Frag_490
 --------
 Charge =  0 Multiplicity = 1

 SCF Done:  E(RB3LYP) =  -351.639170577     A.U. after    1 cycles

  Exact polarizability:  84.078   0.062  79.751  -1.473  -0.860  76.971
 Approx polarizability: 113.831   0.725 112.838   0.595  -1.312 113.283

                      1                      2                      3
                      A                      A                      A
 Frequencies --     73.7075               187.2405               227.6857
 Red. masses --      2.4676                 1.0300                 1.0990
 Frc consts  --      0.0079                 0.0213                 0.0336
 IR Inten    --      0.2892                 2.7085                 0.0299

                      4                      5                      6
                      A                      A                      A
 Frequencies --    243.0203               256.5319               270.7969
 Red. masses --      1.1453                 1.6852                 1.1091
 Frc consts  --      0.0399                 0.0653                 0.0479
 IR Inten    --      5.7611                 7.5933                 1.0254

                      7                      8                      9
                      A                      A                      A
 Frequencies --    284.1036               304.0118               314.9089
 Red. masses --      2.0890                 1.6766                 1.3963
 Frc consts  --      0.0993                 0.0913                 0.0816
 IR Inten    --      2.7202                 1.9010                54.1625

                     10                     11                     12
                      A                      A                      A
 Frequencies --    349.7538               371.2456               379.6958
 Red. masses --      2.2652                 1.7309                 2.0860
 Frc consts  --      0.1633                 0.1406                 0.1772
 IR Inten    --      8.9847                20.6256                 4.2678

                     13                     14                     15
                      A                      A                      A
 Frequencies --    385.0249               402.4769               472.3646
 Red. masses --      1.9945                 2.5124                 2.3968
 Frc consts  --      0.1742                 0.2398                 0.3151
 IR Inten    --      0.3954                 5.4244                 0.7974

                     16                     17                     18
                      A                      A                      A
 Frequencies --    497.3308               511.4782               651.8737
 Red. masses --      2.7550                 2.8706                 3.1054
 Frc consts  --      0.4015                 0.4425                 0.7775
 IR Inten    --      5.5603                 5.7807                 1.2769

                     19                     20                     21
                      A                      A                      A
 Frequencies --    813.1375               883.3075               928.9205
 Red. masses --      2.7464                 2.2270                 1.5191
 Frc consts  --      1.0699                 1.0238                 0.7723
 IR Inten    --      1.0120                12.2904                 0.0718

                     22                     23                     24
                      A                      A                      A
 Frequencies --    933.7970               936.0112               957.9549
 Red. masses --      1.7450                 1.6658                 1.7660
 Frc consts  --      0.8965                 0.8599                 0.9548
 IR Inten    --      0.4791                 0.9794                18.5969

                     25                     26                     27
                      A                      A                      A
 Frequencies --    961.0267              1005.0899              1037.0097
 Red. masses --      1.4459                 1.2611                 1.3889
 Frc consts  --      0.7868                 0.7506                 0.8800
 IR Inten    --      9.6108                 1.3679                 3.3045

                     28                     29                     30
                      A                      A                      A
 Frequencies --   1044.4988              1118.8582              1185.7642
 Red. masses --      1.3937                 1.6743                 2.2932
 Frc consts  --      0.8958                 1.2349                 1.8997
 IR Inten    --      0.1736                31.2559                50.7859

                     31                     32                     33
                      A                      A                      A
 Frequencies --   1197.8956              1238.8031              1253.3174
 Red. masses --      2.2434                 2.5135                 3.0345
 Frc consts  --      1.8967                 2.2726                 2.8084
 IR Inten    --     29.6474                 9.3110                 0.6163

                     34                     35                     36
                      A                      A                      A
 Frequencies --   1273.5770              1359.7393              1394.3093
 Red. masses --      2.7248                 1.4540                 1.2557
 Frc consts  --      2.6039                 1.5839                 1.4383
 IR Inten    --      0.7308                32.1349                 3.4402

                     37                     38                     39
                      A                      A                      A
 Frequencies --   1397.1749              1400.9783              1412.9678
 Red. masses --      1.2480                 1.3391                 1.2746
 Frc consts  --      1.4354                 1.5485                 1.4993
 IR Inten    --      9.9637                18.2809                20.2215

                     40                     41                     42
                      A                      A                      A
 Frequencies --   1430.8998              1475.3288              1478.1082
 Red. masses --      1.2151                 1.0554                 1.0466
 Frc consts  --      1.4658                 1.3534                 1.3473
 IR Inten    --      2.1020                 0.8667                 0.1999

                     43                     44                     45
                      A                      A                      A
 Frequencies --   1489.1214              1493.9312              1497.8742
 Red. masses --      1.0480                 1.0479                 1.0494
 Frc consts  --      1.3692                 1.3779                 1.3872
 IR Inten    --      0.4904                 0.1066                 0.4231

                     46                     47                     48
                      A                      A                      A
 Frequencies --   1501.7618              1506.4963              1510.4507
 Red. masses --      1.0547                 1.0511                 1.0552
 Frc consts  --      1.4015                 1.4055                 1.4185
 IR Inten    --      6.6341                 5.3123                 1.8282

                     49                     50                     51
                      A                      A                      A
 Frequencies --   1521.0159              1527.3449              3032.0274
 Red. masses --      1.0527                 1.0594                 1.0353
 Frc consts  --      1.4348                 1.4560                 5.6074
 IR Inten    --      4.5175                 5.8734                22.1467

                     52                     53                     54
                      A                      A                      A
 Frequencies --   3033.0945              3038.4628              3042.5708
 Red. masses --      1.0357                 1.0364                 1.0359
 Frc consts  --      5.6140                 5.6373                 5.6501
 IR Inten    --     15.1505                26.2581                17.2303

                     55                     56                     57
                      A                      A                      A
 Frequencies --   3054.3706              3093.2503              3095.3465
 Red. masses --      1.0368                 1.1006                 1.1002
 Frc consts  --      5.6987                 6.2045                 6.2107
 IR Inten    --      7.5862                 1.3962                 9.1306

                     58                     59                     60
                      A                      A                      A
 Frequencies --   3101.1092              3103.9184              3107.9415
 Red. masses --      1.0999                 1.1002                 1.1018
 Frc consts  --      6.2324                 6.2453                 6.2703
 IR Inten    --     48.6109                62.1884                14.4596

                     61                     62                     63
                      A                      A                      A
 Frequencies --   3111.7176              3118.6701              3121.8016
 Red. masses --      1.0998                 1.1009                 1.1011
 Frc consts  --      6.2745                 6.3088                 6.3224
 IR Inten    --     38.8293                11.1179                 7.9053

                     64                     65                     66
                      A                      A                      A
 Frequencies --   3124.3111              3139.6557              3823.8355
 Red. masses --      1.1007                 1.1008                 1.0658
 Frc consts  --      6.3301                 6.3931                 9.1820
 IR Inten    --     50.5357                17.7858                11.1721

 - Thermochemistry -
 -------------------
 Temperature   298.150 Kelvin.  Pressure   1.00000 Atm.
 Atom     1 has atomic number  6 and mass  12.00000

 Molecular mass:   116.12012 amu.
 Principal axes and moments of inertia in atomic units:
                           1         2         3
     Eigenvalues --   764.486011065.090481078.16745
           X            0.99874  -0.01740  -0.04703
           Y            0.00580   0.97168  -0.23622
           Z            0.04981   0.23565   0.97056
 This molecule is an asymmetric top.
 Rotational symmetry number  1.
 Warning -- assumption of classical behavior for rotation
           may cause significant error
 Rotational temperatures (Kelvin)      0.11330     0.08132     0.08033
 Rotational constants (GHZ):           2.36072     1.69445     1.67390
 Zero-point vibrational energy     577149.2 (Joules/Mol)
                                  137.94196 (Kcal/Mol)
 Warning -- explicit consideration of  17 degrees of freedom as
           vibrations may cause significant error
 Vibrational temperatures:    106.05   269.40   327.59   349.65   369.09
          (Kelvin)            389.62   408.76   437.40   453.08   503.22
                              534.14   546.30   553.96   579.07   679.63
                              715.55   735.90   937.90  1169.92  1270.88
                             1336.51  1343.52  1346.71  1378.28  1382.70
                             1446.10  1492.02  1502.80  1609.79  1706.05
                             1723.50  1782.36  1803.24  1832.39  1956.36
                             2006.10  2010.22  2015.69  2032.94  2058.74
                             2122.67  2126.67  2142.51  2149.43  2155.10
                             2160.70  2167.51  2173.20  2188.40  2197.51
                             4362.41  4363.94  4371.66  4377.58  4394.55
                             4450.49  4453.51  4461.80  4465.84  4471.63
                             4477.06  4487.07  4491.57  4495.18  4517.26
                             5501.64

 Zero-point correction=                           0.219825 (Hartree/Particle)
 Thermal correction to Energy=                    0.230366
 Thermal correction to Enthalpy=                  0.231310
 Thermal correction to Gibbs Free Energy=         0.186063
 Sum of electronic and zero-point Energies=           -351.419346
 Sum of electronic and thermal Energies=              -351.408804
 Sum of electronic and thermal Enthalpies=            -351.407860
 Sum of electronic and thermal Free Energies=         -351.453108

                     E (Thermal)             CV                S
                      KCal/Mol        Cal/Mol-Kelvin    Cal/Mol-Kelvin
 Total                  144.557             41.156             95.231
 Electronic               0.000              0.000              0.000
 Translational            0.889              2.981             40.164
 Rotational               0.889              2.981             28.264
 Vibrational            142.779             35.194             26.803
 Vibration     1          0.599              1.966              4.052
 Vibration     2          0.632              1.857              2.255
 Vibration     3          0.651              1.799              1.897
 Vibration     4          0.659              1.774              1.781
 Vibration     5          0.666              1.752              1.685
 Vibration     6          0.674              1.727              1.591
 Vibration     7          0.683              1.703              1.509
 Vibration     8          0.695              1.666              1.395
 Vibration     9          0.702              1.645              1.336
 Vibration    10          0.727              1.576              1.167
 Vibration    11          0.743              1.531              1.075
 Vibration    12          0.750              1.513              1.040
 Vibration    13          0.754              1.502              1.019
 Vibration    14          0.768              1.465              0.954
 Vibration    15          0.829              1.311              0.731
 Vibration    16          0.853              1.256              0.665
 Vibration    17          0.867              1.225              0.630

 Optimization completed.
    -- Stationary point found.
 Normal termination of Gaussian 09 at Fri Aug 26 12:53:06 2022.

 -----------------------------------------------------------------
 #P Geom=AllCheck Guess=TCheck SCRF=Check CCSD(T,E4T,FrzG4)/GTBas1
 -----------------------------------------------------------------

 Structure from the checkpoint file:  "G4.Frag_490.chk"
 --------
 Frag_490
 --------
 Charge =  0 Multiplicity = 1

 SCF Done:  E(RHF) =  -349.244229730     A.U. after   11 cycles
 E2 =    -0.1115633966D+01 EUMP2 =    -0.35035986369669D+03
 CCSD(T)
 CCSD(T)= -0.35048300889D+03
 SDTQ=-350.4813258\MP4SDQ=-350.4457705\CCSD=-350.4470132\CCSD(T)=-350.4
 Normal termination of Gaussian 09 at Fri Aug 26 13:03:43 2022.

 ---------------------------------------------------------
 #P Geom=AllCheck Guess=TCheck SCRF=Check MP4=FrzG4/GTBas2
 ---------------------------------------------------------

 Structure from the checkpoint file:  "G4.Frag_490.chk"
 --------
 Frag_490
 --------
 Charge =  0 Multiplicity = 1

 SCF Done:  E(RHF) =  -349.250643676     A.U. after   11 cycles
 E2 =    -0.1130808354D+01 EUMP2 =    -0.35038145202913D+03
 Normal termination of Gaussian 09 at Fri Aug 26 13:07:35 2022.

 ---------------------------------------------------------
 #P Geom=AllCheck Guess=TCheck SCRF=Check MP4=FrzG4/GTBas3
 ---------------------------------------------------------

 Structure from the checkpoint file:  "G4.Frag_490.chk"
 --------
 Frag_490
 --------
 Charge =  0 Multiplicity = 1

 SCF Done:  E(RHF) =  -349.291453667     A.U. after   10 cycles
 E2 =    -0.1397963245D+01 EUMP2 =    -0.35068941691184D+03
 Normal termination of Gaussian 09 at Fri Aug 26 13:43:42 2022.

 -----------------------------------------------------------
 #P Geom=AllCheck Guess=TCheck SCRF=Check MP2=Full/GTLargeXP
 -----------------------------------------------------------

 Structure from the checkpoint file:  "G4.Frag_490.chk"
 --------
 Frag_490
 --------
 Charge =  0 Multiplicity = 1

 SCF Done:  E(RHF) =  -349.369371795     A.U. after   12 cycles
 E2 =    -0.1833945750D+01 EUMP2 =    -0.35120331754502D+03
 Normal termination of Gaussian 09 at Fri Aug 26 13:52:53 2022.
 SCF Done:  E(RHF) =  -349.397140228     A.U. after    8 cycles
 Normal termination of Gaussian 09 at Fri Aug 26 13:56:15 2022.

                         Standard orientation:
 ---------------------------------------------------------------------
 Center     Atomic      Atomic             Coordinates (Angstroms)
 Number     Number       Type             X           Y           Z
 ---------------------------------------------------------------------
      1          6           0        1.334907   -1.306893   -0.581135
      2          6           0        0.785815   -0.007562    0.043027
      3          6           0        1.282833    0.101823    1.498259
      4          6           0        1.369729    1.177353   -0.757149
      5          6           0       -0.791902    0.000679   -0.039599
      6          6           0       -1.422073   -1.282084    0.519889
      7          6           0       -1.421323    1.211981    0.670323
      8          8           0       -1.196281    0.009780   -1.418954
      9          1           0        1.128410   -2.180441    0.043707
     10          1           0        2.421821   -1.240379   -0.698156
     11          1           0        0.893449   -1.476838   -1.566578
     12          1           0        1.027199    1.065725    1.948116
     13          1           0        0.872785   -0.688417    2.134193
     14          1           0        2.373883    0.007829    1.527505
     15          1           0        1.021667    2.147669   -0.389347
     16          1           0        2.461624    1.177619   -0.676617
     17          1           0        1.128352    1.102441   -1.821989
     18          1           0       -2.511440   -1.192969    0.487551
     19          1           0       -1.143305   -2.148955   -0.081462
     20          1           0       -1.125665   -1.462947    1.556038
     21          1           0       -1.271819    1.175111    1.752628
     22          1           0       -1.013597    2.162002    0.310121
     23          1           0       -2.497698    1.214833    0.476589
     24          1           0       -1.023333    0.887705   -1.772349
 ---------------------------------------------------------------------

 SCF Done:  E(RHF) =  -349.403114653     A.U. after    7 cycles

 The electronic state is 1-A.
 Alpha  occ. eigenvalues --  -20.54509 -11.28419 -11.23573 -11.21394 -11.21313
 Alpha  occ. eigenvalues --  -11.21241 -11.20610 -11.20368  -1.35498  -1.10144
 Alpha  occ. eigenvalues --   -1.01866  -0.94682  -0.93023  -0.91427  -0.82226
 Alpha  occ. eigenvalues --   -0.73022  -0.66633  -0.64111  -0.61310  -0.60262
 Alpha  occ. eigenvalues --   -0.59424  -0.55534  -0.54681  -0.53350  -0.52938
 Alpha  occ. eigenvalues --   -0.52378  -0.51424  -0.50522  -0.49585  -0.48269
 Alpha  occ. eigenvalues --   -0.45849  -0.43869  -0.41325
 Alpha virt. eigenvalues --    0.02899   0.03921   0.03973   0.04325   0.05532
 Alpha virt. eigenvalues --    0.06138   0.06526   0.06810   0.06846   0.08834
 Alpha virt. eigenvalues --    0.08921   0.09054   0.09465   0.09590   0.09850

 Mulliken charges:
               1
     1  C   -0.658985
     2  C    0.442501
     3  C   -0.631675
     4  C   -0.670060
     5  C    0.412329
     6  C   -0.610937
     7  C   -0.639074
     8  O   -0.645977
     9  H    0.167888
    10  H    0.168328
    11  H    0.199916
    12  H    0.168480
    13  H    0.168699
    14  H    0.174880
    15  H    0.172190
    16  H    0.175679
    17  H    0.171816
    18  H    0.171950
    19  H    0.182025
    20  H    0.173721
    21  H    0.182553
    22  H    0.166997
    23  H    0.190482
    24  H    0.366274
 Sum of Mulliken charges =  -0.00000

 Dipole moment (field-independent basis, Debye):
    X=              0.6760    Y=              1.1627    Z=              0.9200  Tot=              1.6295
 Quadrupole moment (field-independent basis, Debye-Ang):
   XX=            -55.3937   YY=            -52.6940   ZZ=            -54.8565
   XY=             -1.1995   XZ=             -1.8756   YZ=             -2.5852

 Normal termination of Gaussian 09 at Fri Aug 26 14:19:17 2022.
