 Gaussian 09, Revision E.01,
 Gaussian 09:  ES64L-G09RevE.01 30-Nov-2015

 -----
 #P G4
 -----

 --------
 Frag_673
 --------
 Symbolic Z-matrix:
 Charge =  0 Multiplicity = 1

 SCF Done:  E(RB3LYP) =  -327.131604305     A.U. after   14 cycles
 SCF Done:  E(RB3LYP) =  -327.150968475     A.U. after   12 cycles
 SCF Done:  E(RB3LYP) =  -327.152418908     A.U. after   11 cycles
 SCF Done:  E(RB3LYP) =  -327.152484305     A.U. after   11 cycles
 SCF Done:  E(RB3LYP) =  -327.152492420     A.U. after    8 cycles
 SCF Done:  E(RB3LYP) =  -327.152492532     A.U. after    7 cycles
 Optimization completed.
    -- Stationary point found.
 Normal termination of Gaussian 09 at Mon Aug 22 00:47:33 2022.

 ----------------------------------------------------------
 #P Geom=AllCheck Guess=TCheck SCRF=Check B3LYP/GTBas3 Freq
 ----------------------------------------------------------

 Structure from the checkpoint file:  "G4.Frag_673.chk"
 --------
 Frag_673
 --------
 Charge =  0 Multiplicity = 1

 SCF Done:  E(RB3LYP) =  -327.152492532     A.U. after    1 cycles

  Exact polarizability:  65.300   3.278  70.634   0.000  -0.000  55.672
 Approx polarizability:  93.183   7.172 107.660  -0.000  -0.000  78.252

                      1                      2                      3
                      A                      A                      A
 Frequencies --     65.3916               191.8046               250.8777
 Red. masses --      3.4162                 1.1639                 1.0348
 Frc consts  --      0.0086                 0.0252                 0.0384
 IR Inten    --      2.5761                 0.2554                 0.0812

                      4                      5                      6
                      A                      A                      A
 Frequencies --    250.9124               278.4918               300.3416
 Red. masses --      2.2669                 2.8781                 1.0525
 Frc consts  --      0.0841                 0.1315                 0.0559
 IR Inten    --     22.9216                 2.5050                 4.1007

                      7                      8                      9
                      A                      A                      A
 Frequencies --    353.0141               367.5006               376.9352
 Red. masses --      2.6288                 1.2226                 2.8245
 Frc consts  --      0.1930                 0.0973                 0.2364
 IR Inten    --      3.5141                43.0037                 0.1003

                     10                     11                     12
                      A                      A                      A
 Frequencies --    377.2097               500.0446               556.3820
 Red. masses --      2.0692                 3.1649                 3.0187
 Frc consts  --      0.1735                 0.4663                 0.5506
 IR Inten    --      9.8143                 0.6274                 1.0940

                     13                     14                     15
                      A                      A                      A
 Frequencies --    722.4933               724.1878               859.0688
 Red. masses --      6.2723                 4.5262                 1.1057
 Frc consts  --      1.9291                 1.3986                 0.4808
 IR Inten    --      1.9957                 2.2669                52.1614

                     16                     17                     18
                      A                      A                      A
 Frequencies --    859.3837               932.5996               945.1557
 Red. masses --      2.5292                 1.7490                 1.6512
 Frc consts  --      1.1005                 0.8962                 0.8691
 IR Inten    --      4.3895                 1.8050                 1.3146

                     19                     20                     21
                      A                      A                      A
 Frequencies --    960.4978              1040.0763              1045.7641
 Red. masses --      1.2015                 1.4796                 1.4157
 Frc consts  --      0.6531                 0.9430                 0.9122
 IR Inten    --      0.3390                12.5992                 0.0109

                     22                     23                     24
                      A                      A                      A
 Frequencies --   1080.6695              1227.7766              1231.2974
 Red. masses --      1.7121                 2.7382                 1.5636
 Frc consts  --      1.1780                 2.4319                 1.3967
 IR Inten    --    140.9433                 3.3779                57.6783

                     25                     26                     27
                      A                      A                      A
 Frequencies --   1238.5870              1259.8072              1377.6006
 Red. masses --      2.7100                 1.7891                 2.1117
 Frc consts  --      2.4495                 1.6730                 2.3612
 IR Inten    --      5.3665                77.7107               165.6138

                     28                     29                     30
                      A                      A                      A
 Frequencies --   1402.7154              1403.5449              1437.1965
 Red. masses --      1.2964                 1.1989                 1.2391
 Frc consts  --      1.5028                 1.3915                 1.5079
 IR Inten    --      7.9280                 2.7521                10.2246

                     31                     32                     33
                      A                      A                      A
 Frequencies --   1478.3211              1482.9041              1488.1824
 Red. masses --      1.0457                 1.0487                 1.0538
 Frc consts  --      1.3464                 1.3587                 1.3750
 IR Inten    --      0.3530                 0.2347                 3.6123

                     34                     35                     36
                      A                      A                      A
 Frequencies --   1505.4647              1505.4951              1519.7053
 Red. masses --      1.0540                 1.0503                 1.0669
 Frc consts  --      1.4074                 1.4026                 1.4517
 IR Inten    --     10.3365                 5.3200                20.1102

                     37                     38                     39
                      A                      A                      A
 Frequencies --   1751.6857              3030.3121              3032.1330
 Red. masses --      7.8683                 1.0353                 1.0347
 Frc consts  --     14.2247                 5.6013                 5.6048
 IR Inten    --    146.6816                16.6355                31.0163

                     40                     41                     42
                      A                      A                      A
 Frequencies --   3038.5304              3093.7284              3098.3436
 Red. masses --      1.0362                 1.1005                 1.1004
 Frc consts  --      5.6364                 6.2061                 6.2237
 IR Inten    --      4.1772                 1.1632                48.4930

                     43                     44                     45
                      A                      A                      A
 Frequencies --   3105.6352              3107.5476              3112.4419
 Red. masses --      1.1012                 1.1026                 1.1021
 Frc consts  --      6.2578                 6.2736                 6.2901
 IR Inten    --     14.4658                 5.5036                27.8749

                     46                     47                     48
                      A                      A                      A
 Frequencies --   3114.2644              3543.6589              3845.1548
 Red. masses --      1.1018                 1.0743                 1.0655
 Frc consts  --      6.2960                 7.9486                 9.2814
 IR Inten    --     38.9711                 2.2623                32.1323

 - Thermochemistry -
 -------------------
 Temperature   298.150 Kelvin.  Pressure   1.00000 Atm.
 Atom     1 has atomic number  6 and mass  12.00000

 Molecular mass:   101.08406 amu.
 Principal axes and moments of inertia in atomic units:
                           1         2         3
     Eigenvalues --   555.45783 774.17958 927.17438
           X            0.99998  -0.00665  -0.00000
           Y            0.00665   0.99998  -0.00000
           Z            0.00000   0.00000   1.00000
 This molecule is an asymmetric top.
 Rotational symmetry number  1.
 Warning -- assumption of classical behavior for rotation
           may cause significant error
 Rotational temperatures (Kelvin)      0.15593     0.11188     0.09342
 Rotational constants (GHZ):           3.24911     2.33117     1.94650
 Zero-point vibrational energy     415527.9 (Joules/Mol)
                                   99.31355 (Kcal/Mol)
 Warning -- explicit consideration of  12 degrees of freedom as
           vibrations may cause significant error
 Vibrational temperatures:     94.08   275.96   360.96   361.01   400.69
          (Kelvin)            432.12   507.91   528.75   542.32   542.72
                              719.45   800.51  1039.51  1041.94  1236.01
                             1236.46  1341.80  1359.87  1381.94  1496.44
                             1504.62  1554.84  1766.49  1771.56  1782.05
                             1812.58  1982.06  2018.19  2019.39  2067.80
                             2126.97  2133.57  2141.16  2166.03  2166.07
                             2186.51  2520.28  4359.94  4362.56  4371.76
                             4451.18  4457.82  4468.31  4471.06  4478.10
                             4480.73  5098.53  5532.31

 Zero-point correction=                           0.158266 (Hartree/Particle)
 Thermal correction to Energy=                    0.166765
 Thermal correction to Enthalpy=                  0.167709
 Thermal correction to Gibbs Free Energy=         0.126175
 Sum of electronic and zero-point Energies=           -326.994226
 Sum of electronic and thermal Energies=              -326.985728
 Sum of electronic and thermal Enthalpies=            -326.984784
 Sum of electronic and thermal Free Energies=         -327.026318

                     E (Thermal)             CV                S
                      KCal/Mol        Cal/Mol-Kelvin    Cal/Mol-Kelvin
 Total                  104.646             31.810             87.417
 Electronic               0.000              0.000              0.000
 Translational            0.889              2.981             39.750
 Rotational               0.889              2.981             27.480
 Vibrational            102.869             25.848             20.186
 Vibration     1          0.597              1.971              4.287
 Vibration     2          0.634              1.851              2.210
 Vibration     3          0.663              1.761              1.724
 Vibration     4          0.663              1.761              1.724
 Vibration     5          0.679              1.713              1.543
 Vibration     6          0.693              1.673              1.415
 Vibration     7          0.729              1.569              1.153
 Vibration     8          0.740              1.539              1.090
 Vibration     9          0.747              1.519              1.051
 Vibration    10          0.748              1.519              1.050
 Vibration    11          0.855              1.250              0.658
 Vibration    12          0.912              1.126              0.531

 Optimization completed.
    -- Stationary point found.
 Normal termination of Gaussian 09 at Mon Aug 22 00:53:02 2022.

 -----------------------------------------------------------------
 #P Geom=AllCheck Guess=TCheck SCRF=Check CCSD(T,E4T,FrzG4)/GTBas1
 -----------------------------------------------------------------

 Structure from the checkpoint file:  "G4.Frag_673.chk"
 --------
 Frag_673
 --------
 Charge =  0 Multiplicity = 1

 SCF Done:  E(RHF) =  -325.038466058     A.U. after   13 cycles
 E2 =    -0.9983618532D+00 EUMP2 =    -0.32603682791110D+03
 CCSD(T)
 CCSD(T)= -0.32613316621D+03
 919\CCSD(T)=-326.1331662\RMSD=4.021e-09\PG=C01 [X(C5H11N1O1)]\\@
 Normal termination of Gaussian 09 at Mon Aug 22 01:09:16 2022.

 ---------------------------------------------------------
 #P Geom=AllCheck Guess=TCheck SCRF=Check MP4=FrzG4/GTBas2
 ---------------------------------------------------------

 Structure from the checkpoint file:  "G4.Frag_673.chk"
 --------
 Frag_673
 --------
 Charge =  0 Multiplicity = 1

 SCF Done:  E(RHF) =  -325.046763792     A.U. after   12 cycles
 E2 =    -0.1012033710D+01 EUMP2 =    -0.32605879750165D+03
 Normal termination of Gaussian 09 at Mon Aug 22 01:30:08 2022.

 ---------------------------------------------------------
 #P Geom=AllCheck Guess=TCheck SCRF=Check MP4=FrzG4/GTBas3
 ---------------------------------------------------------

 Structure from the checkpoint file:  "G4.Frag_673.chk"
 --------
 Frag_673
 --------
 Charge =  0 Multiplicity = 1

 SCF Done:  E(RHF) =  -325.084072060     A.U. after   11 cycles
 E2 =    -0.1232451892D+01 EUMP2 =    -0.32631652395240D+03
 Normal termination of Gaussian 09 at Mon Aug 22 06:47:06 2022.

 -----------------------------------------------------------
 #P Geom=AllCheck Guess=TCheck SCRF=Check MP2=Full/GTLargeXP
 -----------------------------------------------------------

 Structure from the checkpoint file:  "G4.Frag_673.chk"
 --------
 Frag_673
 --------
 Charge =  0 Multiplicity = 1

 SCF Done:  E(RHF) =  -325.162962694     A.U. after   12 cycles
 E2 =    -0.1616551107D+01 EUMP2 =    -0.32677951380105D+03
 Normal termination of Gaussian 09 at Mon Aug 22 07:00:55 2022.
 SCF Done:  E(RHF) =  -325.188573287     A.U. after    8 cycles
 Normal termination of Gaussian 09 at Mon Aug 22 07:11:29 2022.

                         Standard orientation:
 ---------------------------------------------------------------------
 Center     Atomic      Atomic             Coordinates (Angstroms)
 Number     Number       Type             X           Y           Z
 ---------------------------------------------------------------------
      1          6           0       -0.982162   -0.770970    1.265756
      2          6           0       -0.545262    0.002209    0.000000
      3          6           0       -1.230248    1.377684   -0.000027
      4          6           0       -0.982123   -0.771003   -1.265750
      5          6           0        0.987344    0.154905    0.000018
      6          7           0        1.676785    1.216253    0.000007
      7          8           0        1.684743   -1.014804    0.000004
      8          1           0       -0.558823   -1.779917    1.311419
      9          1           0       -0.675003   -0.243172    2.173553
     10          1           0       -2.071484   -0.877205    1.283614
     11          1           0       -0.964551    1.959643   -0.887975
     12          1           0       -0.964567    1.959670    0.887909
     13          1           0       -2.317312    1.251591   -0.000035
     14          1           0       -0.674948   -0.243218   -2.173549
     15          1           0       -2.071443   -0.877253   -1.283631
     16          1           0       -0.558764   -1.779942   -1.311380
     17          1           0        1.079063    2.037457   -0.000005
     18          1           0        1.077097   -1.759939    0.000011
 ---------------------------------------------------------------------

 SCF Done:  E(RHF) =  -325.194054430     A.U. after    8 cycles

 The electronic state is 1-A.
 Alpha  occ. eigenvalues --  -20.58733 -15.52533 -11.33377 -11.27003 -11.23911
 Alpha  occ. eigenvalues --  -11.23910 -11.23331  -1.41551  -1.19194  -1.10957
 Alpha  occ. eigenvalues --   -0.95683  -0.95277  -0.85614  -0.79499  -0.69225
 Alpha  occ. eigenvalues --   -0.64591  -0.62942  -0.62743  -0.59666  -0.58839
 Alpha  occ. eigenvalues --   -0.56236  -0.54997  -0.53716  -0.51868  -0.49059
 Alpha  occ. eigenvalues --   -0.49057  -0.41628  -0.39889
 Alpha virt. eigenvalues --    0.02754   0.03587   0.03821   0.04757   0.06190
 Alpha virt. eigenvalues --    0.06475   0.06904   0.07205   0.07361   0.09196
 Alpha virt. eigenvalues --    0.09365   0.09567   0.10144   0.11985   0.12206

 Mulliken charges:
               1
     1  C   -0.570686
     2  C    0.297839
     3  C   -0.647141
     4  C   -0.570688
     5  C    0.402396
     6  N   -0.663648
     7  O   -0.517764
     8  H    0.158720
     9  H    0.188458
    10  H    0.177392
    11  H    0.185767
    12  H    0.185767
    13  H    0.186099
    14  H    0.188457
    15  H    0.177392
    16  H    0.158720
    17  H    0.282579
    18  H    0.380342
 Sum of Mulliken charges =  -0.00000

 Dipole moment (field-independent basis, Debye):
    X=             -4.7057    Y=             -1.2810    Z=             -0.0000  Tot=              4.8769
 Quadrupole moment (field-independent basis, Debye-Ang):
   XX=            -55.6757   YY=            -41.0075   ZZ=            -44.6883
   XY=             -2.5243   XZ=             -0.0000   YZ=             -0.0001

 Normal termination of Gaussian 09 at Mon Aug 22 12:25:55 2022.
