 Gaussian 09, Revision E.01,
 Gaussian 09:  ES64L-G09RevE.01 30-Nov-2015

 -----
 #P G4
 -----

 --------
 Frag_685
 --------
 Symbolic Z-matrix:
 Charge =  0 Multiplicity = 1

 SCF Done:  E(RB3LYP) =  -283.196586135     A.U. after   15 cycles
 SCF Done:  E(RB3LYP) =  -283.216196716     A.U. after   13 cycles
 SCF Done:  E(RB3LYP) =  -283.217589622     A.U. after   12 cycles
 SCF Done:  E(RB3LYP) =  -283.217649081     A.U. after    9 cycles
 SCF Done:  E(RB3LYP) =  -283.217652771     A.U. after    8 cycles
 Optimization completed.
    -- Stationary point found.
 Normal termination of Gaussian 09 at Mon Aug 22 17:58:59 2022.

 ----------------------------------------------------------
 #P Geom=AllCheck Guess=TCheck SCRF=Check B3LYP/GTBas3 Freq
 ----------------------------------------------------------

 Structure from the checkpoint file:  "G4.Frag_685.chk"
 --------
 Frag_685
 --------
 Charge =  0 Multiplicity = 1

 SCF Done:  E(RB3LYP) =  -283.217652771     A.U. after    1 cycles

  Exact polarizability:  41.181   4.262  39.480  -0.000   0.000  18.811
 Approx polarizability:  63.887   9.823  65.656  -0.000   0.001  28.428

                      1                      2                      3
                      A                      A                      A
 Frequencies --    136.5852               291.2074               481.1071
 Red. masses --      2.6899                 5.1957                 1.2619
 Frc consts  --      0.0296                 0.2596                 0.1721
 IR Inten    --      0.1851                23.1098               134.5847

                      4                      5                      6
                      A                      A                      A
 Frequencies --    490.3337               597.8350               680.5914
 Red. masses --      5.0628                 2.0525                 6.2954
 Frc consts  --      0.7172                 0.4322                 1.7181
 IR Inten    --      0.2466                 1.2067                22.9209

                      7                      8                      9
                      A                      A                      A
 Frequencies --    872.5999               899.0849              1164.1900
 Red. masses --      4.5975                 3.0329                 1.0700
 Frc consts  --      2.0625                 1.4445                 0.8545
 IR Inten    --      0.3126                 0.0000                54.1244

                     10                     11                     12
                      A                      A                      A
 Frequencies --   1170.9154              1244.5163              1315.5840
 Red. masses --      1.7566                 1.3287                 2.0290
 Frc consts  --      1.4190                 1.2125                 2.0690
 IR Inten    --      1.0396               122.3416               440.9785

                     13                     14                     15
                      A                      A                      A
 Frequencies --   1436.6801              1721.1088              1864.1418
 Red. masses --      1.3354                 9.4471                10.3524
 Frc consts  --      1.6240                16.4879                21.1959
 IR Inten    --      1.3217                 9.5258               157.6114

                     16                     17                     18
                      A                      A                      A
 Frequencies --   3073.0574              3379.1443              3789.5711
 Red. masses --      1.0894                 1.0719                 1.0657
 Frc consts  --      6.0613                 7.2114                 9.0171
 IR Inten    --     32.2315                 6.0061                47.4755

 - Thermochemistry -
 -------------------
 Temperature   298.150 Kelvin.  Pressure   1.00000 Atm.
 Atom     1 has atomic number  7 and mass  14.00307

 Molecular mass:    73.01638 amu.
 Principal axes and moments of inertia in atomic units:
                           1         2         3
     Eigenvalues --   163.28264 412.86445 576.14709
           X            0.99938   0.03522  -0.00000
           Y           -0.03522   0.99938  -0.00000
           Z            0.00000   0.00000   1.00000
 This molecule is an asymmetric top.
 Rotational symmetry number  1.
 Rotational temperatures (Kelvin)      0.53045     0.20979     0.15033
 Rotational constants (GHZ):          11.05287     4.37127     3.13243
 Zero-point vibrational energy     147190.0 (Joules/Mol)
                                   35.17926 (Kcal/Mol)
 Warning -- explicit consideration of   5 degrees of freedom as
           vibrations may cause significant error
 Vibrational temperatures:    196.52   418.98   692.20   705.48   860.15
          (Kelvin)            979.22  1255.48  1293.58  1675.01  1684.68
                             1790.58  1892.83  2067.06  2476.29  2682.08
                             4421.44  4861.83  5452.34

 Zero-point correction=                           0.056062 (Hartree/Particle)
 Thermal correction to Energy=                    0.060930
 Thermal correction to Enthalpy=                  0.061874
 Thermal correction to Gibbs Free Energy=         0.028182
 Sum of electronic and zero-point Energies=           -283.161591
 Sum of electronic and thermal Energies=              -283.156722
 Sum of electronic and thermal Enthalpies=            -283.155778
 Sum of electronic and thermal Free Energies=         -283.189470

                     E (Thermal)             CV                S
                      KCal/Mol        Cal/Mol-Kelvin    Cal/Mol-Kelvin
 Total                   38.234             15.995             70.911
 Electronic               0.000              0.000              0.000
 Translational            0.889              2.981             38.781
 Rotational               0.889              2.981             25.166
 Vibrational             36.457             10.033              6.964
 Vibration     1          0.614              1.917              2.851
 Vibration     2          0.687              1.690              1.467
 Vibration     3          0.837              1.292              0.707
 Vibration     4          0.846              1.271              0.683
 Vibration     5          0.956              1.036              0.453

 Optimization completed.
    -- Stationary point found.
 Normal termination of Gaussian 09 at Mon Aug 22 17:59:44 2022.

 -----------------------------------------------------------------
 #P Geom=AllCheck Guess=TCheck SCRF=Check CCSD(T,E4T,FrzG4)/GTBas1
 -----------------------------------------------------------------

 Structure from the checkpoint file:  "G4.Frag_685.chk"
 --------
 Frag_685
 --------
 Charge =  0 Multiplicity = 1

 SCF Done:  E(RHF) =  -281.634288041     A.U. after   13 cycles
 E2 =    -0.7636432176D+00 EUMP2 =    -0.28239793125818D+03
 CCSD(T)
 CCSD(T)= -0.28244628368D+03
 82.4506729\MP4SDQ=-282.4215955\CCSD=-282.4195786\CCSD(T)=-282.4462837\
 Normal termination of Gaussian 09 at Mon Aug 22 18:00:46 2022.

 ---------------------------------------------------------
 #P Geom=AllCheck Guess=TCheck SCRF=Check MP4=FrzG4/GTBas2
 ---------------------------------------------------------

 Structure from the checkpoint file:  "G4.Frag_685.chk"
 --------
 Frag_685
 --------
 Charge =  0 Multiplicity = 1

 SCF Done:  E(RHF) =  -281.643023577     A.U. after   12 cycles
 E2 =    -0.7748579562D+00 EUMP2 =    -0.28241788153309D+03
 Normal termination of Gaussian 09 at Mon Aug 22 18:01:41 2022.

 ---------------------------------------------------------
 #P Geom=AllCheck Guess=TCheck SCRF=Check MP4=FrzG4/GTBas3
 ---------------------------------------------------------

 Structure from the checkpoint file:  "G4.Frag_685.chk"
 --------
 Frag_685
 --------
 Charge =  0 Multiplicity = 1

 SCF Done:  E(RHF) =  -281.669350992     A.U. after   12 cycles
 E2 =    -0.9235608723D+00 EUMP2 =    -0.28259291186388D+03
 Normal termination of Gaussian 09 at Mon Aug 22 18:25:38 2022.

 -----------------------------------------------------------
 #P Geom=AllCheck Guess=TCheck SCRF=Check MP2=Full/GTLargeXP
 -----------------------------------------------------------

 Structure from the checkpoint file:  "G4.Frag_685.chk"
 --------
 Frag_685
 --------
 Charge =  0 Multiplicity = 1

 SCF Done:  E(RHF) =  -281.747448892     A.U. after   13 cycles
 E2 =    -0.1209100969D+01 EUMP2 =    -0.28295654986097D+03
 Normal termination of Gaussian 09 at Mon Aug 22 18:27:03 2022.
 SCF Done:  E(RHF) =  -281.769889890     A.U. after    9 cycles
 Normal termination of Gaussian 09 at Mon Aug 22 18:29:14 2022.

                         Standard orientation:
 ---------------------------------------------------------------------
 Center     Atomic      Atomic             Coordinates (Angstroms)
 Number     Number       Type             X           Y           Z
 ---------------------------------------------------------------------
      1          7           0        1.952206   -0.086105    0.000010
      2          6           0        0.819906   -0.647510   -0.000002
      3          6           0       -0.477052    0.139299   -0.000053
      4          8           0       -0.499464    1.338537    0.000016
      5          8           0       -1.611059   -0.589294    0.000013
      6          1           0        1.805957    0.933046   -0.000009
      7          1           0        0.764077   -1.741558    0.000012
      8          1           0       -1.408410   -1.533442    0.000025
 ---------------------------------------------------------------------

 SCF Done:  E(RHF) =  -281.774570665     A.U. after    8 cycles

 The electronic state is 1-A.
 Alpha  occ. eigenvalues --  -20.63902 -20.56908 -15.60140 -11.41162 -11.31993
 Alpha  occ. eigenvalues --   -1.48804  -1.39286  -1.25020  -0.94124  -0.84653
 Alpha  occ. eigenvalues --   -0.78013  -0.69410  -0.65782  -0.63815  -0.62606
 Alpha  occ. eigenvalues --   -0.51826  -0.50717  -0.47108  -0.45901
 Alpha virt. eigenvalues --    0.02726   0.04878   0.04982   0.05399   0.06052
 Alpha virt. eigenvalues --    0.07493   0.07711   0.07946   0.10572   0.12322
 Alpha virt. eigenvalues --    0.12932   0.13200   0.15638   0.15644   0.16941

 Mulliken charges:
               1
     1  N   -0.489603
     2  C    0.004636
     3  C    0.614445
     4  O   -0.530942
     5  O   -0.488912
     6  H    0.326739
     7  H    0.179880
     8  H    0.383757
 Sum of Mulliken charges =  -0.00000

 Dipole moment (field-independent basis, Debye):
    X=             -0.3286    Y=             -3.4531    Z=             -0.0002  Tot=              3.4687
 Quadrupole moment (field-independent basis, Debye-Ang):
   XX=            -36.0735   YY=            -26.1199   ZZ=            -28.6938
   XY=              5.5197   XZ=             -0.0000   YZ=             -0.0001

 Normal termination of Gaussian 09 at Mon Aug 22 19:26:47 2022.
