 Gaussian 09, Revision E.01,
 Gaussian 09:  ES64L-G09RevE.01 30-Nov-2015

 -----
 #P G4
 -----

 ---------
 Frag_1063
 ---------
 Symbolic Z-matrix:
 Charge =  0 Multiplicity = 1

 SCF Done:  E(RB3LYP) =  -171.908072441     A.U. after   23 cycles
 SCF Done:  E(RB3LYP) =  -171.965362877     A.U. after   15 cycles
 SCF Done:  E(RB3LYP) =  -172.012398360     A.U. after   15 cycles
 SCF Done:  E(RB3LYP) =  -172.020582065     A.U. after   13 cycles
 SCF Done:  E(RB3LYP) =  -172.022328003     A.U. after   12 cycles
 SCF Done:  E(RB3LYP) =  -172.020405735     A.U. after   13 cycles
 SCF Done:  E(RB3LYP) =  -172.022801541     A.U. after   10 cycles
 SCF Done:  E(RB3LYP) =  -172.022694405     A.U. after   12 cycles
 SCF Done:  E(RB3LYP) =  -172.023452713     A.U. after   10 cycles
 SCF Done:  E(RB3LYP) =  -172.023736327     A.U. after   12 cycles
 SCF Done:  E(RB3LYP) =  -172.023864771     A.U. after   10 cycles
 SCF Done:  E(RB3LYP) =  -172.023868128     A.U. after    9 cycles
 SCF Done:  E(RB3LYP) =  -172.023869860     A.U. after    8 cycles
 Optimization completed.
    -- Stationary point found.
 Normal termination of Gaussian 09 at Fri Aug 26 14:27:05 2022.

 ----------------------------------------------------------
 #P Geom=AllCheck Guess=TCheck SCRF=Check B3LYP/GTBas3 Freq
 ----------------------------------------------------------

 Structure from the checkpoint file:  "G4.Frag_1063.chk"
 ---------
 Frag_1063
 ---------
 Charge =  0 Multiplicity = 1

 SCF Done:  E(RB3LYP) =  -172.023869860     A.U. after    1 cycles

  Exact polarizability:  72.294  -6.236  29.535   0.685  -0.103  24.829
 Approx polarizability: 112.915 -13.350  42.670  -0.510  -0.325  34.933

                      1                      2                      3
                      A                      A                      A
 Frequencies --    211.5587               270.0219               328.0421
 Red. masses --      2.8693                 1.9990                 1.2993
 Frc consts  --      0.0757                 0.0859                 0.0824
 IR Inten    --      5.7296                16.1886                38.9070

                      4                      5                      6
                      A                      A                      A
 Frequencies --    600.9758               618.6432               754.0567
 Red. masses --      1.8024                 2.2824                 1.5907
 Frc consts  --      0.3835                 0.5147                 0.5329
 IR Inten    --     19.9282                29.3107               257.0780

                      7                      8                      9
                      A                      A                      A
 Frequencies --    904.8699               909.3391               975.0672
 Red. masses --      1.1548                 1.3162                 2.5183
 Frc consts  --      0.5571                 0.6412                 1.4107
 IR Inten    --     19.8763                36.1617                 2.7127

                     10                     11                     12
                      A                      A                      A
 Frequencies --   1037.0647              1186.7299              1235.3089
 Red. masses --      1.4213                 1.2474                 2.1770
 Frc consts  --      0.9007                 1.0350                 1.9573
 IR Inten    --      0.6794                 0.5084                54.7256

                     13                     14                     15
                      A                      A                      A
 Frequencies --   1418.8155              1515.3782              1649.0462
 Red. masses --      1.2352                 1.6593                 1.1197
 Frc consts  --      1.4650                 2.2450                 1.7940
 IR Inten    --     19.9060                22.8758                34.7116

                     16                     17                     18
                      A                      A                      A
 Frequencies --   2076.0055              3095.9932              3145.8479
 Red. masses --     10.0780                 1.0577                 1.0869
 Frc consts  --     25.5906                 5.9730                 6.3375
 IR Inten    --     18.6512                27.7055                 7.7240

                     19                     20                     21
                      A                      A                      A
 Frequencies --   3157.3979              3525.1262              3623.3593
 Red. masses --      1.1132                 1.0477                 1.0960
 Frc consts  --      6.5388                 7.6710                 8.4777
 IR Inten    --     11.8023                 4.2780                 6.2537

 - Thermochemistry -
 -------------------
 Temperature   298.150 Kelvin.  Pressure   1.00000 Atm.
 Atom     1 has atomic number  6 and mass  12.00000

 Molecular mass:    55.04220 amu.
 Principal axes and moments of inertia in atomic units:
                           1         2         3
     Eigenvalues --    43.12697 422.73115 451.06060
           X            0.99990  -0.00910   0.01121
           Y            0.00882   0.99965   0.02506
           Z           -0.01143  -0.02496   0.99962
 This molecule is an asymmetric top.
 Rotational symmetry number  1.
 Rotational temperatures (Kelvin)      2.00834     0.20489     0.19202
 Rotational constants (GHZ):          41.84716     4.26924     4.00111
 Zero-point vibrational energy     192829.9 (Joules/Mol)
                                   46.08746 (Kcal/Mol)
 Warning -- explicit consideration of   5 degrees of freedom as
           vibrations may cause significant error
 Vibrational temperatures:    304.39   388.50   471.98   864.67   890.09
          (Kelvin)           1084.92  1301.90  1308.33  1402.90  1492.10
                             1707.44  1777.33  2041.36  2180.29  2372.61
                             2986.91  4454.44  4526.17  4542.79  5071.86
                             5213.20

 Zero-point correction=                           0.073445 (Hartree/Particle)
 Thermal correction to Energy=                    0.078292
 Thermal correction to Enthalpy=                  0.079236
 Thermal correction to Gibbs Free Energy=         0.046860
 Sum of electronic and zero-point Energies=           -171.950425
 Sum of electronic and thermal Energies=              -171.945578
 Sum of electronic and thermal Enthalpies=            -171.944633
 Sum of electronic and thermal Free Energies=         -171.977010

                     E (Thermal)             CV                S
                      KCal/Mol        Cal/Mol-Kelvin    Cal/Mol-Kelvin
 Total                   49.129             16.229             68.142
 Electronic               0.000              0.000              0.000
 Translational            0.889              2.981             37.938
 Rotational               0.889              2.981             23.624
 Vibrational             47.352             10.267              6.580
 Vibration     1          0.643              1.823              2.030
 Vibration     2          0.674              1.728              1.596
 Vibration     3          0.711              1.619              1.270
 Vibration     4          0.959              1.030              0.448
 Vibration     5          0.979              0.993              0.419

 Optimization completed.
    -- Stationary point found.
 Normal termination of Gaussian 09 at Fri Aug 26 14:27:18 2022.

 -----------------------------------------------------------------
 #P Geom=AllCheck Guess=TCheck SCRF=Check CCSD(T,E4T,FrzG4)/GTBas1
 -----------------------------------------------------------------

 Structure from the checkpoint file:  "G4.Frag_1063.chk"
 ---------
 Frag_1063
 ---------
 Charge =  0 Multiplicity = 1

 SCF Done:  E(RHF) =  -170.882880296     A.U. after   13 cycles
 E2 =    -0.5374630527D+00 EUMP2 =    -0.17142034334845D+03
 CCSD(T)
 CCSD(T)= -0.17147853444D+03
 57\CCSD=-171.4577605\CCSD(T)=-171.4785344\RMSD=8.760e-09\PG=C01 [X(C3H
 Normal termination of Gaussian 09 at Fri Aug 26 14:27:38 2022.

 ---------------------------------------------------------
 #P Geom=AllCheck Guess=TCheck SCRF=Check MP4=FrzG4/GTBas2
 ---------------------------------------------------------

 Structure from the checkpoint file:  "G4.Frag_1063.chk"
 ---------
 Frag_1063
 ---------
 Charge =  0 Multiplicity = 1

 SCF Done:  E(RHF) =  -170.891141302     A.U. after   14 cycles
 E2 =    -0.5440003244D+00 EUMP2 =    -0.17143514162645D+03
 Normal termination of Gaussian 09 at Fri Aug 26 14:27:45 2022.

 ---------------------------------------------------------
 #P Geom=AllCheck Guess=TCheck SCRF=Check MP4=FrzG4/GTBas3
 ---------------------------------------------------------

 Structure from the checkpoint file:  "G4.Frag_1063.chk"
 ---------
 Frag_1063
 ---------
 Charge =  0 Multiplicity = 1

 SCF Done:  E(RHF) =  -170.908254481     A.U. after   11 cycles
 E2 =    -0.6503147521D+00 EUMP2 =    -0.17155856923353D+03
 Normal termination of Gaussian 09 at Fri Aug 26 14:28:10 2022.

 -----------------------------------------------------------
 #P Geom=AllCheck Guess=TCheck SCRF=Check MP2=Full/GTLargeXP
 -----------------------------------------------------------

 Structure from the checkpoint file:  "G4.Frag_1063.chk"
 ---------
 Frag_1063
 ---------
 Charge =  0 Multiplicity = 1

 SCF Done:  E(RHF) =  -170.951551073     A.U. after   14 cycles
 E2 =    -0.8619600840D+00 EUMP2 =    -0.17181351115725D+03
 Normal termination of Gaussian 09 at Fri Aug 26 14:28:29 2022.
 SCF Done:  E(RHF) =  -170.965021333     A.U. after    9 cycles
 Normal termination of Gaussian 09 at Fri Aug 26 14:28:54 2022.

                         Standard orientation:
 ---------------------------------------------------------------------
 Center     Atomic      Atomic             Coordinates (Angstroms)
 Number     Number       Type             X           Y           Z
 ---------------------------------------------------------------------
      1          6           0        1.917272   -0.181803   -0.007462
      2          6           0        0.659890    0.159693   -0.016703
      3          6           0       -0.600197    0.510387    0.010894
      4          7           0       -1.712916   -0.353306    0.093718
      5          1           0        2.492196   -0.299931   -0.924947
      6          1           0        2.460910   -0.364852    0.918728
      7          1           0       -0.860819    1.566355    0.045250
      8          1           0       -1.478936   -1.312368   -0.130299
      9          1           0       -2.484730   -0.045725   -0.485126
 ---------------------------------------------------------------------

 SCF Done:  E(RHF) =  -170.967745020     A.U. after    8 cycles

 The electronic state is 1-A.
 Alpha  occ. eigenvalues --  -15.56504 -11.27372 -11.23480 -11.23278  -1.20880
 Alpha  occ. eigenvalues --   -1.04657  -0.92872  -0.73992  -0.67912  -0.63932
 Alpha  occ. eigenvalues --   -0.59847  -0.58257  -0.49490  -0.37590  -0.32513
 Alpha virt. eigenvalues --    0.04050   0.04497   0.05253   0.05833   0.07109
 Alpha virt. eigenvalues --    0.07620   0.08068   0.10549   0.10970   0.11242
 Alpha virt. eigenvalues --    0.11349   0.11711   0.14697   0.15542   0.16985

 Mulliken charges:
               1
     1  C   -0.490067
     2  C    0.087540
     3  C   -0.152354
     4  N   -0.657428
     5  H    0.198177
     6  H    0.199986
     7  H    0.207766
     8  H    0.303445
     9  H    0.302935
 Sum of Mulliken charges =  -0.00000

 Dipole moment (field-independent basis, Debye):
    X=             -0.6184    Y=             -0.2068    Z=             -1.1336  Tot=              1.3078
 Quadrupole moment (field-independent basis, Debye-Ang):
   XX=            -21.3383   YY=            -23.7574   ZZ=            -26.5646
   XY=             -1.1911   XZ=              3.1245   YZ=              0.4951

 Normal termination of Gaussian 09 at Fri Aug 26 14:31:20 2022.
