 Gaussian 09, Revision E.01,
 Gaussian 09:  ES64L-G09RevE.01 30-Nov-2015

 -----
 #P G4
 -----

 ---------
 Frag_1155
 ---------
 Symbolic Z-matrix:
 Charge =  0 Multiplicity = 1

 SCF Done:  E(RB3LYP) =  -210.349811709     A.U. after   12 cycles
 SCF Done:  E(RB3LYP) =  -210.356463741     A.U. after   11 cycles
 SCF Done:  E(RB3LYP) =  -210.357542491     A.U. after   11 cycles
 SCF Done:  E(RB3LYP) =  -210.357754773     A.U. after   10 cycles
 SCF Done:  E(RB3LYP) =  -210.357773768     A.U. after    8 cycles
 SCF Done:  E(RB3LYP) =  -210.357779836     A.U. after    8 cycles
 SCF Done:  E(RB3LYP) =  -210.357782580     A.U. after    8 cycles
 Optimization completed.
    -- Stationary point found.
 Normal termination of Gaussian 09 at Tue Aug 23 19:43:20 2022.

 ----------------------------------------------------------
 #P Geom=AllCheck Guess=TCheck SCRF=Check B3LYP/GTBas3 Freq
 ----------------------------------------------------------

 Structure from the checkpoint file:  "G4.Frag_1155.chk"
 ---------
 Frag_1155
 ---------
 Charge =  0 Multiplicity = 1

 SCF Done:  E(RB3LYP) =  -210.357782580     A.U. after    1 cycles

  Exact polarizability:  40.565  -1.841  33.365  -1.045   0.728  33.154
 Approx polarizability:  50.903  -4.132  47.176  -1.879   1.974  47.085

                      1                      2                      3
                      A                      A                      A
 Frequencies --    160.9102               239.6390               293.8132
 Red. masses --      2.1212                 1.2235                 1.5203
 Frc consts  --      0.0324                 0.0414                 0.0773
 IR Inten    --      0.3171                 0.6552                49.1342

                      4                      5                      6
                      A                      A                      A
 Frequencies --    363.1399               505.8043               781.0917
 Red. masses --      1.4536                 2.5176                 1.2342
 Frc consts  --      0.1129                 0.3795                 0.4437
 IR Inten    --     45.6891                 6.1766                 0.4129

                      7                      8                      9
                      A                      A                      A
 Frequencies --    841.1809               918.5386               994.1855
 Red. masses --      3.2838                 2.2877                 1.3364
 Frc consts  --      1.3690                 1.1372                 0.7782
 IR Inten    --     34.7032                28.3907                44.9223

                     10                     11                     12
                      A                      A                      A
 Frequencies --   1065.2691              1121.8693              1207.4973
 Red. masses --      3.5880                 1.8974                 1.6977
 Frc consts  --      2.3990                 1.4070                 1.4584
 IR Inten    --     30.0677                 4.8053                16.2780

                     13                     14                     15
                      A                      A                      A
 Frequencies --   1310.0163              1359.8367              1393.4905
 Red. masses --      1.1367                 1.2651                 1.2263
 Frc consts  --      1.1493                 1.3783                 1.4030
 IR Inten    --     14.4061                 8.4153                26.7531

                     16                     17                     18
                      A                      A                      A
 Frequencies --   1402.3036              1467.8463              1489.1685
 Red. masses --      1.2811                 1.0661                 1.0465
 Frc consts  --      1.4843                 1.3533                 1.3673
 IR Inten    --     16.2004                 1.0738                 3.2639

                     19                     20                     21
                      A                      A                      A
 Frequencies --   1499.6811              1511.4349              3028.3773
 Red. masses --      1.0709                 1.0736                 1.0590
 Frc consts  --      1.4191                 1.4450                 5.7221
 IR Inten    --      2.0050                 6.1462                36.9462

                     22                     23                     24
                      A                      A                      A
 Frequencies --   3031.7495              3070.4342              3097.6872
 Red. masses --      1.0406                 1.1001                 1.1009
 Frc consts  --      5.6354                 6.1106                 6.2239
 IR Inten    --     15.4974                12.9776                44.2453

                     25                     26                     27
                      A                      A                      A
 Frequencies --   3130.0051              3442.6834              3805.6755
 Red. masses --      1.1000                 1.0748                 1.0683
 Frc consts  --      6.3494                 7.5053                 9.1163
 IR Inten    --     19.5412                 1.9830                35.4943

 - Thermochemistry -
 -------------------
 Temperature   298.150 Kelvin.  Pressure   1.00000 Atm.
 Atom     1 has atomic number  6 and mass  12.00000

 Molecular mass:    61.05276 amu.
 Principal axes and moments of inertia in atomic units:
                           1         2         3
     Eigenvalues --   121.41985 335.49642 400.31464
           X            0.99977   0.01987  -0.00744
           Y           -0.01996   0.99972  -0.01260
           Z            0.00719   0.01274   0.99989
 This molecule is an asymmetric top.
 Rotational symmetry number  1.
 Rotational temperatures (Kelvin)      0.71334     0.25817     0.21636
 Rotational constants (GHZ):          14.86364     5.37932     4.50831
 Zero-point vibrational energy     254405.8 (Joules/Mol)
                                   60.80445 (Kcal/Mol)
 Warning -- explicit consideration of   5 degrees of freedom as
           vibrations may cause significant error
 Vibrational temperatures:    231.51   344.79   422.73   522.48   727.74
          (Kelvin)           1123.82  1210.27  1321.57  1430.41  1532.68
                             1614.12  1737.32  1884.82  1956.50  2004.92
                             2017.60  2111.90  2142.58  2157.70  2174.62
                             4357.15  4362.01  4417.66  4456.88  4503.37
                             4953.25  5475.51

 Zero-point correction=                           0.096898 (Hartree/Particle)
 Thermal correction to Energy=                    0.102213
 Thermal correction to Enthalpy=                  0.103157
 Thermal correction to Gibbs Free Energy=         0.069410
 Sum of electronic and zero-point Energies=           -210.260885
 Sum of electronic and thermal Energies=              -210.255569
 Sum of electronic and thermal Enthalpies=            -210.254625
 Sum of electronic and thermal Free Energies=         -210.288372

                     E (Thermal)             CV                S
                      KCal/Mol        Cal/Mol-Kelvin    Cal/Mol-Kelvin
 Total                   64.140             17.789             71.026
 Electronic               0.000              0.000              0.000
 Translational            0.889              2.981             38.247
 Rotational               0.889              2.981             24.304
 Vibrational             62.362             11.827              8.475
 Vibration     1          0.622              1.890              2.539
 Vibration     2          0.657              1.780              1.806
 Vibration     3          0.689              1.685              1.452
 Vibration     4          0.737              1.548              1.109
 Vibration     5          0.861              1.237              0.644

 Optimization completed.
    -- Stationary point found.
 Normal termination of Gaussian 09 at Tue Aug 23 19:44:03 2022.

 -----------------------------------------------------------------
 #P Geom=AllCheck Guess=TCheck SCRF=Check CCSD(T,E4T,FrzG4)/GTBas1
 -----------------------------------------------------------------

 Structure from the checkpoint file:  "G4.Frag_1155.chk"
 ---------
 Frag_1155
 ---------
 Charge =  0 Multiplicity = 1

 SCF Done:  E(RHF) =  -209.046529172     A.U. after   12 cycles
 E2 =    -0.6087798102D+00 EUMP2 =    -0.20965530898260D+03
 CCSD(T)
 CCSD(T)= -0.20971350058D+03
 123045\MP4SDQ=-209.6959025\CCSD=-209.6967513\CCSD(T)=-209.7135006\RMSD
 Normal termination of Gaussian 09 at Tue Aug 23 19:44:41 2022.

 ---------------------------------------------------------
 #P Geom=AllCheck Guess=TCheck SCRF=Check MP4=FrzG4/GTBas2
 ---------------------------------------------------------

 Structure from the checkpoint file:  "G4.Frag_1155.chk"
 ---------
 Frag_1155
 ---------
 Charge =  0 Multiplicity = 1

 SCF Done:  E(RHF) =  -209.053476017     A.U. after   12 cycles
 E2 =    -0.6188158427D+00 EUMP2 =    -0.20967229186002D+03
 Normal termination of Gaussian 09 at Tue Aug 23 19:45:01 2022.

 ---------------------------------------------------------
 #P Geom=AllCheck Guess=TCheck SCRF=Check MP4=FrzG4/GTBas3
 ---------------------------------------------------------

 Structure from the checkpoint file:  "G4.Frag_1155.chk"
 ---------
 Frag_1155
 ---------
 Charge =  0 Multiplicity = 1

 SCF Done:  E(RHF) =  -209.075886920     A.U. after   12 cycles
 E2 =    -0.7579214192D+00 EUMP2 =    -0.20983380833892D+03
 Normal termination of Gaussian 09 at Tue Aug 23 19:54:32 2022.

 -----------------------------------------------------------
 #P Geom=AllCheck Guess=TCheck SCRF=Check MP2=Full/GTLargeXP
 -----------------------------------------------------------

 Structure from the checkpoint file:  "G4.Frag_1155.chk"
 ---------
 Frag_1155
 ---------
 Charge =  0 Multiplicity = 1

 SCF Done:  E(RHF) =  -209.131920705     A.U. after   12 cycles
 E2 =    -0.9883428975D+00 EUMP2 =    -0.21012026360290D+03
 Normal termination of Gaussian 09 at Tue Aug 23 19:55:41 2022.
 SCF Done:  E(RHF) =  -209.149559603     A.U. after    9 cycles
 Normal termination of Gaussian 09 at Tue Aug 23 19:57:35 2022.

                         Standard orientation:
 ---------------------------------------------------------------------
 Center     Atomic      Atomic             Coordinates (Angstroms)
 Number     Number       Type             X           Y           Z
 ---------------------------------------------------------------------
      1          6           0       -1.497705   -0.525735    0.101885
      2          6           0       -0.588854    0.640476   -0.294203
      3          7           0        0.760202    0.619314    0.277692
      4          8           0        1.382351   -0.630414   -0.093120
      5          1           0       -1.044068   -1.476939   -0.186114
      6          1           0       -2.473006   -0.443674   -0.389276
      7          1           0       -1.667544   -0.540630    1.184921
      8          1           0       -1.028002    1.596388    0.019754
      9          1           0       -0.475330    0.682747   -1.383198
     10          1           0        0.669829    0.535099    1.290439
     11          1           0        2.157259   -0.333323   -0.581502
 ---------------------------------------------------------------------

 SCF Done:  E(RHF) =  -209.153346312     A.U. after    8 cycles

 The electronic state is 1-A.
 Alpha  occ. eigenvalues --  -20.57920 -15.60302 -11.25201 -11.21290  -1.39226
 Alpha  occ. eigenvalues --   -1.12652  -0.97777  -0.83373  -0.69008  -0.66092
 Alpha  occ. eigenvalues --   -0.61978  -0.57901  -0.55291  -0.52153  -0.48968
 Alpha  occ. eigenvalues --   -0.47006  -0.39939
 Alpha virt. eigenvalues --    0.04472   0.04638   0.05339   0.05707   0.07855
 Alpha virt. eigenvalues --    0.08045   0.08561   0.09224   0.11066   0.12358
 Alpha virt. eigenvalues --    0.14816   0.15000   0.15566   0.17342   0.19358

 Mulliken charges:
               1
     1  C   -0.507301
     2  C   -0.183008
     3  N   -0.268517
     4  O   -0.546565
     5  H    0.200766
     6  H    0.161884
     7  H    0.146242
     8  H    0.169086
     9  H    0.156110
    10  H    0.275935
    11  H    0.395367
 Sum of Mulliken charges =  -0.00000

 Dipole moment (field-independent basis, Debye):
    X=             -0.4854    Y=              0.5969    Z=              0.0160  Tot=              0.7695
 Quadrupole moment (field-independent basis, Debye-Ang):
   XX=            -23.7444   YY=            -28.6364   ZZ=            -23.6037
   XY=             -0.6096   XZ=             -1.3876   YZ=              0.6561

 Normal termination of Gaussian 09 at Tue Aug 23 20:48:09 2022.
