 Gaussian 09, Revision E.01,
 Gaussian 09:  ES64L-G09RevE.01 30-Nov-2015

 -----
 #P G4
 -----

 --------
 Frag_530
 --------
 Symbolic Z-matrix:
 Charge =  0 Multiplicity = 1

 SCF Done:  E(RB3LYP) =  -338.603742140     A.U. after   13 cycles
 SCF Done:  E(RB3LYP) =  -338.630301499     A.U. after   12 cycles
 SCF Done:  E(RB3LYP) =  -338.633348193     A.U. after   11 cycles
 SCF Done:  E(RB3LYP) =  -338.633693593     A.U. after   10 cycles
 SCF Done:  E(RB3LYP) =  -338.633719164     A.U. after    8 cycles
 SCF Done:  E(RB3LYP) =  -338.633717501     A.U. after    8 cycles
 SCF Done:  E(RB3LYP) =  -338.633720273     A.U. after    7 cycles
 Optimization completed.
    -- Stationary point found.
 Normal termination of Gaussian 09 at Fri Aug 26 12:53:59 2022.

 ----------------------------------------------------------
 #P Geom=AllCheck Guess=TCheck SCRF=Check B3LYP/GTBas3 Freq
 ----------------------------------------------------------

 Structure from the checkpoint file:  "G4.Frag_530.chk"
 --------
 Frag_530
 --------
 Charge =  0 Multiplicity = 1

 SCF Done:  E(RB3LYP) =  -338.633720273     A.U. after    1 cycles

  Exact polarizability:  49.284  -5.332  26.867  -2.966   9.633  43.404
 Approx polarizability:  64.542  -8.389  43.545  -8.797  20.656  78.603

                      1                      2                      3
                     AU                     AU                     AU
 Frequencies --     99.6304               279.3929               334.8876
 Red. masses --     10.0341                 3.9702                 1.1459
 Frc consts  --      0.0587                 0.1826                 0.0757
 IR Inten    --      2.8670                39.5798               271.8710

                      4                      5                      6
                     AG                     AG                     AU
 Frequencies --    348.8808               398.6244               488.0234
 Red. masses --      1.2280                 3.5630                 3.5412
 Frc consts  --      0.0881                 0.3336                 0.4969
 IR Inten    --      0.0000                 0.0000               151.5904

                      7                      8                      9
                     AG                     AU                     AG
 Frequencies --    531.4799               573.7187               673.1268
 Red. masses --      6.7166                 2.9742                 1.0437
 Frc consts  --      1.1178                 0.5768                 0.2786
 IR Inten    --      0.0000                23.1800                 0.0000

                     10                     11                     12
                     AU                     AG                     AG
 Frequencies --    689.4901               767.1180               840.6200
 Red. masses --      1.2000                 3.2368                 9.8728
 Frc consts  --      0.3361                 1.1222                 4.1105
 IR Inten    --      0.4717                 0.0000                 0.0000

                     13                     14                     15
                     AU                     AG                     AU
 Frequencies --   1094.0110              1103.4506              1308.9253
 Red. masses --      1.9094                 1.9792                 2.9800
 Frc consts  --      1.3465                 1.4198                 3.0081
 IR Inten    --      6.6851                 0.0000               123.1391

                     16                     17                     18
                     AG                     AU                     AG
 Frequencies --   1409.6929              1586.5922              1587.2463
 Red. masses --      2.7364                 1.2821                 1.5448
 Frc consts  --      3.2039                 1.9016                 2.2930
 IR Inten    --      0.0000               330.2027                 0.0000

                     19                     20                     21
                     AU                     AG                     AG
 Frequencies --   1793.8531              1818.6259              3589.0082
 Red. masses --     11.5332                 8.2940                 1.0439
 Frc consts  --     21.8663                16.1622                 7.9221
 IR Inten    --    547.0296                 0.0000                 0.0000

                     22                     23                     24
                     AU                     AG                     AU
 Frequencies --   3589.2974              3735.8726              3736.4874
 Red. masses --      1.0443                 1.1049                 1.1053
 Frc consts  --      7.9264                 9.0856                 9.0922
 IR Inten    --    111.5821                 0.0000               163.1985

 - Thermochemistry -
 -------------------
 Temperature   298.150 Kelvin.  Pressure   1.00000 Atm.
 Atom     1 has atomic number  7 and mass  14.00307

 Molecular mass:    88.02728 amu.
 Principal axes and moments of inertia in atomic units:
                           1         2         3
     Eigenvalues --   319.89479 483.10142 802.99621
           X            0.91308  -0.38467   0.13532
           Y            0.03827   0.41123   0.91073
           Z            0.40598   0.82639  -0.39021
 This molecule is an asymmetric top.
 Rotational symmetry number  1.
 Rotational temperatures (Kelvin)      0.27076     0.17929     0.10786
 Rotational constants (GHZ):           5.64167     3.73574     2.24751
 Zero-point vibrational energy     193663.8 (Joules/Mol)
                                   46.28675 (Kcal/Mol)
 Warning -- explicit consideration of   8 degrees of freedom as
           vibrations may cause significant error
 Vibrational temperatures:    143.35   401.98   481.83   501.96   573.53
          (Kelvin)            702.16   764.68   825.45   968.48   992.02
                             1103.71  1209.46  1574.04  1587.62  1883.25
                             2028.23  2282.75  2283.69  2580.95  2616.59
                             5163.78  5164.19  5375.08  5375.97

 Zero-point correction=                           0.073763 (Hartree/Particle)
 Thermal correction to Energy=                    0.079913
 Thermal correction to Enthalpy=                  0.080857
 Thermal correction to Gibbs Free Energy=         0.044241
 Sum of electronic and zero-point Energies=           -338.559958
 Sum of electronic and thermal Energies=              -338.553807
 Sum of electronic and thermal Enthalpies=            -338.552863
 Sum of electronic and thermal Free Energies=         -338.589479

                     E (Thermal)             CV                S
                      KCal/Mol        Cal/Mol-Kelvin    Cal/Mol-Kelvin
 Total                   50.146             21.816             77.065
 Electronic               0.000              0.000              0.000
 Translational            0.889              2.981             39.338
 Rotational               0.889              2.981             26.320
 Vibrational             48.369             15.854             11.406
 Vibration     1          0.604              1.949              3.462
 Vibration     2          0.680              1.712              1.537
 Vibration     3          0.716              1.606              1.236
 Vibration     4          0.726              1.578              1.171
 Vibration     5          0.765              1.473              0.968
 Vibration     6          0.844              1.277              0.689
 Vibration     7          0.886              1.180              0.584
 Vibration     8          0.930              1.088              0.497

 Optimization completed.
    -- Stationary point found.
 Normal termination of Gaussian 09 at Fri Aug 26 12:54:15 2022.

 -----------------------------------------------------------------
 #P Geom=AllCheck Guess=TCheck SCRF=Check CCSD(T,E4T,FrzG4)/GTBas1
 -----------------------------------------------------------------

 Structure from the checkpoint file:  "G4.Frag_530.chk"
 --------
 Frag_530
 --------
 Charge =  0 Multiplicity = 1

 SCF Done:  E(RHF) =  -336.722619753     A.U. after   13 cycles
 E2 =    -0.9270356881D+00 EUMP2 =    -0.33764965544078D+03
 CCSD(T)
 CCSD(T)= -0.33770250009D+03
 6\CCSD(T)=-337.7025001\RMSD=1.968e-09\PG=CI [X(C2H4N2O2)]\\@
 Normal termination of Gaussian 09 at Fri Aug 26 12:55:22 2022.

 ---------------------------------------------------------
 #P Geom=AllCheck Guess=TCheck SCRF=Check MP4=FrzG4/GTBas2
 ---------------------------------------------------------

 Structure from the checkpoint file:  "G4.Frag_530.chk"
 --------
 Frag_530
 --------
 Charge =  0 Multiplicity = 1

 SCF Done:  E(RHF) =  -336.734744744     A.U. after   11 cycles
 E2 =    -0.9414583012D+00 EUMP2 =    -0.33767620304521D+03
 Normal termination of Gaussian 09 at Fri Aug 26 12:56:03 2022.

 ---------------------------------------------------------
 #P Geom=AllCheck Guess=TCheck SCRF=Check MP4=FrzG4/GTBas3
 ---------------------------------------------------------

 Structure from the checkpoint file:  "G4.Frag_530.chk"
 --------
 Frag_530
 --------
 Charge =  0 Multiplicity = 1

 SCF Done:  E(RHF) =  -336.763659167     A.U. after   11 cycles
 E2 =    -0.1121386059D+01 EUMP2 =    -0.33788504522658D+03
 Normal termination of Gaussian 09 at Fri Aug 26 13:00:25 2022.

 -----------------------------------------------------------
 #P Geom=AllCheck Guess=TCheck SCRF=Check MP2=Full/GTLargeXP
 -----------------------------------------------------------

 Structure from the checkpoint file:  "G4.Frag_530.chk"
 --------
 Frag_530
 --------
 Charge =  0 Multiplicity = 1

 SCF Done:  E(RHF) =  -336.857904910     A.U. after   12 cycles
 E2 =    -0.1465598190D+01 EUMP2 =    -0.33832350310018D+03
 Normal termination of Gaussian 09 at Fri Aug 26 13:01:01 2022.
 SCF Done:  E(RHF) =  -336.883951273     A.U. after    8 cycles
 Normal termination of Gaussian 09 at Fri Aug 26 13:01:33 2022.

                         Standard orientation:
 ---------------------------------------------------------------------
 Center     Atomic      Atomic             Coordinates (Angstroms)
 Number     Number       Type             X           Y           Z
 ---------------------------------------------------------------------
      1          7           0       -1.711131    0.383747    0.302242
      2          6           0       -0.658263   -0.073434   -0.399954
      3          8           0       -0.681469   -0.550599   -1.521313
      4          6           0        0.658263    0.073434    0.399954
      5          7           0        1.711131   -0.383747   -0.302242
      6          8           0        0.681469    0.550599    1.521313
      7          1           0       -2.637117    0.354092   -0.088176
      8          1           0       -1.537985    0.752916    1.224545
      9          1           0        1.537985   -0.752916   -1.224545
     10          1           0        2.637117   -0.354092    0.088176
 ---------------------------------------------------------------------

 SCF Done:  E(RHF) =  -336.889415073     A.U. after    7 cycles

 The electronic state is 1-AG.
 Alpha  occ. eigenvalues --  -20.54632 -20.54632 -15.59993 -15.59993 -11.37653
 Alpha  occ. eigenvalues --  -11.37598  -1.42159  -1.39266  -1.23996  -1.22805
 Alpha  occ. eigenvalues --   -0.92483  -0.80433  -0.77632  -0.73290  -0.67275
 Alpha  occ. eigenvalues --   -0.66588  -0.62605  -0.60894  -0.55791  -0.51657
 Alpha  occ. eigenvalues --   -0.44415  -0.42642  -0.42479
 Alpha virt. eigenvalues --    0.03784   0.04080   0.05205   0.06017   0.07337
 Alpha virt. eigenvalues --    0.07492   0.07705   0.09304   0.09718   0.11070
 Alpha virt. eigenvalues --    0.11269   0.11386   0.14206   0.14585   0.15038

 Mulliken charges:
               1
     1  N   -0.700122
     2  C    0.590802
     3  O   -0.639563
     4  C    0.590802
     5  N   -0.700122
     6  O   -0.639563
     7  H    0.370927
     8  H    0.377957
     9  H    0.377957
    10  H    0.370927
 Sum of Mulliken charges =  -0.00000

 Dipole moment (field-independent basis, Debye):
    X=             -0.0000    Y=              0.0000    Z=             -0.0000  Tot=              0.0000
 Quadrupole moment (field-independent basis, Debye-Ang):
   XX=            -22.5945   YY=            -35.9476   ZZ=            -42.4581
   XY=             -4.4611   XZ=             -5.8515   YZ=             -2.0066

 Normal termination of Gaussian 09 at Fri Aug 26 13:04:04 2022.
