 Gaussian 09, Revision E.01,
 Gaussian 09:  ES64L-G09RevE.01 30-Nov-2015

 -----
 #P G4
 -----

 --------
 Frag_837
 --------
 Symbolic Z-matrix:
 Charge =  0 Multiplicity = 1

 SCF Done:  E(RB3LYP) =  -188.102508185     A.U. after   13 cycles
 SCF Done:  E(RB3LYP) =  -188.105144365     A.U. after   12 cycles
 SCF Done:  E(RB3LYP) =  -188.103539292     A.U. after   14 cycles
 SCF Done:  E(RB3LYP) =  -188.105253891     A.U. after   10 cycles
 SCF Done:  E(RB3LYP) =  -188.105310788     A.U. after   10 cycles
 SCF Done:  E(RB3LYP) =  -188.105298969     A.U. after   11 cycles
 SCF Done:  E(RB3LYP) =  -188.105367776     A.U. after   10 cycles
 SCF Done:  E(RB3LYP) =  -188.105369834     A.U. after    8 cycles
 SCF Done:  E(RB3LYP) =  -188.105370980     A.U. after    8 cycles
 SCF Done:  E(RB3LYP) =  -188.105371281     A.U. after    7 cycles
 Optimization completed.
    -- Stationary point found.
 Normal termination of Gaussian 09 at Fri Aug 19 18:33:47 2022.

 ----------------------------------------------------------
 #P Geom=AllCheck Guess=TCheck SCRF=Check B3LYP/GTBas3 Freq
 ----------------------------------------------------------

 Structure from the checkpoint file:  "G4.Frag_837.chk"
 --------
 Frag_837
 --------
 Charge =  0 Multiplicity = 1

 SCF Done:  E(RB3LYP) =  -188.105371281     A.U. after    1 cycles

  Exact polarizability:  42.821  -2.877  28.424   0.099  -0.750  24.196
 Approx polarizability:  65.397  -8.656  41.203   0.518  -1.072  34.819

                      1                      2                      3
                      A                      A                      A
 Frequencies --    208.4071               251.7247               392.3233
 Red. masses --      1.7531                 1.9921                 3.3076
 Frc consts  --      0.0449                 0.0744                 0.2999
 IR Inten    --     14.8798                24.9755                 6.1994

                      4                      5                      6
                      A                      A                      A
 Frequencies --    573.5836               836.0862               875.4064
 Red. masses --      6.4611                 1.3388                 2.9745
 Frc consts  --      1.2524                 0.5514                 1.3430
 IR Inten    --      6.4656               125.7665                10.8934

                      7                      8                      9
                      A                      A                      A
 Frequencies --   1006.3342              1090.2076              1190.0982
 Red. masses --      2.0465                 2.3159                 1.1838
 Frc consts  --      1.2211                 1.6218                 0.9878
 IR Inten    --     21.4617                 8.3735                 0.2153

                     10                     11                     12
                      A                      A                      A
 Frequencies --   1308.0826              1421.2918              1489.0581
 Red. masses --      1.1895                 1.3969                 1.0760
 Frc consts  --      1.1991                 1.6626                 1.4056
 IR Inten    --      7.7655                15.1983                 2.2207

                     13                     14                     15
                      A                      A                      A
 Frequencies --   1659.8682              2367.9000              2965.5592
 Red. masses --      1.0852                12.6120                 1.0717
 Frc consts  --      1.7616                41.6641                 5.5529
 IR Inten    --     21.1634                 2.0133                40.4110

                     16                     17                     18
                      A                      A                      A
 Frequencies --   3063.8419              3502.1993              3585.3077
 Red. masses --      1.0869                 1.0491                 1.0934
 Frc consts  --      6.0115                 7.5811                 8.2810
 IR Inten    --      6.9602                 1.0339                 3.3963

 - Thermochemistry -
 -------------------
 Temperature   298.150 Kelvin.  Pressure   1.00000 Atm.
 Atom     1 has atomic number  7 and mass  14.00307

 Molecular mass:    56.03745 amu.
 Principal axes and moments of inertia in atomic units:
                           1         2         3
     Eigenvalues --    56.03347 378.93148 419.03188
           X            0.99997   0.00115  -0.00813
           Y           -0.00158   0.99862  -0.05254
           Z            0.00806   0.05255   0.99859
 This molecule is an asymmetric top.
 Rotational symmetry number  1.
 Rotational temperatures (Kelvin)      1.54575     0.22857     0.20670
 Rotational constants (GHZ):          32.20827     4.76271     4.30693
 Zero-point vibrational energy     166204.8 (Joules/Mol)
                                   39.72391 (Kcal/Mol)
 Warning -- explicit consideration of   4 degrees of freedom as
           vibrations may cause significant error
 Vibrational temperatures:    299.85   362.18   564.46   825.26  1202.94
          (Kelvin)           1259.51  1447.89  1568.56  1712.28  1882.04
                             2044.92  2142.42  2388.18  3406.88  4266.77
                             4408.18  5038.88  5158.45

 Zero-point correction=                           0.063304 (Hartree/Particle)
 Thermal correction to Energy=                    0.067893
 Thermal correction to Enthalpy=                  0.068837
 Thermal correction to Gibbs Free Energy=         0.036741
 Sum of electronic and zero-point Energies=           -188.042067
 Sum of electronic and thermal Energies=              -188.037478
 Sum of electronic and thermal Enthalpies=            -188.036534
 Sum of electronic and thermal Free Energies=         -188.068631

                     E (Thermal)             CV                S
                      KCal/Mol        Cal/Mol-Kelvin    Cal/Mol-Kelvin
 Total                   42.603             14.488             67.553
 Electronic               0.000              0.000              0.000
 Translational            0.889              2.981             37.992
 Rotational               0.889              2.981             23.702
 Vibrational             40.826              8.527              5.859
 Vibration     1          0.642              1.828              2.058
 Vibration     2          0.664              1.760              1.718
 Vibration     3          0.760              1.487              0.991
 Vibration     4          0.930              1.088              0.497

 Optimization completed.
    -- Stationary point found.
 Normal termination of Gaussian 09 at Fri Aug 19 18:34:13 2022.

 -----------------------------------------------------------------
 #P Geom=AllCheck Guess=TCheck SCRF=Check CCSD(T,E4T,FrzG4)/GTBas1
 -----------------------------------------------------------------

 Structure from the checkpoint file:  "G4.Frag_837.chk"
 --------
 Frag_837
 --------
 Charge =  0 Multiplicity = 1

 SCF Done:  E(RHF) =  -186.939081370     A.U. after   13 cycles
 E2 =    -0.5722818492D+00 EUMP2 =    -0.18751136321933D+03
 CCSD(T)
 CCSD(T)= -0.18755788869D+03
 7.5600382\MP4SDQ=-187.5378889\CCSD=-187.537385\CCSD(T)=-187.5578887\RM
 Normal termination of Gaussian 09 at Fri Aug 19 18:34:31 2022.

 ---------------------------------------------------------
 #P Geom=AllCheck Guess=TCheck SCRF=Check MP4=FrzG4/GTBas2
 ---------------------------------------------------------

 Structure from the checkpoint file:  "G4.Frag_837.chk"
 --------
 Frag_837
 --------
 Charge =  0 Multiplicity = 1

 SCF Done:  E(RHF) =  -186.946107359     A.U. after   13 cycles
 E2 =    -0.5793082909D+00 EUMP2 =    -0.18752541564978D+03
 Normal termination of Gaussian 09 at Fri Aug 19 18:34:40 2022.

 ---------------------------------------------------------
 #P Geom=AllCheck Guess=TCheck SCRF=Check MP4=FrzG4/GTBas3
 ---------------------------------------------------------

 Structure from the checkpoint file:  "G4.Frag_837.chk"
 --------
 Frag_837
 --------
 Charge =  0 Multiplicity = 1

 SCF Done:  E(RHF) =  -186.962736326     A.U. after   12 cycles
 E2 =    -0.6844633350D+00 EUMP2 =    -0.18764719966069D+03
 Normal termination of Gaussian 09 at Fri Aug 19 18:36:33 2022.

 -----------------------------------------------------------
 #P Geom=AllCheck Guess=TCheck SCRF=Check MP2=Full/GTLargeXP
 -----------------------------------------------------------

 Structure from the checkpoint file:  "G4.Frag_837.chk"
 --------
 Frag_837
 --------
 Charge =  0 Multiplicity = 1

 SCF Done:  E(RHF) =  -187.010767939     A.U. after   12 cycles
 E2 =    -0.9005224126D+00 EUMP2 =    -0.18791129035190D+03
 Normal termination of Gaussian 09 at Fri Aug 19 18:37:09 2022.
 SCF Done:  E(RHF) =  -187.024945392     A.U. after    9 cycles
 Normal termination of Gaussian 09 at Fri Aug 19 18:38:21 2022.

                         Standard orientation:
 ---------------------------------------------------------------------
 Center     Atomic      Atomic             Coordinates (Angstroms)
 Number     Number       Type             X           Y           Z
 ---------------------------------------------------------------------
      1          7           0        1.938691   -0.291882   -0.021204
      2          6           0        0.851876    0.098694   -0.007250
      3          6           0       -0.525429    0.602753    0.045693
      4          7           0       -1.484830   -0.489976   -0.118036
      5          1           0       -0.625242    1.185708    0.976621
      6          1           0       -0.656797    1.309108   -0.782115
      7          1           0       -1.428621   -1.122697    0.673958
      8          1           0       -2.425054   -0.107795   -0.124443
 ---------------------------------------------------------------------

 SCF Done:  E(RHF) =  -187.027791878     A.U. after    8 cycles

 The electronic state is 1-A.
 Alpha  occ. eigenvalues --  -15.57873 -15.57176 -11.31836 -11.27468  -1.23549
 Alpha  occ. eigenvalues --   -1.20373  -0.98448  -0.73438  -0.67356  -0.65112
 Alpha  occ. eigenvalues --   -0.60029  -0.55557  -0.47090  -0.46812  -0.43284
 Alpha virt. eigenvalues --    0.02727   0.04627   0.05134   0.05494   0.07635
 Alpha virt. eigenvalues --    0.07981   0.08097   0.09865   0.10033   0.12633
 Alpha virt. eigenvalues --    0.13681   0.14885   0.15037   0.17068   0.17613

 Mulliken charges:
               1
     1  N   -0.440908
     2  C    0.310816
     3  C   -0.229570
     4  N   -0.639428
     5  H    0.189458
     6  H    0.209091
     7  H    0.301660
     8  H    0.298881
 Sum of Mulliken charges =  -0.00000

 Dipole moment (field-independent basis, Debye):
    X=             -4.3441    Y=              1.9177    Z=              1.2732  Tot=              4.9162
 Quadrupole moment (field-independent basis, Debye-Ang):
   XX=            -28.3930   YY=            -23.4765   ZZ=            -24.1934
   XY=              0.3365   XZ=             -1.5676   YZ=             -1.9838

 Normal termination of Gaussian 09 at Fri Aug 19 19:11:25 2022.
