 Gaussian 09, Revision E.01,
 Gaussian 09:  ES64L-G09RevE.01 30-Nov-2015

 -----
 #P G4
 -----

 --------
 Frag_568
 --------
 Symbolic Z-matrix:
 Charge =  0 Multiplicity = 1

 SCF Done:  E(RB3LYP) =  -264.513153361     A.U. after   14 cycles
 SCF Done:  E(RB3LYP) =  -264.527894534     A.U. after   13 cycles
 SCF Done:  E(RB3LYP) =  -264.528737072     A.U. after   11 cycles
 SCF Done:  E(RB3LYP) =  -264.529101672     A.U. after   10 cycles
 SCF Done:  E(RB3LYP) =  -264.529321724     A.U. after   11 cycles
 SCF Done:  E(RB3LYP) =  -264.529398875     A.U. after   10 cycles
 SCF Done:  E(RB3LYP) =  -264.530014603     A.U. after   11 cycles
 SCF Done:  E(RB3LYP) =  -264.533743983     A.U. after   13 cycles
 SCF Done:  E(RB3LYP) =  -264.534698173     A.U. after   11 cycles
 SCF Done:  E(RB3LYP) =  -264.534780460     A.U. after   10 cycles
 SCF Done:  E(RB3LYP) =  -264.534804814     A.U. after    7 cycles
 SCF Done:  E(RB3LYP) =  -264.534805215     A.U. after    7 cycles
 SCF Done:  E(RB3LYP) =  -264.534805389     A.U. after    7 cycles
 Optimization completed.
    -- Stationary point found.
 Normal termination of Gaussian 09 at Fri Aug 26 09:32:08 2022.

 ----------------------------------------------------------
 #P Geom=AllCheck Guess=TCheck SCRF=Check B3LYP/GTBas3 Freq
 ----------------------------------------------------------

 Structure from the checkpoint file:  "G4.Frag_568.chk"
 --------
 Frag_568
 --------
 Charge =  0 Multiplicity = 1

 SCF Done:  E(RB3LYP) =  -264.534805389     A.U. after    1 cycles

  Exact polarizability:  60.451   3.400  39.563   0.905  -0.299  27.089
 Approx polarizability:  84.070  10.839  60.915  -0.088  -0.693  39.964

                      1                      2                      3
                      A                      A                      A
 Frequencies --    191.5613               271.7327               293.8729
 Red. masses --      1.1513                 1.7200                 2.5665
 Frc consts  --      0.0249                 0.0748                 0.1306
 IR Inten    --      0.6137                71.4663                14.3728

                      4                      5                      6
                      A                      A                      A
 Frequencies --    300.1533               379.7711               399.4646
 Red. masses --      1.6459                 1.1509                 2.6483
 Frc consts  --      0.0874                 0.0978                 0.2490
 IR Inten    --     38.1764                25.3838                 5.6032

                      7                      8                      9
                      A                      A                      A
 Frequencies --    614.0130               630.9364               812.4873
 Red. masses --      4.0974                 3.9545                 1.8463
 Frc consts  --      0.9101                 0.9275                 0.7181
 IR Inten    --      8.5771                 2.0468               222.2052

                     10                     11                     12
                      A                      A                      A
 Frequencies --    872.6960              1000.7855              1062.3300
 Red. masses --      4.7748                 1.4548                 1.4872
 Frc consts  --      2.1426                 0.8585                 0.9888
 IR Inten    --     33.8382                12.1631                 1.8832

                     13                     14                     15
                      A                      A                      A
 Frequencies --   1130.8068              1220.0432              1290.6525
 Red. masses --      2.1234                 1.6161                 2.1958
 Frc consts  --      1.5997                 1.4173                 2.1551
 IR Inten    --     73.6171                16.2770               138.1230

                     16                     17                     18
                      A                      A                      A
 Frequencies --   1373.9488              1416.9562              1480.0493
 Red. masses --      1.3619                 1.5592                 1.0435
 Frc consts  --      1.5148                 1.8444                 1.3468
 IR Inten    --     43.7291                41.9470                 6.3157

                     19                     20                     21
                      A                      A                      A
 Frequencies --   1484.3023              1652.8469              1783.9248
 Red. masses --      1.0573                 1.1109                 6.6232
 Frc consts  --      1.3724                 1.7881                12.4185
 IR Inten    --      1.6839                17.2351                41.5006

                     22                     23                     24
                      A                      A                      A
 Frequencies --   3015.6937              3062.4810              3156.7709
 Red. masses --      1.0409                 1.0996                 1.0956
 Frc consts  --      5.5775                 6.0762                 6.4327
 IR Inten    --     34.5744                21.0341                 4.5459

                     25                     26                     27
                      A                      A                      A
 Frequencies --   3460.2131              3595.7878              3842.7205
 Red. masses --      1.0498                 1.0928                 1.0665
 Frc consts  --      7.4059                 8.3250                 9.2790
 IR Inten    --      1.4800                 6.0177                54.6083

 - Thermochemistry -
 -------------------
 Temperature   298.150 Kelvin.  Pressure   1.00000 Atm.
 Atom     1 has atomic number  6 and mass  12.00000

 Molecular mass:    74.04801 amu.
 Principal axes and moments of inertia in atomic units:
                           1         2         3
     Eigenvalues --   181.45042 440.08677 607.72693
           X            0.99963  -0.02457   0.01145
           Y            0.02459   0.99970  -0.00140
           Z           -0.01141   0.00168   0.99993
 This molecule is an asymmetric top.
 Rotational symmetry number  1.
 Rotational temperatures (Kelvin)      0.47734     0.19681     0.14252
 Rotational constants (GHZ):           9.94619     4.10088     2.96966
 Zero-point vibrational energy     238038.9 (Joules/Mol)
                                   56.89267 (Kcal/Mol)
 Warning -- explicit consideration of   7 degrees of freedom as
           vibrations may cause significant error
 Vibrational temperatures:    275.61   390.96   422.82   431.85   546.41
          (Kelvin)            574.74   883.43   907.78  1168.99  1255.61
                             1439.91  1528.45  1626.98  1755.37  1856.96
                             1976.80  2038.68  2129.46  2135.58  2378.08
                             2566.67  4338.91  4406.22  4541.88  4978.47
                             5173.53  5528.81

 Zero-point correction=                           0.090664 (Hartree/Particle)
 Thermal correction to Energy=                    0.096590
 Thermal correction to Enthalpy=                  0.097535
 Thermal correction to Gibbs Free Energy=         0.062176
 Sum of electronic and zero-point Energies=           -264.444141
 Sum of electronic and thermal Energies=              -264.438215
 Sum of electronic and thermal Enthalpies=            -264.437271
 Sum of electronic and thermal Free Energies=         -264.472629

                     E (Thermal)             CV                S
                      KCal/Mol        Cal/Mol-Kelvin    Cal/Mol-Kelvin
 Total                   60.611             20.755             74.418
 Electronic               0.000              0.000              0.000
 Translational            0.889              2.981             38.822
 Rotational               0.889              2.981             25.387
 Vibrational             58.834             14.793             10.208
 Vibration     1          0.634              1.852              2.213
 Vibration     2          0.675              1.725              1.585
 Vibration     3          0.689              1.685              1.452
 Vibration     4          0.693              1.673              1.416
 Vibration     5          0.750              1.513              1.040
 Vibration     6          0.766              1.471              0.965
 Vibration     7          0.973              1.002              0.426

 Optimization completed.
    -- Stationary point found.
 Normal termination of Gaussian 09 at Fri Aug 26 09:32:27 2022.

 -----------------------------------------------------------------
 #P Geom=AllCheck Guess=TCheck SCRF=Check CCSD(T,E4T,FrzG4)/GTBas1
 -----------------------------------------------------------------

 Structure from the checkpoint file:  "G4.Frag_568.chk"
 --------
 Frag_568
 --------
 Charge =  0 Multiplicity = 1

 SCF Done:  E(RHF) =  -262.936107530     A.U. after   13 cycles
 E2 =    -0.7634380574D+00 EUMP2 =    -0.26369954558739D+03
 CCSD(T)
 CCSD(T)= -0.26376041745D+03
 611935\MP4SDQ=-263.735946\CCSD=-263.7359221\CCSD(T)=-263.7604174\RMSD=
 Normal termination of Gaussian 09 at Fri Aug 26 09:33:21 2022.

 ---------------------------------------------------------
 #P Geom=AllCheck Guess=TCheck SCRF=Check MP4=FrzG4/GTBas2
 ---------------------------------------------------------

 Structure from the checkpoint file:  "G4.Frag_568.chk"
 --------
 Frag_568
 --------
 Charge =  0 Multiplicity = 1

 SCF Done:  E(RHF) =  -262.946426244     A.U. after   13 cycles
 E2 =    -0.7760245742D+00 EUMP2 =    -0.26372245081812D+03
 Normal termination of Gaussian 09 at Fri Aug 26 09:33:36 2022.

 ---------------------------------------------------------
 #P Geom=AllCheck Guess=TCheck SCRF=Check MP4=FrzG4/GTBas3
 ---------------------------------------------------------

 Structure from the checkpoint file:  "G4.Frag_568.chk"
 --------
 Frag_568
 --------
 Charge =  0 Multiplicity = 1

 SCF Done:  E(RHF) =  -262.973918070     A.U. after   11 cycles
 E2 =    -0.9312682849D+00 EUMP2 =    -0.26390518635534D+03
 Normal termination of Gaussian 09 at Fri Aug 26 09:34:52 2022.

 -----------------------------------------------------------
 #P Geom=AllCheck Guess=TCheck SCRF=Check MP2=Full/GTLargeXP
 -----------------------------------------------------------

 Structure from the checkpoint file:  "G4.Frag_568.chk"
 --------
 Frag_568
 --------
 Charge =  0 Multiplicity = 1

 SCF Done:  E(RHF) =  -263.045648066     A.U. after   12 cycles
 E2 =    -0.1216049334D+01 EUMP2 =    -0.26426169739958D+03
 Normal termination of Gaussian 09 at Fri Aug 26 09:35:39 2022.
 SCF Done:  E(RHF) =  -263.066945464     A.U. after    9 cycles
 Normal termination of Gaussian 09 at Fri Aug 26 09:36:33 2022.

                         Standard orientation:
 ---------------------------------------------------------------------
 Center     Atomic      Atomic             Coordinates (Angstroms)
 Number     Number       Type             X           Y           Z
 ---------------------------------------------------------------------
      1          6           0        1.759035   -0.599938   -0.011396
      2          6           0        0.375140   -0.031778    0.002857
      3          8           0        0.252568    1.337716    0.013288
      4          7           0       -0.653628   -0.776189    0.006062
      5          7           0       -1.892886   -0.145285    0.097412
      6          1           0        2.318183   -0.263732   -0.894401
      7          1           0        2.325119   -0.287955    0.875756
      8          1           0        1.703890   -1.688130   -0.025893
      9          1           0        1.123977    1.739243   -0.049266
     10          1           0       -1.896776    0.779326   -0.328886
     11          1           0       -2.574385   -0.739862   -0.356698
 ---------------------------------------------------------------------

 SCF Done:  E(RHF) =  -263.071465638     A.U. after    8 cycles

 The electronic state is 1-A.
 Alpha  occ. eigenvalues --  -20.59989 -15.57124 -15.56648 -11.32496 -11.24269
 Alpha  occ. eigenvalues --   -1.42284  -1.27888  -1.08389  -0.97929  -0.80303
 Alpha  occ. eigenvalues --   -0.70914  -0.69942  -0.63771  -0.63170  -0.56627
 Alpha  occ. eigenvalues --   -0.55567  -0.53784  -0.50232  -0.43825  -0.33536
 Alpha virt. eigenvalues --    0.03357   0.04614   0.05388   0.05820   0.07365
 Alpha virt. eigenvalues --    0.07719   0.08092   0.10808   0.11137   0.11608
 Alpha virt. eigenvalues --    0.13037   0.13608   0.14992   0.15169   0.16350

 Mulliken charges:
               1
     1  C   -0.537571
     2  C    0.404152
     3  O   -0.571586
     4  N   -0.321630
     5  N   -0.578395
     6  H    0.187120
     7  H    0.194358
     8  H    0.219795
     9  H    0.387666
    10  H    0.306123
    11  H    0.309968
 Sum of Mulliken charges =  -0.00000

 Dipole moment (field-independent basis, Debye):
    X=              2.4739    Y=              1.3436    Z=             -1.3898  Tot=              3.1396
 Quadrupole moment (field-independent basis, Debye-Ang):
   XX=            -24.3738   YY=            -30.6897   ZZ=            -32.0830
   XY=              1.7077   XZ=              3.2452   YZ=             -0.2604

 Normal termination of Gaussian 09 at Fri Aug 26 09:41:46 2022.
