 Gaussian 09, Revision E.01,
 Gaussian 09:  ES64L-G09RevE.01 30-Nov-2015

 -----
 #P G4
 -----

 --------
 Frag_691
 --------
 Symbolic Z-matrix:
 Charge =  0 Multiplicity = 1

 SCF Done:  E(RB3LYP) =  -287.816880418     A.U. after   14 cycles
 SCF Done:  E(RB3LYP) =  -287.835362860     A.U. after   12 cycles
 SCF Done:  E(RB3LYP) =  -287.836518943     A.U. after   11 cycles
 SCF Done:  E(RB3LYP) =  -287.836564017     A.U. after   10 cycles
 SCF Done:  E(RB3LYP) =  -287.836566753     A.U. after    8 cycles
 Optimization completed.
    -- Stationary point found.
 Normal termination of Gaussian 09 at Wed Aug 24 20:50:55 2022.

 ----------------------------------------------------------
 #P Geom=AllCheck Guess=TCheck SCRF=Check B3LYP/GTBas3 Freq
 ----------------------------------------------------------

 Structure from the checkpoint file:  "G4.Frag_691.chk"
 --------
 Frag_691
 --------
 Charge =  0 Multiplicity = 1

 SCF Done:  E(RB3LYP) =  -287.836566753     A.U. after    1 cycles

  Exact polarizability:  59.487  -0.001  46.827  -5.386   0.002  54.705
 Approx polarizability:  83.496  -0.002  62.528 -10.494   0.005  85.802

                      1                      2                      3
                      A                      A                      A
 Frequencies --     58.9617               208.9999               240.5103
 Red. masses --      3.1805                 1.2604                 1.0520
 Frc consts  --      0.0065                 0.0324                 0.0359
 IR Inten    --      2.8880                 2.1005                 0.4068

                      4                      5                      6
                      A                      A                      A
 Frequencies --    241.6414               288.2398               334.2387
 Red. masses --      2.2372                 2.9754                 2.4610
 Frc consts  --      0.0770                 0.1456                 0.1620
 IR Inten    --     14.4541                 2.7212                 2.7711

                      7                      8                      9
                      A                      A                      A
 Frequencies --    382.3430               514.7447               592.5883
 Red. masses --      1.1423                 3.2330                 2.7766
 Frc consts  --      0.0984                 0.5047                 0.5745
 IR Inten    --     63.8092                 3.3308                 0.7763

                     10                     11                     12
                      A                      A                      A
 Frequencies --    720.0830               782.0232               865.8592
 Red. masses --      5.9844                 3.6108                 1.0985
 Frc consts  --      1.8283                 1.3010                 0.4852
 IR Inten    --      1.9548                 0.7024                58.6234

                     13                     14                     15
                      A                      A                      A
 Frequencies --    914.8381               933.1454               968.0240
 Red. masses --      2.4840                 1.1899                 1.4688
 Frc consts  --      1.2249                 0.6105                 0.8110
 IR Inten    --      9.4694                 1.2486                 0.1393

                     16                     17                     18
                      A                      A                      A
 Frequencies --   1059.8010              1118.6282              1128.7114
 Red. masses --      1.8621                 2.3970                 1.3194
 Frc consts  --      1.2323                 1.7672                 0.9904
 IR Inten    --     86.2471                 0.5890               102.8625

                     19                     20                     21
                      A                      A                      A
 Frequencies --   1190.1487              1256.7471              1336.7460
 Red. masses --      1.8943                 1.3356                 1.3393
 Frc consts  --      1.5809                 1.2428                 1.4100
 IR Inten    --      6.9921                84.3291                 2.3333

                     22                     23                     24
                      A                      A                      A
 Frequencies --   1342.2704              1396.5121              1403.1076
 Red. masses --      1.5060                 1.8456                 1.2067
 Frc consts  --      1.5987                 2.1207                 1.3997
 IR Inten    --     32.7848               116.1714                 1.7156

                     25                     26                     27
                      A                      A                      A
 Frequencies --   1431.4150              1481.7397              1493.6409
 Red. masses --      1.3532                 1.0469                 1.0451
 Frc consts  --      1.6336                 1.3542                 1.3738
 IR Inten    --     24.1512                 0.5611                 2.1418

                     28                     29                     30
                      A                      A                      A
 Frequencies --   1502.7251              1508.0046              1760.8649
 Red. masses --      1.0590                 1.0533                 7.2999
 Frc consts  --      1.4089                 1.4113                13.3358
 IR Inten    --      5.0657                26.0755               155.3725

                     31                     32                     33
                      A                      A                      A
 Frequencies --   3028.8216              3031.8157              3047.5528
 Red. masses --      1.0374                 1.0418                 1.0800
 Frc consts  --      5.6072                 5.6420                 5.9101
 IR Inten    --     14.4533                15.3845                14.8815

                     34                     35                     36
                      A                      A                      A
 Frequencies --   3092.3489              3099.9539              3117.2193
 Red. masses --      1.0982                 1.0978                 1.1025
 Frc consts  --      6.1875                 6.2154                 6.3119
 IR Inten    --      4.0467                58.0776                13.9690

                     37                     38                     39
                      A                      A                      A
 Frequencies --   3118.6886              3509.4239              3835.4583
 Red. masses --      1.1025                 1.0750                 1.0656
 Frc consts  --      6.3180                 7.8006                 9.2359
 IR Inten    --     23.3824                 1.4208                32.2420

 - Thermochemistry -
 -------------------
 Temperature   298.150 Kelvin.  Pressure   1.00000 Atm.
 Atom     1 has atomic number  6 and mass  12.00000

 Molecular mass:    87.06841 amu.
 Principal axes and moments of inertia in atomic units:
                           1         2         3
     Eigenvalues --   376.10812 689.58534 708.08339
           X            0.99979  -0.00001  -0.02051
           Y            0.00000   1.00000  -0.00013
           Z            0.02051   0.00013   0.99979
 This molecule is an asymmetric top.
 Rotational symmetry number  1.
 Rotational temperatures (Kelvin)      0.23029     0.12560     0.12232
 Rotational constants (GHZ):           4.79846     2.61714     2.54877
 Zero-point vibrational energy     342960.9 (Joules/Mol)
                                   81.96962 (Kcal/Mol)
 Warning -- explicit consideration of   9 degrees of freedom as
           vibrations may cause significant error
 Vibrational temperatures:     84.83   300.70   346.04   347.67   414.71
          (Kelvin)            480.89   550.11   740.60   852.60  1036.04
                             1125.16  1245.78  1316.25  1342.59  1392.77
                             1524.82  1609.45  1623.96  1712.36  1808.18
                             1923.28  1931.23  2009.27  2018.76  2059.48
                             2131.89  2149.01  2162.08  2169.68  2533.49
                             4357.79  4362.10  4384.74  4449.19  4460.14
                             4484.98  4487.09  5049.27  5518.36

 Zero-point correction=                           0.130627 (Hartree/Particle)
 Thermal correction to Energy=                    0.137897
 Thermal correction to Enthalpy=                  0.138841
 Thermal correction to Gibbs Free Energy=         0.099678
 Sum of electronic and zero-point Energies=           -287.705940
 Sum of electronic and thermal Energies=              -287.698670
 Sum of electronic and thermal Enthalpies=            -287.697725
 Sum of electronic and thermal Free Energies=         -287.736888

                     E (Thermal)             CV                S
                      KCal/Mol        Cal/Mol-Kelvin    Cal/Mol-Kelvin
 Total                   86.532             25.883             82.425
 Electronic               0.000              0.000              0.000
 Translational            0.889              2.981             39.305
 Rotational               0.889              2.981             26.710
 Vibrational             84.754             19.921             16.410
 Vibration     1          0.596              1.974              4.492
 Vibration     2          0.642              1.827              2.052
 Vibration     3          0.658              1.778              1.799
 Vibration     4          0.658              1.777              1.791
 Vibration     5          0.685              1.696              1.484
 Vibration     6          0.716              1.607              1.240
 Vibration     7          0.752              1.508              1.030
 Vibration     8          0.870              1.217              0.622
 Vibration     9          0.950              1.048              0.463

 Optimization completed.
    -- Stationary point found.
 Normal termination of Gaussian 09 at Wed Aug 24 20:53:44 2022.

 -----------------------------------------------------------------
 #P Geom=AllCheck Guess=TCheck SCRF=Check CCSD(T,E4T,FrzG4)/GTBas1
 -----------------------------------------------------------------

 Structure from the checkpoint file:  "G4.Frag_691.chk"
 --------
 Frag_691
 --------
 Charge =  0 Multiplicity = 1

 SCF Done:  E(RHF) =  -286.006199992     A.U. after   13 cycles
 E2 =    -0.8615519887D+00 EUMP2 =    -0.28686775198081D+03
 CCSD(T)
 CCSD(T)= -0.28694882035D+03
 9204273\CCSD(T)=-286.9488203\RMSD=3.851e-09\PG=C01 [X(C4H9N1O1)]\\@
 Normal termination of Gaussian 09 at Wed Aug 24 20:59:55 2022.

 ---------------------------------------------------------
 #P Geom=AllCheck Guess=TCheck SCRF=Check MP4=FrzG4/GTBas2
 ---------------------------------------------------------

 Structure from the checkpoint file:  "G4.Frag_691.chk"
 --------
 Frag_691
 --------
 Charge =  0 Multiplicity = 1

 SCF Done:  E(RHF) =  -286.014370533     A.U. after   12 cycles
 E2 =    -0.8734767080D+00 EUMP2 =    -0.28688784724143D+03
 Normal termination of Gaussian 09 at Wed Aug 24 21:06:31 2022.

 ---------------------------------------------------------
 #P Geom=AllCheck Guess=TCheck SCRF=Check MP4=FrzG4/GTBas3
 ---------------------------------------------------------

 Structure from the checkpoint file:  "G4.Frag_691.chk"
 --------
 Frag_691
 --------
 Charge =  0 Multiplicity = 1

 SCF Done:  E(RHF) =  -286.047314566     A.U. after   11 cycles
 E2 =    -0.1061919450D+01 EUMP2 =    -0.28710923401676D+03
 Normal termination of Gaussian 09 at Thu Aug 25 00:22:50 2022.

 -----------------------------------------------------------
 #P Geom=AllCheck Guess=TCheck SCRF=Check MP2=Full/GTLargeXP
 -----------------------------------------------------------

 Structure from the checkpoint file:  "G4.Frag_691.chk"
 --------
 Frag_691
 --------
 Charge =  0 Multiplicity = 1

 SCF Done:  E(RHF) =  -286.119068181     A.U. after   12 cycles
 E2 =    -0.1393227156D+01 EUMP2 =    -0.28751229533700D+03
 Normal termination of Gaussian 09 at Thu Aug 25 00:29:29 2022.
 SCF Done:  E(RHF) =  -286.141815410     A.U. after    8 cycles
 Normal termination of Gaussian 09 at Thu Aug 25 00:35:20 2022.

                         Standard orientation:
 ---------------------------------------------------------------------
 Center     Atomic      Atomic             Coordinates (Angstroms)
 Number     Number       Type             X           Y           Z
 ---------------------------------------------------------------------
      1          6           0       -1.320509    1.272158   -0.015306
      2          6           0       -0.593773   -0.000104   -0.489142
      3          6           0       -1.320564   -1.272144   -0.014795
      4          6           0        0.871153   -0.000055   -0.065004
      5          7           0        1.890411   -0.000208   -0.816605
      6          8           0        1.094925    0.000300    1.276938
      7          1           0       -0.810785    2.174118   -0.365224
      8          1           0       -2.346460    1.286425   -0.395419
      9          1           0       -1.380207    1.326500    1.078233
     10          1           0       -0.593936   -0.000324   -1.584387
     11          1           0       -1.380261   -1.326047    1.078766
     12          1           0       -0.810879   -2.174266   -0.364355
     13          1           0       -2.346516   -1.286518   -0.394900
     14          1           0        1.603751   -0.000399   -1.793425
     15          1           0        0.255174    0.000440    1.746931
 ---------------------------------------------------------------------

 SCF Done:  E(RHF) =  -286.146713684     A.U. after    8 cycles

 The electronic state is 1-A.
 Alpha  occ. eigenvalues --  -20.59125 -15.52801 -11.33586 -11.26269 -11.24108
 Alpha  occ. eigenvalues --  -11.24106  -1.41858  -1.19200  -1.08975  -0.95631
 Alpha  occ. eigenvalues --   -0.86886  -0.81014  -0.71083  -0.64698  -0.62942
 Alpha  occ. eigenvalues --   -0.61485  -0.58595  -0.57458  -0.55189  -0.54172
 Alpha  occ. eigenvalues --   -0.50484  -0.50292  -0.41921  -0.40015
 Alpha virt. eigenvalues --    0.02791   0.03830   0.04005   0.05054   0.06509
 Alpha virt. eigenvalues --    0.07080   0.07136   0.07422   0.07455   0.10012
 Alpha virt. eigenvalues --    0.10094   0.10739   0.10824   0.12057   0.14037

 Mulliken charges:
               1
     1  C   -0.527690
     2  C   -0.054898
     3  C   -0.527682
     4  C    0.418463
     5  N   -0.648602
     6  O   -0.511057
     7  H    0.184390
     8  H    0.175414
     9  H    0.155090
    10  H    0.166345
    11  H    0.155093
    12  H    0.184391
    13  H    0.175411
    14  H    0.274970
    15  H    0.380362
 Sum of Mulliken charges =  -0.00000

 Dipole moment (field-independent basis, Debye):
    X=             -4.8449    Y=              0.0000    Z=             -0.3685  Tot=              4.8589
 Quadrupole moment (field-independent basis, Debye-Ang):
   XX=            -47.8418   YY=            -38.1586   ZZ=            -34.2931
   XY=             -0.0003   XZ=             -1.4677   YZ=              0.0009

 Normal termination of Gaussian 09 at Thu Aug 25 03:30:47 2022.
