 Gaussian 09, Revision E.01,
 Gaussian 09:  ES64L-G09RevE.01 30-Nov-2015

 -----
 #P G4
 -----

 --------
 Frag_982
 --------
 Symbolic Z-matrix:
 Charge =  0 Multiplicity = 1

 SCF Done:  E(RB3LYP) =  -244.574263017     A.U. after   15 cycles
 SCF Done:  E(RB3LYP) =  -244.604997350     A.U. after   13 cycles
 SCF Done:  E(RB3LYP) =  -244.611505502     A.U. after   13 cycles
 SCF Done:  E(RB3LYP) =  -244.611739135     A.U. after   11 cycles
 SCF Done:  E(RB3LYP) =  -244.611785847     A.U. after   11 cycles
 SCF Done:  E(RB3LYP) =  -244.611797258     A.U. after   11 cycles
 SCF Done:  E(RB3LYP) =  -244.611811638     A.U. after    8 cycles
 SCF Done:  E(RB3LYP) =  -244.611836336     A.U. after   10 cycles
 SCF Done:  E(RB3LYP) =  -244.611883963     A.U. after   12 cycles
 SCF Done:  E(RB3LYP) =  -244.611928061     A.U. after   11 cycles
 SCF Done:  E(RB3LYP) =  -244.611985276     A.U. after    9 cycles
 SCF Done:  E(RB3LYP) =  -244.611985330     A.U. after    7 cycles
 SCF Done:  E(RB3LYP) =  -244.611985332     A.U. after    6 cycles
 Optimization completed.
    -- Stationary point found.
 Normal termination of Gaussian 09 at Fri Aug 19 20:32:34 2022.

 ----------------------------------------------------------
 #P Geom=AllCheck Guess=TCheck SCRF=Check B3LYP/GTBas3 Freq
 ----------------------------------------------------------

 Structure from the checkpoint file:  "G4.Frag_982.chk"
 --------
 Frag_982
 --------
 Charge =  0 Multiplicity = 1

 SCF Done:  E(RB3LYP) =  -244.611985332     A.U. after    1 cycles

  Exact polarizability:  58.869   4.214  49.775   0.000   0.000  31.905
 Approx polarizability:  81.176  20.535  99.231  -0.000  -0.000  46.716

                      1                      2                      3
                      A                      A                      A
 Frequencies --     37.6768               227.1011               272.6851
 Red. masses --      1.0826                 2.3719                 1.1150
 Frc consts  --      0.0009                 0.0721                 0.0488
 IR Inten    --      0.9987                 1.6658                 2.9168

                      4                      5                      6
                      A                      A                      A
 Frequencies --    346.8684               476.7460               599.0533
 Red. masses --      2.7992                 3.0718                 2.1027
 Frc consts  --      0.1984                 0.4114                 0.4446
 IR Inten    --      7.0033                 6.9339                 5.2647

                      7                      8                      9
                      A                      A                      A
 Frequencies --    641.4436               763.0175               902.0491
 Red. masses --      3.3401                 1.4852                 3.0222
 Frc consts  --      0.8097                 0.5094                 1.4489
 IR Inten    --     21.9843                57.2930                 3.6989

                     10                     11                     12
                      A                      A                      A
 Frequencies --   1031.8065              1090.8800              1131.4721
 Red. masses --      3.3776                 1.3920                 1.6967
 Frc consts  --      2.1186                 0.9760                 1.2798
 IR Inten    --     12.5597                 2.1538                17.2504

                     13                     14                     15
                      A                      A                      A
 Frequencies --   1153.9083              1175.7295              1281.5438
 Red. masses --      1.4037                 1.6004                 3.3461
 Frc consts  --      1.1012                 1.3035                 3.2378
 IR Inten    --      0.0002                16.0431                25.8785

                     16                     17                     18
                      A                      A                      A
 Frequencies --   1412.7046              1427.9218              1468.5940
 Red. masses --      1.3506                 1.1849                 1.1849
 Frc consts  --      1.5881                 1.4235                 1.5057
 IR Inten    --     72.0531                 1.9468                38.8548

                     19                     20                     21
                      A                      A                      A
 Frequencies --   1476.2984              1477.2307              1484.4162
 Red. masses --      1.0434                 1.1238                 1.0439
 Frc consts  --      1.3398                 1.4450                 1.3552
 IR Inten    --      9.6162                14.1782                 5.4568

                     22                     23                     24
                      A                      A                      A
 Frequencies --   1528.7821              1558.6534              2950.8111
 Red. masses --      1.6830                 2.9170                 1.0413
 Frc consts  --      2.3175                 4.1753                 5.3418
 IR Inten    --      1.6215               151.5530                30.6888

                     25                     26                     27
                      A                      A                      A
 Frequencies --   2992.0119              3083.8493              3133.6378
 Red. masses --      1.0998                 1.0315                 1.0926
 Frc consts  --      5.8006                 5.7794                 6.3211
 IR Inten    --     41.2344                10.4199                14.7838

                     28                     29                     30
                      A                      A                      A
 Frequencies --   3165.4945              3205.3860              3469.5643
 Red. masses --      1.1045                 1.1061                 1.0714
 Frc consts  --      6.5205                 6.6960                 7.5989
 IR Inten    --      4.3504                 1.2736                 3.5053

 - Thermochemistry -
 -------------------
 Temperature   298.150 Kelvin.  Pressure   1.00000 Atm.
 Atom     1 has atomic number  6 and mass  12.00000

 Molecular mass:    73.06400 amu.
 Principal axes and moments of inertia in atomic units:
                           1         2         3
     Eigenvalues --   173.37953 427.38708 578.03866
           X            0.99867  -0.05147  -0.00000
           Y            0.05147   0.99867   0.00000
           Z            0.00000  -0.00000   1.00000
 This molecule is an asymmetric top.
 Rotational symmetry number  1.
 Rotational temperatures (Kelvin)      0.49956     0.20266     0.14984
 Rotational constants (GHZ):          10.40919     4.22273     3.12218
 Zero-point vibrational energy     268964.4 (Joules/Mol)
                                   64.28404 (Kcal/Mol)
 Warning -- explicit consideration of   6 degrees of freedom as
           vibrations may cause significant error
 Vibrational temperatures:     54.21   326.75   392.33   499.07   685.93
          (Kelvin)            861.90   922.89  1097.81  1297.85  1484.54
                             1569.53  1627.93  1660.21  1691.61  1843.85
                             2032.56  2054.46  2112.98  2124.06  2125.40
                             2135.74  2199.57  2242.55  4245.55  4304.83
                             4436.97  4508.60  4554.43  4611.83  4991.92

 Zero-point correction=                           0.102443 (Hartree/Particle)
 Thermal correction to Energy=                    0.108335
 Thermal correction to Enthalpy=                  0.109279
 Thermal correction to Gibbs Free Energy=         0.072956
 Sum of electronic and zero-point Energies=           -244.509542
 Sum of electronic and thermal Energies=              -244.503650
 Sum of electronic and thermal Enthalpies=            -244.502706
 Sum of electronic and thermal Free Energies=         -244.539029

                     E (Thermal)             CV                S
                      KCal/Mol        Cal/Mol-Kelvin    Cal/Mol-Kelvin
 Total                   67.981             19.694             76.448
 Electronic               0.000              0.000              0.000
 Translational            0.889              2.981             38.783
 Rotational               0.889              2.981             25.263
 Vibrational             66.204             13.732             12.402
 Vibration     1          0.594              1.982              5.378
 Vibration     2          0.651              1.800              1.902
 Vibration     3          0.676              1.724              1.579
 Vibration     4          0.725              1.582              1.180
 Vibration     5          0.833              1.302              0.719
 Vibration     6          0.957              1.034              0.451

 Optimization completed.
    -- Stationary point found.
 Normal termination of Gaussian 09 at Fri Aug 19 20:34:00 2022.

 -----------------------------------------------------------------
 #P Geom=AllCheck Guess=TCheck SCRF=Check CCSD(T,E4T,FrzG4)/GTBas1
 -----------------------------------------------------------------

 Structure from the checkpoint file:  "G4.Frag_982.chk"
 --------
 Frag_982
 --------
 Charge =  0 Multiplicity = 1

 SCF Done:  E(RHF) =  -243.032742594     A.U. after   13 cycles
 E2 =    -0.7790906186D+00 EUMP2 =    -0.24381183321283D+03
 CCSD(T)
 CCSD(T)= -0.24387368028D+03
 -243.8420624\CCSD(T)=-243.8736803\RMSD=4.553e-09\PG=C01 [X(C2H7N3)]\\@
 Normal termination of Gaussian 09 at Fri Aug 19 20:35:55 2022.

 ---------------------------------------------------------
 #P Geom=AllCheck Guess=TCheck SCRF=Check MP4=FrzG4/GTBas2
 ---------------------------------------------------------

 Structure from the checkpoint file:  "G4.Frag_982.chk"
 --------
 Frag_982
 --------
 Charge =  0 Multiplicity = 1

 SCF Done:  E(RHF) =  -243.041447389     A.U. after   13 cycles
 E2 =    -0.7888084334D+00 EUMP2 =    -0.24383025582200D+03
 Normal termination of Gaussian 09 at Fri Aug 19 20:37:59 2022.

 ---------------------------------------------------------
 #P Geom=AllCheck Guess=TCheck SCRF=Check MP4=FrzG4/GTBas3
 ---------------------------------------------------------

 Structure from the checkpoint file:  "G4.Frag_982.chk"
 --------
 Frag_982
 --------
 Charge =  0 Multiplicity = 1

 SCF Done:  E(RHF) =  -243.063631031     A.U. after   13 cycles
 E2 =    -0.9400661041D+00 EUMP2 =    -0.24400369713489D+03
 Normal termination of Gaussian 09 at Fri Aug 19 21:17:39 2022.

 -----------------------------------------------------------
 #P Geom=AllCheck Guess=TCheck SCRF=Check MP2=Full/GTLargeXP
 -----------------------------------------------------------

 Structure from the checkpoint file:  "G4.Frag_982.chk"
 --------
 Frag_982
 --------
 Charge =  0 Multiplicity = 1

 SCF Done:  E(RHF) =  -243.125702030     A.U. after   13 cycles
 E2 =    -0.1216812286D+01 EUMP2 =    -0.24434251431636D+03
 Normal termination of Gaussian 09 at Fri Aug 19 21:20:26 2022.
 SCF Done:  E(RHF) =  -243.144760806     A.U. after   10 cycles
 Normal termination of Gaussian 09 at Fri Aug 19 21:24:10 2022.

                         Standard orientation:
 ---------------------------------------------------------------------
 Center     Atomic      Atomic             Coordinates (Angstroms)
 Number     Number       Type             X           Y           Z
 ---------------------------------------------------------------------
      1          6           0       -1.869793   -0.177700   -0.000005
      2          7           0       -0.557960   -0.786827    0.000009
      3          7           0        0.401172    0.076433    0.000006
      4          6           0        1.748535   -0.527979   -0.000004
      5          7           0        0.412297    1.366918    0.000002
      6          1           0       -2.040571    0.453950    0.888399
      7          1           0       -2.040564    0.453931   -0.888424
      8          1           0       -2.606967   -0.981392    0.000000
      9          1           0        2.277274   -0.182457   -0.888605
     10          1           0        1.630595   -1.608106    0.000111
     11          1           0        2.277372   -0.182260    0.888460
     12          1           0       -0.558153    1.684737   -0.000013
 ---------------------------------------------------------------------

 SCF Done:  E(RHF) =  -243.148724285     A.U. after    8 cycles

 The electronic state is 1-A.
 Alpha  occ. eigenvalues --  -15.74725 -15.58342 -15.56970 -11.27736 -11.25546
 Alpha  occ. eigenvalues --   -1.43315  -1.18525  -1.06470  -0.94924  -0.80280
 Alpha  occ. eigenvalues --   -0.71461  -0.67677  -0.67093  -0.59048  -0.58932
 Alpha  occ. eigenvalues --   -0.55741  -0.51713  -0.47989  -0.43428  -0.33210
 Alpha virt. eigenvalues --    0.03664   0.04439   0.05057   0.05445   0.06795
 Alpha virt. eigenvalues --    0.07129   0.07144   0.09718   0.10709   0.11656
 Alpha virt. eigenvalues --    0.12300   0.12483   0.13793   0.15180   0.15439

 Mulliken charges:
               1
     1  C   -0.448032
     2  N   -0.355180
     3  N    0.422057
     4  C   -0.465987
     5  N   -0.639495
     6  H    0.164445
     7  H    0.164444
     8  H    0.204903
     9  H    0.216277
    10  H    0.232595
    11  H    0.216288
    12  H    0.287686
 Sum of Mulliken charges =  -0.00000

 Dipole moment (field-independent basis, Debye):
    X=             -0.1526    Y=             -0.5872    Z=             -0.0000  Tot=              0.6067
 Quadrupole moment (field-independent basis, Debye-Ang):
   XX=            -25.6627   YY=            -36.2532   ZZ=            -32.1736
   XY=             -4.7383   XZ=              0.0000   YZ=             -0.0000

 Normal termination of Gaussian 09 at Fri Aug 19 22:56:27 2022.
