 Gaussian 09, Revision E.01,
 Gaussian 09:  ES64L-G09RevE.01 30-Nov-2015

 -----
 #P G4
 -----

 --------
 Frag_813
 --------
 Symbolic Z-matrix:
 Charge =  0 Multiplicity = 1

 SCF Done:  E(RB3LYP) =  -303.748596360     A.U. after   14 cycles
 SCF Done:  E(RB3LYP) =  -303.759801742     A.U. after   12 cycles
 SCF Done:  E(RB3LYP) =  -303.765370385     A.U. after   12 cycles
 SCF Done:  E(RB3LYP) =  -303.772341078     A.U. after   13 cycles
 SCF Done:  E(RB3LYP) =  -303.775507103     A.U. after   12 cycles
 SCF Done:  E(RB3LYP) =  -303.779215148     A.U. after   13 cycles
 SCF Done:  E(RB3LYP) =  -303.780200313     A.U. after   12 cycles
 SCF Done:  E(RB3LYP) =  -303.780643869     A.U. after   11 cycles
 SCF Done:  E(RB3LYP) =  -303.780708204     A.U. after   10 cycles
 SCF Done:  E(RB3LYP) =  -303.780736214     A.U. after    8 cycles
 SCF Done:  E(RB3LYP) =  -303.780752298     A.U. after    8 cycles
 SCF Done:  E(RB3LYP) =  -303.780753024     A.U. after    7 cycles
 SCF Done:  E(RB3LYP) =  -303.780753169     A.U. after    7 cycles
 Optimization completed.
    -- Stationary point found.
 Normal termination of Gaussian 09 at Fri Aug 26 09:56:40 2022.

 ----------------------------------------------------------
 #P Geom=AllCheck Guess=TCheck SCRF=Check B3LYP/GTBas3 Freq
 ----------------------------------------------------------

 Structure from the checkpoint file:  "G4.Frag_813.chk"
 --------
 Frag_813
 --------
 Charge =  0 Multiplicity = 1

 SCF Done:  E(RB3LYP) =  -303.780753169     A.U. after    1 cycles

  Exact polarizability:  59.206  -4.494  64.229   2.051  -1.567  38.243
 Approx polarizability:  77.549  -7.927  97.595   4.516  -4.836  58.926

                      1                      2                      3
                      A                      A                      A
 Frequencies --     89.0475               177.5876               250.5887
 Red. masses --      3.2397                 1.0791                 1.2090
 Frc consts  --      0.0151                 0.0201                 0.0447
 IR Inten    --      3.2972                 0.7872                62.8199

                      4                      5                      6
                      A                      A                      A
 Frequencies --    293.0980               314.2954               410.9884
 Red. masses --      1.7943                 3.4033                 2.3547
 Frc consts  --      0.0908                 0.1981                 0.2343
 IR Inten    --     41.8860                 3.0606                 4.3293

                      7                      8                      9
                      A                      A                      A
 Frequencies --    432.3237               494.9831               529.1932
 Red. masses --      1.5358                 2.6187                 3.5782
 Frc consts  --      0.1691                 0.3780                 0.5904
 IR Inten    --      8.9246                23.8079                22.4184

                     10                     11                     12
                      A                      A                      A
 Frequencies --    568.9094               744.1540               778.8585
 Red. masses --      2.1225                 3.0259                 1.4453
 Frc consts  --      0.4048                 0.9873                 0.5166
 IR Inten    --      7.1014                17.4784                 3.9840

                     13                     14                     15
                      A                      A                      A
 Frequencies --    885.1070               904.7704               924.4406
 Red. masses --      1.3566                 2.1941                 3.3545
 Frc consts  --      0.6262                 1.0583                 1.6890
 IR Inten    --     47.1940                42.5903                92.6756

                     16                     17                     18
                      A                      A                      A
 Frequencies --    959.7038              1037.0807              1075.7214
 Red. masses --      1.9892                 1.6074                 1.4976
 Frc consts  --      1.0794                 1.0186                 1.0211
 IR Inten    --      7.4872                 7.4374                 0.8314

                     19                     20                     21
                      A                      A                      A
 Frequencies --   1205.6611              1301.6305              1333.1234
 Red. masses --      2.3040                 1.6727                 1.7241
 Frc consts  --      1.9733                 1.6697                 1.8053
 IR Inten    --     15.4059                17.9796                38.1651

                     22                     23                     24
                      A                      A                      A
 Frequencies --   1373.8781              1405.6474              1435.1921
 Red. masses --      1.2468                 1.2249                 1.2197
 Frc consts  --      1.3866                 1.4259                 1.4802
 IR Inten    --     43.4221                 4.5344                 0.2487

                     25                     26                     27
                      A                      A                      A
 Frequencies --   1471.0989              1490.7701              1684.6183
 Red. masses --      1.0472                 1.0545                 1.1120
 Frc consts  --      1.3352                 1.3808                 1.8593
 IR Inten    --      5.2064                 8.3499                13.3431

                     28                     29                     30
                      A                      A                      A
 Frequencies --   1719.9836              3046.0464              3105.0629
 Red. masses --      5.1237                 1.0364                 1.0981
 Frc consts  --      8.9306                 5.6659                 6.2379
 IR Inten    --     55.9000                17.8920                12.9386

                     31                     32                     33
                      A                      A                      A
 Frequencies --   3133.4908              3181.4644              3277.8305
 Red. masses --      1.1022                 1.0616                 1.1136
 Frc consts  --      6.3765                 6.3308                 7.0496
 IR Inten    --     17.9293                 3.4091                 3.8049

                     34                     35                     36
                      A                      A                      A
 Frequencies --   3400.8207              3548.3066              3794.9337
 Red. masses --      1.0553                 1.0854                 1.0680
 Frc consts  --      7.1910                 8.0514                 9.0621
 IR Inten    --      9.4077                 2.2579                41.8574

 - Thermochemistry -
 -------------------
 Temperature   298.150 Kelvin.  Pressure   1.00000 Atm.
 Atom     1 has atomic number  6 and mass  12.00000

 Molecular mass:    88.06366 amu.
 Principal axes and moments of inertia in atomic units:
                           1         2         3
     Eigenvalues --   364.25130 526.47680 824.19333
           X            0.99999  -0.00521   0.00142
           Y            0.00521   0.99999   0.00123
           Z           -0.00142  -0.00123   1.00000
 This molecule is an asymmetric top.
 Rotational symmetry number  1.
 Rotational temperatures (Kelvin)      0.23779     0.16452     0.10509
 Rotational constants (GHZ):           4.95466     3.42796     2.18971
 Zero-point vibrational energy     309715.6 (Joules/Mol)
                                   74.02381 (Kcal/Mol)
 Warning -- explicit consideration of  10 degrees of freedom as
           vibrations may cause significant error
 Vibrational temperatures:    128.12   255.51   360.54   421.70   452.20
          (Kelvin)            591.32   622.02   712.17   761.39   818.53
                             1070.67  1120.60  1273.47  1301.76  1330.06
                             1380.80  1492.13  1547.72  1734.68  1872.75
                             1918.06  1976.70  2022.41  2064.92  2116.58
                             2144.88  2423.79  2474.67  4382.58  4467.49
                             4508.39  4577.41  4716.06  4893.02  5105.22
                             5460.06

 Zero-point correction=                           0.117964 (Hartree/Particle)
 Thermal correction to Energy=                    0.125170
 Thermal correction to Enthalpy=                  0.126115
 Thermal correction to Gibbs Free Energy=         0.087472
 Sum of electronic and zero-point Energies=           -303.662789
 Sum of electronic and thermal Energies=              -303.655583
 Sum of electronic and thermal Enthalpies=            -303.654638
 Sum of electronic and thermal Free Energies=         -303.693281

                     E (Thermal)             CV                S
                      KCal/Mol        Cal/Mol-Kelvin    Cal/Mol-Kelvin
 Total                   78.546             26.281             81.331
 Electronic               0.000              0.000              0.000
 Translational            0.889              2.981             39.339
 Rotational               0.889              2.981             26.561
 Vibrational             76.768             20.319             15.431
 Vibration     1          0.602              1.957              3.681
 Vibration     2          0.628              1.870              2.354
 Vibration     3          0.663              1.762              1.726
 Vibration     4          0.688              1.687              1.456
 Vibration     5          0.702              1.646              1.340
 Vibration     6          0.775              1.446              0.923
 Vibration     7          0.793              1.400              0.851
 Vibration     8          0.851              1.261              0.671
 Vibration     9          0.884              1.185              0.589
 Vibration    10          0.925              1.099              0.506

 Normal termination of Gaussian 09 at Fri Aug 26 09:57:12 2022.

 -----------------------------------------------------------------
 #P Geom=AllCheck Guess=TCheck SCRF=Check CCSD(T,E4T,FrzG4)/GTBas1
 -----------------------------------------------------------------

 Structure from the checkpoint file:  "G4.Frag_813.chk"
 --------
 Frag_813
 --------
 Charge =  0 Multiplicity = 1

 SCF Done:  E(RHF) =  -301.895238314     A.U. after   13 cycles
 E2 =    -0.8963547271D+00 EUMP2 =    -0.30279159304154D+03
 CCSD(T)
 CCSD(T)= -0.30287194763D+03
 SDQ=-302.8414152\CCSD=-302.8420843\CCSD(T)=-302.8719476\RMSD=3.529e-09
 Normal termination of Gaussian 09 at Fri Aug 26 09:59:15 2022.

 ---------------------------------------------------------
 #P Geom=AllCheck Guess=TCheck SCRF=Check MP4=FrzG4/GTBas2
 ---------------------------------------------------------

 Structure from the checkpoint file:  "G4.Frag_813.chk"
 --------
 Frag_813
 --------
 Charge =  0 Multiplicity = 1

 SCF Done:  E(RHF) =  -301.906429575     A.U. after   13 cycles
 E2 =    -0.9110314446D+00 EUMP2 =    -0.30281746101976D+03
 Normal termination of Gaussian 09 at Fri Aug 26 09:59:51 2022.

 ---------------------------------------------------------
 #P Geom=AllCheck Guess=TCheck SCRF=Check MP4=FrzG4/GTBas3
 ---------------------------------------------------------

 Structure from the checkpoint file:  "G4.Frag_813.chk"
 --------
 Frag_813
 --------
 Charge =  0 Multiplicity = 1

 SCF Done:  E(RHF) =  -301.936297298     A.U. after   12 cycles
 E2 =    -0.1097413279D+01 EUMP2 =    -0.30303371057666D+03
 Normal termination of Gaussian 09 at Fri Aug 26 10:03:14 2022.

 -----------------------------------------------------------
 #P Geom=AllCheck Guess=TCheck SCRF=Check MP2=Full/GTLargeXP
 -----------------------------------------------------------

 Structure from the checkpoint file:  "G4.Frag_813.chk"
 --------
 Frag_813
 --------
 Charge =  0 Multiplicity = 1

 SCF Done:  E(RHF) =  -302.015969502     A.U. after   12 cycles
 E2 =    -0.1435027462D+01 EUMP2 =    -0.30345099696436D+03
 Normal termination of Gaussian 09 at Fri Aug 26 10:05:12 2022.
 SCF Done:  E(RHF) =  -302.040439708     A.U. after   10 cycles
 Normal termination of Gaussian 09 at Fri Aug 26 10:07:18 2022.

                         Standard orientation:
 ---------------------------------------------------------------------
 Center     Atomic      Atomic             Coordinates (Angstroms)
 Number     Number       Type             X           Y           Z
 ---------------------------------------------------------------------
      1          6           0       -1.069611    1.449172   -0.269875
      2          6           0       -0.710190    0.201325    0.033507
      3          6           0       -1.687081   -0.934627    0.176675
      4          7           0        0.631978   -0.164198    0.358048
      5          7           0        1.043551   -1.314130   -0.334442
      6          8           0        1.536993    0.920698    0.072318
      7          1           0       -2.115886    1.687143   -0.414515
      8          1           0       -0.345804    2.244380   -0.367379
      9          1           0       -2.709429   -0.553509    0.135641
     10          1           0       -1.540211   -1.454330    1.129147
     11          1           0       -1.554593   -1.680424   -0.611691
     12          1           0        1.901330   -1.637540    0.101185
     13          1           0        1.263384   -1.068096   -1.302906
     14          1           0        1.877853    1.149867    0.944888
 ---------------------------------------------------------------------

 SCF Done:  E(RHF) =  -302.045562964     A.U. after    8 cycles

 The electronic state is 1-A.
 Alpha  occ. eigenvalues --  -20.59124 -15.65024 -15.58515 -11.26814 -11.21812
 Alpha  occ. eigenvalues --  -11.20334  -1.42567  -1.24353  -1.09745  -0.96666
 Alpha  occ. eigenvalues --   -0.93148  -0.74771  -0.72642  -0.68143  -0.65993
 Alpha  occ. eigenvalues --   -0.62780  -0.57990  -0.56172  -0.54774  -0.51299
 Alpha  occ. eigenvalues --   -0.49722  -0.45243  -0.42802  -0.33218
 Alpha virt. eigenvalues --    0.04146   0.04649   0.04833   0.05829   0.06996
 Alpha virt. eigenvalues --    0.07217   0.07845   0.08465   0.08699   0.10350
 Alpha virt. eigenvalues --    0.11289   0.11464   0.11866   0.12695   0.14170

 Mulliken charges:
               1
     1  C   -0.504746
     2  C    0.161131
     3  C   -0.488926
     4  N    0.010827
     5  N   -0.580118
     6  O   -0.535935
     7  H    0.179777
     8  H    0.215569
     9  H    0.170170
    10  H    0.181552
    11  H    0.190414
    12  H    0.303465
    13  H    0.297949
    14  H    0.398872
 Sum of Mulliken charges =  -0.00000

 Dipole moment (field-independent basis, Debye):
    X=              0.9632    Y=             -0.4490    Z=              0.4960  Tot=              1.1728
 Quadrupole moment (field-independent basis, Debye-Ang):
   XX=            -32.4413   YY=            -37.7185   ZZ=            -36.8513
   XY=             -1.2227   XZ=              2.0163   YZ=              1.9174

 Normal termination of Gaussian 09 at Fri Aug 26 10:14:33 2022.
