 Gaussian 09, Revision E.01,
 Gaussian 09:  ES64L-G09RevE.01 30-Nov-2015

 -----
 #P G4
 -----

 ---------
 Frag_1078
 ---------
 Symbolic Z-matrix:
 Charge =  0 Multiplicity = 1

 SCF Done:  E(RB3LYP) =  -414.893383061     A.U. after   17 cycles
 SCF Done:  E(RB3LYP) =  -414.924164038     A.U. after   15 cycles
 SCF Done:  E(RB3LYP) =  -414.917252738     A.U. after   15 cycles
 SCF Done:  E(RB3LYP) =  -414.926316002     A.U. after   12 cycles
 SCF Done:  E(RB3LYP) =  -414.926516263     A.U. after   14 cycles
 SCF Done:  E(RB3LYP) =  -414.929373558     A.U. after   13 cycles
 SCF Done:  E(RB3LYP) =  -414.930075095     A.U. after   13 cycles
 SCF Done:  E(RB3LYP) =  -414.931870159     A.U. after   16 cycles
 SCF Done:  E(RB3LYP) =  -414.932995522     A.U. after   13 cycles
 SCF Done:  E(RB3LYP) =  -414.935457682     A.U. after   14 cycles
 SCF Done:  E(RB3LYP) =  -414.937645434     A.U. after   11 cycles
 SCF Done:  E(RB3LYP) =  -414.937643567     A.U. after   11 cycles
 SCF Done:  E(RB3LYP) =  -414.937644372     A.U. after    9 cycles
 Optimization completed.
    -- Stationary point found.
 Normal termination of Gaussian 09 at Mon Aug 22 23:06:53 2022.

 ----------------------------------------------------------
 #P Geom=AllCheck Guess=TCheck SCRF=Check B3LYP/GTBas3 Freq
 ----------------------------------------------------------

 Structure from the checkpoint file:  "G4.Frag_1078.chk"
 ---------
 Frag_1078
 ---------
 Charge =  0 Multiplicity = 1

 SCF Done:  E(RB3LYP) =  -414.937644372     A.U. after    1 cycles

  Exact polarizability:  50.412  -1.870  53.097   1.211   0.205  40.087
 Approx polarizability:  70.844  -3.654  96.508   1.089  -3.947  58.740

                      1                      2                      3
                      A                      A                      A
 Frequencies --     48.9794               177.3969               244.4189
 Red. masses --      7.3256                 1.0559                 1.3338
 Frc consts  --      0.0104                 0.0196                 0.0469
 IR Inten    --      1.5524                 4.0045                16.9713

                      4                      5                      6
                      A                      A                      A
 Frequencies --    274.3954               304.9785               379.3317
 Red. masses --      2.8918                 3.0493                 3.8218
 Frc consts  --      0.1283                 0.1671                 0.3240
 IR Inten    --     11.4539                 6.4591                33.2633

                      7                      8                      9
                      A                      A                      A
 Frequencies --    395.4098               420.6905               486.7315
 Red. masses --      3.1679                 4.2260                 1.2785
 Frc consts  --      0.2918                 0.4407                 0.1785
 IR Inten    --      5.1222                14.4593               109.3162

                     10                     11                     12
                      A                      A                      A
 Frequencies --    559.5854               599.1820               764.3741
 Red. masses --      3.2430                 2.5789                 8.3467
 Frc consts  --      0.5983                 0.5455                 2.8733
 IR Inten    --      9.9981                66.5614                22.3622

                     13                     14                     15
                      A                      A                      A
 Frequencies --    811.0380               853.8045               894.0430
 Red. masses --      2.5554                 9.4272                 2.2448
 Frc consts  --      0.9904                 4.0490                 1.0571
 IR Inten    --     78.4474                32.1377                52.6214

                     16                     17                     18
                      A                      A                      A
 Frequencies --    991.0415              1023.6157              1176.1324
 Red. masses --      1.6248                 1.5579                 1.9065
 Frc consts  --      0.9402                 0.9618                 1.5538
 IR Inten    --      9.3503                28.0773                31.1115

                     19                     20                     21
                      A                      A                      A
 Frequencies --   1213.7287              1262.3642              1397.7632
 Red. masses --      2.0795                 2.0946                 1.3687
 Frc consts  --      1.8049                 1.9666                 1.5755
 IR Inten    --    168.3401               117.4510                21.8838

                     22                     23                     24
                      A                      A                      A
 Frequencies --   1423.4355              1462.8402              1481.2999
 Red. masses --      6.1554                 1.7599                 1.0540
 Frc consts  --      7.3483                 2.2188                 1.3626
 IR Inten    --     59.2009                58.7208                 2.3309

                     25                     26                     27
                      A                      A                      A
 Frequencies --   1485.3897              1643.2081              1671.6308
 Red. masses --      1.1470                 1.2725                 5.2597
 Frc consts  --      1.4911                 2.0243                 8.6596
 IR Inten    --      4.0346               109.8817               167.9799

                     28                     29                     30
                      A                      A                      A
 Frequencies --   3068.2163              3145.5408              3181.1181
 Red. masses --      1.0393                 1.0976                 1.1033
 Frc consts  --      5.7643                 6.3988                 6.5782
 IR Inten    --      6.4827                 6.5974                 3.1752

                     31                     32                     33
                      A                      A                      A
 Frequencies --   3509.3629              3598.6552              3736.8579
 Red. masses --      1.0485                 1.0937                 1.0640
 Frc consts  --      7.6082                 8.3452                 8.7538
 IR Inten    --      6.0869                 8.1178                50.3720

 - Thermochemistry -
 -------------------
 Temperature   298.150 Kelvin.  Pressure   1.00000 Atm.
 Atom     1 has atomic number  6 and mass  12.00000

 Molecular mass:   106.03784 amu.
 Principal axes and moments of inertia in atomic units:
                           1         2         3
     Eigenvalues --   497.45507 696.28687 831.64555
           X            0.99691  -0.07718   0.01426
           Y            0.07591   0.99428   0.07509
           Z           -0.01998  -0.07378   0.99707
 This molecule is an asymmetric top.
 Rotational symmetry number  1.
 Warning -- assumption of classical behavior for rotation
           may cause significant error
 Rotational temperatures (Kelvin)      0.17411     0.12439     0.10415
 Rotational constants (GHZ):           3.62795     2.59195     2.17008
 Zero-point vibrational energy     261303.7 (Joules/Mol)
                                   62.45307 (Kcal/Mol)
 Warning -- explicit consideration of  11 degrees of freedom as
           vibrations may cause significant error
 Vibrational temperatures:     70.47   255.23   351.66   394.79   438.80
          (Kelvin)            545.77   568.91   605.28   700.30   805.12
                              862.09  1099.76  1166.90  1228.43  1286.33
                             1425.89  1472.75  1692.19  1746.28  1816.26
                             2011.07  2048.00  2104.70  2131.26  2137.14
                             2364.21  2405.10  4414.47  4525.73  4576.91
                             5049.18  5177.66  5376.50

 Zero-point correction=                           0.099525 (Hartree/Particle)
 Thermal correction to Energy=                    0.107104
 Thermal correction to Enthalpy=                  0.108048
 Thermal correction to Gibbs Free Energy=         0.067803
 Sum of electronic and zero-point Energies=           -414.838119
 Sum of electronic and thermal Energies=              -414.830540
 Sum of electronic and thermal Enthalpies=            -414.829596
 Sum of electronic and thermal Free Energies=         -414.869841

                     E (Thermal)             CV                S
                      KCal/Mol        Cal/Mol-Kelvin    Cal/Mol-Kelvin
 Total                   67.209             27.094             84.703
 Electronic               0.000              0.000              0.000
 Translational            0.889              2.981             39.893
 Rotational               0.889              2.981             27.157
 Vibrational             65.431             21.133             17.653
 Vibration     1          0.595              1.978              4.858
 Vibration     2          0.628              1.870              2.356
 Vibration     3          0.660              1.772              1.770
 Vibration     4          0.677              1.721              1.568
 Vibration     5          0.696              1.664              1.389
 Vibration     6          0.749              1.514              1.042
 Vibration     7          0.762              1.480              0.980
 Vibration     8          0.783              1.425              0.890
 Vibration     9          0.843              1.279              0.692
 Vibration    10          0.915              1.119              0.525
 Vibration    11          0.957              1.034              0.451

 Optimization completed.
    -- Stationary point found.
 Normal termination of Gaussian 09 at Mon Aug 22 23:10:03 2022.

 -----------------------------------------------------------------
 #P Geom=AllCheck Guess=TCheck SCRF=Check CCSD(T,E4T,FrzG4)/GTBas1
 -----------------------------------------------------------------

 Structure from the checkpoint file:  "G4.Frag_1078.chk"
 ---------
 Frag_1078
 ---------
 Charge =  0 Multiplicity = 1

 SCF Done:  E(RHF) =  -412.583733832     A.U. after   14 cycles
 E2 =    -0.1149759567D+01 EUMP2 =    -0.41373349339846D+03
 CCSD(T)
 CCSD(T)= -0.41379814503D+03
 Normal termination of Gaussian 09 at Mon Aug 22 23:21:21 2022.

 ---------------------------------------------------------
 #P Geom=AllCheck Guess=TCheck SCRF=Check MP4=FrzG4/GTBas2
 ---------------------------------------------------------

 Structure from the checkpoint file:  "G4.Frag_1078.chk"
 ---------
 Frag_1078
 ---------
 Charge =  0 Multiplicity = 1

 SCF Done:  E(RHF) =  -412.597937811     A.U. after   14 cycles
 E2 =    -0.1168688026D+01 EUMP2 =    -0.41376662583700D+03
 Normal termination of Gaussian 09 at Mon Aug 22 23:37:24 2022.

 ---------------------------------------------------------
 #P Geom=AllCheck Guess=TCheck SCRF=Check MP4=FrzG4/GTBas3
 ---------------------------------------------------------

 Structure from the checkpoint file:  "G4.Frag_1078.chk"
 ---------
 Frag_1078
 ---------
 Charge =  0 Multiplicity = 1

 SCF Done:  E(RHF) =  -412.636744489     A.U. after   13 cycles
 E2 =    -0.1398327318D+01 EUMP2 =    -0.41403507180708D+03
 Normal termination of Gaussian 09 at Tue Aug 23 02:59:25 2022.

 -----------------------------------------------------------
 #P Geom=AllCheck Guess=TCheck SCRF=Check MP2=Full/GTLargeXP
 -----------------------------------------------------------

 Structure from the checkpoint file:  "G4.Frag_1078.chk"
 ---------
 Frag_1078
 ---------
 Charge =  0 Multiplicity = 1

 SCF Done:  E(RHF) =  -412.751077116     A.U. after   13 cycles
 E2 =    -0.1809183409D+01 EUMP2 =    -0.41456026052532D+03
 Normal termination of Gaussian 09 at Tue Aug 23 03:08:15 2022.
 SCF Done:  E(RHF) =  -412.784685065     A.U. after    9 cycles
 Normal termination of Gaussian 09 at Tue Aug 23 03:15:55 2022.

                         Standard orientation:
 ---------------------------------------------------------------------
 Center     Atomic      Atomic             Coordinates (Angstroms)
 Number     Number       Type             X           Y           Z
 ---------------------------------------------------------------------
      1          6           0       -1.309291    1.218809    0.315653
      2          6           0       -0.595843   -0.081528    0.012362
      3          7           0       -0.847299   -0.534072   -1.328251
      4          8           0       -0.835418   -0.987931    1.038204
      5          7           0        0.962662    0.142760    0.002967
      6          8           0        1.619393   -0.889170    0.105942
      7          8           0        1.410128    1.261004   -0.126157
      8          1           0       -2.385261    1.024232    0.335589
      9          1           0       -1.085247    1.962982   -0.446445
     10          1           0       -1.007841    1.591876    1.294793
     11          1           0       -0.435550   -1.449608   -1.481327
     12          1           0       -1.846204   -0.598718   -1.490920
     13          1           0       -0.169452   -1.686497    0.953300
 ---------------------------------------------------------------------

 SCF Done:  E(RHF) =  -412.791849087     A.U. after    8 cycles

 The electronic state is 1-A.
 Alpha  occ. eigenvalues --  -20.61533 -20.60594 -20.59838 -15.84456 -15.58546
 Alpha  occ. eigenvalues --  -11.40666 -11.24711  -1.61253  -1.43252  -1.40491
 Alpha  occ. eigenvalues --   -1.23086  -1.05313  -0.97261  -0.82710  -0.79914
 Alpha  occ. eigenvalues --   -0.74474  -0.73757  -0.71070  -0.67980  -0.63121
 Alpha  occ. eigenvalues --   -0.59966  -0.58059  -0.56812  -0.54043  -0.50449
 Alpha  occ. eigenvalues --   -0.47613  -0.46410  -0.45413
 Alpha virt. eigenvalues --    0.02983   0.03903   0.05069   0.05537   0.07018
 Alpha virt. eigenvalues --    0.07279   0.07683   0.08273   0.09327   0.10876
 Alpha virt. eigenvalues --    0.11819   0.11950   0.12787   0.14144   0.14330

 Mulliken charges:
               1
     1  C   -0.544773
     2  C    0.490475
     3  N   -0.708198
     4  O   -0.555050
     5  N    0.547433
     6  O   -0.465472
     7  O   -0.392892
     8  H    0.194148
     9  H    0.222253
    10  H    0.200513
    11  H    0.306162
    12  H    0.308481
    13  H    0.396920
 Sum of Mulliken charges =  -0.00000

 Dipole moment (field-independent basis, Debye):
    X=             -3.6342    Y=             -1.0990    Z=             -0.5204  Tot=              3.8322
 Quadrupole moment (field-independent basis, Debye-Ang):
   XX=            -44.3751   YY=            -39.1437   ZZ=            -42.4056
   XY=             -1.6580   XZ=              3.0318   YZ=              2.9582

 Normal termination of Gaussian 09 at Tue Aug 23 06:44:41 2022.
