 Gaussian 09, Revision E.01,
 Gaussian 09:  ES64L-G09RevE.01 30-Nov-2015

 -----
 #P G4
 -----

 --------
 Frag_923
 --------
 Symbolic Z-matrix:
 Charge =  0 Multiplicity = 1

 SCF Done:  E(RB3LYP) =  -343.088881955     A.U. after   15 cycles
 SCF Done:  E(RB3LYP) =  -343.119907756     A.U. after   13 cycles
 SCF Done:  E(RB3LYP) =  -343.125588512     A.U. after   13 cycles
 SCF Done:  E(RB3LYP) =  -343.126588471     A.U. after   13 cycles
 SCF Done:  E(RB3LYP) =  -343.125417028     A.U. after   13 cycles
 SCF Done:  E(RB3LYP) =  -343.126786662     A.U. after   10 cycles
 SCF Done:  E(RB3LYP) =  -343.127109151     A.U. after   12 cycles
 SCF Done:  E(RB3LYP) =  -343.127401888     A.U. after   13 cycles
 SCF Done:  E(RB3LYP) =  -343.127229744     A.U. after   15 cycles
 SCF Done:  E(RB3LYP) =  -343.127604012     A.U. after   11 cycles
 SCF Done:  E(RB3LYP) =  -343.128074207     A.U. after   12 cycles
 SCF Done:  E(RB3LYP) =  -343.128075689     A.U. after    9 cycles
 SCF Done:  E(RB3LYP) =  -343.128075874     A.U. after    8 cycles
 Optimization completed.
    -- Stationary point found.
 Normal termination of Gaussian 09 at Fri Aug 26 06:44:38 2022.

 ----------------------------------------------------------
 #P Geom=AllCheck Guess=TCheck SCRF=Check B3LYP/GTBas3 Freq
 ----------------------------------------------------------

 Structure from the checkpoint file:  "G4.Frag_923.chk"
 --------
 Frag_923
 --------
 Charge =  0 Multiplicity = 1

 SCF Done:  E(RB3LYP) =  -343.128075874     A.U. after    1 cycles

  Exact polarizability:  67.747  -3.112  67.023  -0.000  -0.000  53.221
 Approx polarizability:  93.346  -3.762 121.539   0.000   0.000  74.293

                      1                      2                      3
                      A                      A                      A
 Frequencies --     58.1080               194.4817               253.6427
 Red. masses --      5.7916                 1.0583                 1.0284
 Frc consts  --      0.0115                 0.0236                 0.0390
 IR Inten    --      0.5673                 0.0003                 0.1661

                      4                      5                      6
                      A                      A                      A
 Frequencies --    268.9800               290.8614               296.0917
 Red. masses --      1.2271                 1.8285                 2.8714
 Frc consts  --      0.0523                 0.0911                 0.1483
 IR Inten    --      0.0186                 0.8488                 0.6899

                      7                      8                      9
                      A                      A                      A
 Frequencies --    358.1205               379.8522               381.0297
 Red. masses --      2.9826                 2.2339                 2.9017
 Frc consts  --      0.2254                 0.1899                 0.2482
 IR Inten    --      0.8123                 0.0048                 5.4486

                     10                     11                     12
                      A                      A                      A
 Frequencies --    522.5050               571.6579               702.9186
 Red. masses --      4.2156                 3.1793                 3.3525
 Frc consts  --      0.6781                 0.6121                 0.9760
 IR Inten    --      6.3452                18.1761                 6.1586

                     13                     14                     15
                      A                      A                      A
 Frequencies --    766.0353               832.8058               931.2267
 Red. masses --      3.5718                 2.7117                 1.4876
 Frc consts  --      1.2349                 1.1081                 0.7600
 IR Inten    --     25.5707                 7.3572                46.7165

                     16                     17                     18
                      A                      A                      A
 Frequencies --    938.4848               941.6328               971.1418
 Red. masses --      1.5446                 1.5608                 1.2037
 Frc consts  --      0.8015                 0.8154                 0.6689
 IR Inten    --      0.4705                12.7010                 0.3053

                     19                     20                     21
                      A                      A                      A
 Frequencies --   1052.6814              1053.9758              1218.6183
 Red. masses --      1.4192                 1.4265                 2.1258
 Frc consts  --      0.9266                 0.9337                 1.8600
 IR Inten    --      0.6066                 1.5580                20.6458

                     22                     23                     24
                      A                      A                      A
 Frequencies --   1259.8046              1265.1914              1281.5960
 Red. masses --      2.8271                 3.2890                 3.3358
 Frc consts  --      2.6436                 3.1019                 3.2282
 IR Inten    --     11.4213                25.7564                30.3867

                     25                     26                     27
                      A                      A                      A
 Frequencies --   1391.8762              1398.3264              1425.4190
 Red. masses --      1.2368                 1.2369                 1.2256
 Frc consts  --      1.4117                 1.4250                 1.4672
 IR Inten    --      8.5658                24.5303                 6.7100

                     28                     29                     30
                      A                      A                      A
 Frequencies --   1468.2909              1480.9924              1489.6962
 Red. masses --      1.0480                 1.0531                 1.0470
 Frc consts  --      1.3312                 1.3609                 1.3690
 IR Inten    --      0.0383                 0.7329                 0.5511

                     31                     32                     33
                      A                      A                      A
 Frequencies --   1494.6488              1496.7443              1512.5452
 Red. masses --      1.0505                 1.0713                 1.3410
 Frc consts  --      1.3828                 1.4140                 1.8075
 IR Inten    --      3.3652                10.8133                20.4846

                     34                     35                     36
                      A                      A                      A
 Frequencies --   1529.0012              1595.3353              3047.9862
 Red. masses --      1.3346                11.6591                 1.0371
 Frc consts  --      1.8383                17.4832                 5.6769
 IR Inten    --     18.8053               203.3372                 4.5188

                     37                     38                     39
                      A                      A                      A
 Frequencies --   3048.0251              3054.9491              3117.6451
 Red. masses --      1.0355                 1.0380                 1.1020
 Frc consts  --      5.6679                 5.7076                 6.3106
 IR Inten    --     20.5059                15.7395                 8.4395

                     40                     41                     42
                      A                      A                      A
 Frequencies --   3118.7805              3126.4638              3145.7110
 Red. masses --      1.1003                 1.0985                 1.1025
 Frc consts  --      6.3057                 6.3266                 6.4279
 IR Inten    --      4.7047                33.8741                11.5703

                     43                     44                     45
                      A                      A                      A
 Frequencies --   3147.3196              3151.4359              3393.8682
 Red. masses --      1.1017                 1.1010                 1.0709
 Frc consts  --      6.4297                 6.4422                 7.2676
 IR Inten    --      3.7114                12.8857                 1.4952

 - Thermochemistry -
 -------------------
 Temperature   298.150 Kelvin.  Pressure   1.00000 Atm.
 Atom     1 has atomic number  6 and mass  12.00000

 Molecular mass:   102.07931 amu.
 Principal axes and moments of inertia in atomic units:
                           1         2         3
     Eigenvalues --   536.97213 727.36863 863.52502
           X            0.99951  -0.03142  -0.00001
           Y            0.03142   0.99951   0.00000
           Z            0.00001  -0.00000   1.00000
 This molecule is an asymmetric top.
 Rotational symmetry number  1.
 Warning -- assumption of classical behavior for rotation
           may cause significant error
 Rotational temperatures (Kelvin)      0.16130     0.11908     0.10030
 Rotational constants (GHZ):           3.36096     2.48119     2.08997
 Zero-point vibrational energy     385356.1 (Joules/Mol)
                                   92.10231 (Kcal/Mol)
 Warning -- explicit consideration of  11 degrees of freedom as
           vibrations may cause significant error
 Vibrational temperatures:     83.60   279.82   364.93   387.00   418.48
          (Kelvin)            426.01   515.25   546.52   548.22   751.77
                              822.49  1011.34  1102.15  1198.22  1339.83
                             1350.27  1354.80  1397.25  1514.57  1516.43
                             1753.32  1812.58  1820.33  1843.93  2002.60
                             2011.88  2050.86  2112.54  2130.82  2143.34
                             2150.46  2153.48  2176.21  2199.89  2295.33
                             4385.37  4385.42  4395.38  4485.59  4487.22
                             4498.28  4525.97  4528.29  4534.21  4883.01

 Zero-point correction=                           0.146774 (Hartree/Particle)
 Thermal correction to Energy=                    0.154813
 Thermal correction to Enthalpy=                  0.155757
 Thermal correction to Gibbs Free Energy=         0.114924
 Sum of electronic and zero-point Energies=           -342.981301
 Sum of electronic and thermal Energies=              -342.973263
 Sum of electronic and thermal Enthalpies=            -342.972319
 Sum of electronic and thermal Free Energies=         -343.013152

                     E (Thermal)             CV                S
                      KCal/Mol        Cal/Mol-Kelvin    Cal/Mol-Kelvin
 Total                   97.146             29.641             85.939
 Electronic               0.000              0.000              0.000
 Translational            0.889              2.981             39.779
 Rotational               0.889              2.981             27.314
 Vibrational             95.369             23.679             18.846
 Vibration     1          0.596              1.974              4.520
 Vibration     2          0.635              1.848              2.185
 Vibration     3          0.665              1.757              1.705
 Vibration     4          0.673              1.730              1.603
 Vibration     5          0.687              1.691              1.469
 Vibration     6          0.690              1.681              1.439
 Vibration     7          0.733              1.559              1.130
 Vibration     8          0.750              1.513              1.040
 Vibration     9          0.751              1.511              1.035
 Vibration    10          0.877              1.200              0.604
 Vibration    11          0.928              1.093              0.501

 Optimization completed.
    -- Stationary point found.
 Normal termination of Gaussian 09 at Fri Aug 26 06:45:31 2022.

 -----------------------------------------------------------------
 #P Geom=AllCheck Guess=TCheck SCRF=Check CCSD(T,E4T,FrzG4)/GTBas1
 -----------------------------------------------------------------

 Structure from the checkpoint file:  "G4.Frag_923.chk"
 --------
 Frag_923
 --------
 Charge =  0 Multiplicity = 1

 SCF Done:  E(RHF) =  -340.949207745     A.U. after   14 cycles
 E2 =    -0.1057474807D+01 EUMP2 =    -0.34200668255146D+03
 CCSD(T)
 CCSD(T)= -0.34209559833D+03
 -342.0568038\CCSD=-342.0549372\CCSD(T)=-342.0955983\RMSD=4.819e-09\PG=
 Normal termination of Gaussian 09 at Fri Aug 26 06:50:26 2022.

 ---------------------------------------------------------
 #P Geom=AllCheck Guess=TCheck SCRF=Check MP4=FrzG4/GTBas2
 ---------------------------------------------------------

 Structure from the checkpoint file:  "G4.Frag_923.chk"
 --------
 Frag_923
 --------
 Charge =  0 Multiplicity = 1

 SCF Done:  E(RHF) =  -340.957725582     A.U. after   13 cycles
 E2 =    -0.1071550763D+01 EUMP2 =    -0.34202927634547D+03
 Normal termination of Gaussian 09 at Fri Aug 26 06:51:50 2022.

 ---------------------------------------------------------
 #P Geom=AllCheck Guess=TCheck SCRF=Check MP4=FrzG4/GTBas3
 ---------------------------------------------------------

 Structure from the checkpoint file:  "G4.Frag_923.chk"
 --------
 Frag_923
 --------
 Charge =  0 Multiplicity = 1

 SCF Done:  E(RHF) =  -340.989946907     A.U. after   12 cycles
 E2 =    -0.1290646624D+01 EUMP2 =    -0.34228059353012D+03
 Normal termination of Gaussian 09 at Fri Aug 26 07:03:11 2022.

 -----------------------------------------------------------
 #P Geom=AllCheck Guess=TCheck SCRF=Check MP2=Full/GTLargeXP
 -----------------------------------------------------------

 Structure from the checkpoint file:  "G4.Frag_923.chk"
 --------
 Frag_923
 --------
 Charge =  0 Multiplicity = 1

 SCF Done:  E(RHF) =  -341.072308792     A.U. after   13 cycles
 E2 =    -0.1678438068D+01 EUMP2 =    -0.34275074685970D+03
 Normal termination of Gaussian 09 at Fri Aug 26 07:06:57 2022.
 SCF Done:  E(RHF) =  -341.099580916     A.U. after   10 cycles
 Normal termination of Gaussian 09 at Fri Aug 26 07:11:01 2022.

                         Standard orientation:
 ---------------------------------------------------------------------
 Center     Atomic      Atomic             Coordinates (Angstroms)
 Number     Number       Type             X           Y           Z
 ---------------------------------------------------------------------
      1          6           0       -0.989866    0.738716    1.265729
      2          6           0       -0.567123   -0.018852    0.000027
      3          6           0       -0.989681    0.738288   -1.266099
      4          6           0       -1.102994   -1.448846    0.000222
      5          7           0        0.965815   -0.015627    0.000095
      6          7           0        1.548688   -1.138970    0.000031
      7          8           0        1.512696    1.101734    0.000056
      8          1           0       -2.079122    0.831395    1.283612
      9          1           0       -0.546805    1.735281    1.280926
     10          1           0       -0.678220    0.200352    2.165829
     11          1           0       -0.547057    1.735026   -1.281283
     12          1           0       -0.677261    0.199825   -2.165867
     13          1           0       -2.078985    0.830431   -1.284565
     14          1           0       -0.776461   -2.000039    0.883650
     15          1           0       -0.775867   -2.000612   -0.882629
     16          1           0       -2.196842   -1.405893   -0.000176
     17          1           0        2.551519   -0.913291   -0.000090
 ---------------------------------------------------------------------

 SCF Done:  E(RHF) =  -341.105151350     A.U. after    7 cycles

 The electronic state is 1-A.
 Alpha  occ. eigenvalues --  -20.54999 -15.77946 -15.60276 -11.30447 -11.23107
 Alpha  occ. eigenvalues --  -11.23105 -11.22869  -1.51499  -1.26570  -1.13112
 Alpha  occ. eigenvalues --   -0.95551  -0.95246  -0.93242  -0.76183  -0.71514
 Alpha  occ. eigenvalues --   -0.69129  -0.67339  -0.61586  -0.60512  -0.57115
 Alpha  occ. eigenvalues --   -0.55888  -0.54958  -0.53113  -0.49373  -0.49155
 Alpha  occ. eigenvalues --   -0.48673  -0.44265  -0.39228
 Alpha virt. eigenvalues --    0.03077   0.04075   0.04203   0.05046   0.06751
 Alpha virt. eigenvalues --    0.06962   0.07082   0.07252   0.07782   0.09743
 Alpha virt. eigenvalues --    0.10055   0.10120   0.10977   0.12012   0.12497

 Mulliken charges:
               1
     1  C   -0.594233
     2  C    0.396449
     3  C   -0.594198
     4  C   -0.584639
     5  N    0.446682
     6  N   -0.541204
     7  O   -0.570401
     8  H    0.179655
     9  H    0.214256
    10  H    0.180665
    11  H    0.214230
    12  H    0.180682
    13  H    0.179658
    14  H    0.191283
    15  H    0.191354
    16  H    0.184214
    17  H    0.325549
 Sum of Mulliken charges =  -0.00000

 Dipole moment (field-independent basis, Debye):
    X=             -2.3069    Y=             -0.9141    Z=             -0.0003  Tot=              2.4814
 Quadrupole moment (field-independent basis, Debye-Ang):
   XX=            -42.5777   YY=            -48.3998   ZZ=            -43.0797
   XY=             -3.3517   XZ=             -0.0004   YZ=              0.0003

 Normal termination of Gaussian 09 at Fri Aug 26 07:22:28 2022.
