 Gaussian 09, Revision E.01,
 Gaussian 09:  ES64L-G09RevE.01 30-Nov-2015

 -----
 #P G4
 -----

 --------
 Frag_597
 --------
 Symbolic Z-matrix:
 Charge =  0 Multiplicity = 1

 SCF Done:  E(RB3LYP) =  -209.176343913     A.U. after   13 cycles
 SCF Done:  E(RB3LYP) =  -209.191493362     A.U. after   12 cycles
 SCF Done:  E(RB3LYP) =  -209.192139211     A.U. after   11 cycles
 SCF Done:  E(RB3LYP) =  -209.192181861     A.U. after   10 cycles
 SCF Done:  E(RB3LYP) =  -209.192186164     A.U. after    8 cycles
 Optimization completed.
    -- Stationary point found.
 Normal termination of Gaussian 09 at Fri Aug 26 12:05:09 2022.

 ----------------------------------------------------------
 #P Geom=AllCheck Guess=TCheck SCRF=Check B3LYP/GTBas3 Freq
 ----------------------------------------------------------

 Structure from the checkpoint file:  "G4.Frag_597.chk"
 --------
 Frag_597
 --------
 Charge =  0 Multiplicity = 1

 SCF Done:  E(RB3LYP) =  -209.192186164     A.U. after    1 cycles

  Exact polarizability:  42.602  -1.399  33.004   0.000  -0.000  22.349
 Approx polarizability:  55.432  -7.969  53.136   0.000  -0.000  31.790

                      1                      2                      3
                      A                      A                      A
 Frequencies --    172.6904               309.4312               316.7304
 Red. masses --      1.0665                 2.3682                 3.2543
 Frc consts  --      0.0187                 0.1336                 0.1923
 IR Inten    --      0.0514                46.3924                14.5343

                      4                      5                      6
                      A                      A                      A
 Frequencies --    725.1327               837.4321               940.5629
 Red. masses --      3.5174                 1.3106                 4.0868
 Frc consts  --      1.0897                 0.5415                 2.1302
 IR Inten    --      5.3347                34.3584                50.2144

                      7                      8                      9
                      A                      A                      A
 Frequencies --   1044.2556              1087.9207              1181.0542
 Red. masses --      1.3506                 1.6773                 1.2820
 Frc consts  --      0.8677                 1.1696                 1.0536
 IR Inten    --      2.4604               128.2850                 1.0962

                     10                     11                     12
                      A                      A                      A
 Frequencies --   1219.9787              1312.9814              1400.8643
 Red. masses --      1.5033                 2.2041                 1.3543
 Frc consts  --      1.3182                 2.2388                 1.5658
 IR Inten    --     26.6431               129.1210                23.0334

                     13                     14                     15
                      A                      A                      A
 Frequencies --   1470.0944              1477.6249              1498.4596
 Red. masses --      1.2146                 1.0467                 1.0508
 Frc consts  --      1.5466                 1.3465                 1.3901
 IR Inten    --      7.2081                 6.5426                12.0960

                     16                     17                     18
                      A                      A                      A
 Frequencies --   1722.9857              3045.9080              3085.4215
 Red. masses --      5.7919                 1.0298                 1.0907
 Frc consts  --     10.1307                 5.6289                 6.1176
 IR Inten    --    214.3287                30.5032                39.3391

                     19                     20                     21
                      A                      A                      A
 Frequencies --   3117.7965              3153.5083              3517.6963
 Red. masses --      1.1050                 1.1059                 1.0762
 Frc consts  --      6.3287                 6.4798                 7.8460
 IR Inten    --     21.3012                18.6710                 2.9515

 - Thermochemistry -
 -------------------
 Temperature   298.150 Kelvin.  Pressure   1.00000 Atm.
 Atom     1 has atomic number  6 and mass  12.00000

 Molecular mass:    59.03711 amu.
 Principal axes and moments of inertia in atomic units:
                           1         2         3
     Eigenvalues --    92.25325 269.20634 350.13454
           X            0.99794   0.06419   0.00000
           Y           -0.06419   0.99794   0.00000
           Z           -0.00000  -0.00000   1.00000
 This molecule is an asymmetric top.
 Rotational symmetry number  1.
 Rotational temperatures (Kelvin)      0.93887     0.32174     0.24737
 Rotational constants (GHZ):          19.56290     6.70393     5.15442
 Zero-point vibrational energy     195221.8 (Joules/Mol)
                                   46.65912 (Kcal/Mol)
 Warning -- explicit consideration of   3 degrees of freedom as
           vibrations may cause significant error
 Vibrational temperatures:    248.46   445.20   455.70  1043.30  1204.88
          (Kelvin)           1353.26  1502.45  1565.27  1699.27  1755.28
                             1889.08  2015.53  2115.14  2125.97  2155.95
                             2478.99  4382.38  4439.23  4485.81  4537.19
                             5061.17

 Zero-point correction=                           0.074356 (Hartree/Particle)
 Thermal correction to Energy=                    0.078946
 Thermal correction to Enthalpy=                  0.079890
 Thermal correction to Gibbs Free Energy=         0.047670
 Sum of electronic and zero-point Energies=           -209.117830
 Sum of electronic and thermal Energies=              -209.113241
 Sum of electronic and thermal Enthalpies=            -209.112296
 Sum of electronic and thermal Free Energies=         -209.144516

                     E (Thermal)             CV                S
                      KCal/Mol        Cal/Mol-Kelvin    Cal/Mol-Kelvin
 Total                   49.539             14.507             67.813
 Electronic               0.000              0.000              0.000
 Translational            0.889              2.981             38.147
 Rotational               0.889              2.981             23.679
 Vibrational             47.762              8.546              5.987
 Vibration     1          0.626              1.876              2.406
 Vibration     2          0.699              1.656              1.365
 Vibration     3          0.704              1.642              1.327

 Optimization completed.
    -- Stationary point found.
 Normal termination of Gaussian 09 at Fri Aug 26 12:05:22 2022.

 -----------------------------------------------------------------
 #P Geom=AllCheck Guess=TCheck SCRF=Check CCSD(T,E4T,FrzG4)/GTBas1
 -----------------------------------------------------------------

 Structure from the checkpoint file:  "G4.Frag_597.chk"
 --------
 Frag_597
 --------
 Charge =  0 Multiplicity = 1

 SCF Done:  E(RHF) =  -207.932358892     A.U. after   13 cycles
 E2 =    -0.5943157236D+00 EUMP2 =    -0.20852667461594D+03
 CCSD(T)
 CCSD(T)= -0.20857683192D+03
 5579\CCSD=-208.5574134\CCSD(T)=-208.5768319\RMSD=5.058e-09\PG=C01 [X(C
 Normal termination of Gaussian 09 at Fri Aug 26 12:05:42 2022.

 ---------------------------------------------------------
 #P Geom=AllCheck Guess=TCheck SCRF=Check MP4=FrzG4/GTBas2
 ---------------------------------------------------------

 Structure from the checkpoint file:  "G4.Frag_597.chk"
 --------
 Frag_597
 --------
 Charge =  0 Multiplicity = 1

 SCF Done:  E(RHF) =  -207.939683231     A.U. after   12 cycles
 E2 =    -0.6027714070D+00 EUMP2 =    -0.20854245463805D+03
 Normal termination of Gaussian 09 at Fri Aug 26 12:05:49 2022.

 ---------------------------------------------------------
 #P Geom=AllCheck Guess=TCheck SCRF=Check MP4=FrzG4/GTBas3
 ---------------------------------------------------------

 Structure from the checkpoint file:  "G4.Frag_597.chk"
 --------
 Frag_597
 --------
 Charge =  0 Multiplicity = 1

 SCF Done:  E(RHF) =  -207.958097200     A.U. after   12 cycles
 E2 =    -0.7287942128D+00 EUMP2 =    -0.20868689141290D+03
 Normal termination of Gaussian 09 at Fri Aug 26 12:06:16 2022.

 -----------------------------------------------------------
 #P Geom=AllCheck Guess=TCheck SCRF=Check MP2=Full/GTLargeXP
 -----------------------------------------------------------

 Structure from the checkpoint file:  "G4.Frag_597.chk"
 --------
 Frag_597
 --------
 Charge =  0 Multiplicity = 1

 SCF Done:  E(RHF) =  -208.015117464     A.U. after   11 cycles
 E2 =    -0.9539300563D+00 EUMP2 =    -0.20896904752046D+03
 Normal termination of Gaussian 09 at Fri Aug 26 12:06:33 2022.
 SCF Done:  E(RHF) =  -208.031580852     A.U. after    9 cycles
 Normal termination of Gaussian 09 at Fri Aug 26 12:06:58 2022.

                         Standard orientation:
 ---------------------------------------------------------------------
 Center     Atomic      Atomic             Coordinates (Angstroms)
 Number     Number       Type             X           Y           Z
 ---------------------------------------------------------------------
      1          6           0       -1.373077   -0.444869    0.000001
      2          8           0       -0.540129    0.717563    0.000008
      3          6           0        0.779576    0.490581   -0.000025
      4          7           0        1.290803   -0.667530   -0.000001
      5          1           0       -2.398379   -0.073838    0.000023
      6          1           0       -1.183894   -1.055972   -0.886962
      7          1           0       -1.183867   -1.056006    0.886935
      8          1           0        1.305947    1.450216    0.000040
      9          1           0        2.306614   -0.606462    0.000050
 ---------------------------------------------------------------------

 SCF Done:  E(RHF) =  -208.035136266     A.U. after    7 cycles

 The electronic state is 1-A.
 Alpha  occ. eigenvalues --  -20.59379 -15.54137 -11.33912 -11.27767  -1.42943
 Alpha  occ. eigenvalues --   -1.19502  -0.97077  -0.80100  -0.73104  -0.66366
 Alpha  occ. eigenvalues --   -0.65670  -0.58610  -0.52071  -0.51566  -0.44336
 Alpha  occ. eigenvalues --   -0.40918
 Alpha virt. eigenvalues --    0.04038   0.04436   0.05495   0.05515   0.07193
 Alpha virt. eigenvalues --    0.07853   0.08047   0.11107   0.11967   0.13385
 Alpha virt. eigenvalues --    0.14684   0.15834   0.17437   0.17926   0.18640

 Mulliken charges:
               1
     1  C   -0.315064
     2  O   -0.298768
     3  C    0.223771
     4  N   -0.678261
     5  H    0.186147
     6  H    0.191361
     7  H    0.191364
     8  H    0.202638
     9  H    0.296814
 Sum of Mulliken charges =  -0.00000

 Dipole moment (field-independent basis, Debye):
    X=              0.2439    Y=              0.8245    Z=              0.0001  Tot=              0.8598
 Quadrupole moment (field-independent basis, Debye-Ang):
   XX=            -19.2169   YY=            -26.3324   ZZ=            -25.2854
   XY=              3.7325   XZ=              0.0002   YZ=             -0.0001

 Normal termination of Gaussian 09 at Fri Aug 26 12:09:12 2022.
