 Gaussian 09, Revision E.01,
 Gaussian 09:  ES64L-G09RevE.01 30-Nov-2015

 -----
 #P G4
 -----

 --------
 Frag_729
 --------
 Symbolic Z-matrix:
 Charge =  0 Multiplicity = 1

 SCF Done:  E(RB3LYP) =  -303.838812971     A.U. after   14 cycles
 SCF Done:  E(RB3LYP) =  -303.848692295     A.U. after   12 cycles
 SCF Done:  E(RB3LYP) =  -303.849280734     A.U. after   12 cycles
 SCF Done:  E(RB3LYP) =  -303.849507092     A.U. after   11 cycles
 SCF Done:  E(RB3LYP) =  -303.849719727     A.U. after   11 cycles
 SCF Done:  E(RB3LYP) =  -303.849878390     A.U. after   12 cycles
 SCF Done:  E(RB3LYP) =  -303.850118701     A.U. after   13 cycles
 SCF Done:  E(RB3LYP) =  -303.850518860     A.U. after   12 cycles
 SCF Done:  E(RB3LYP) =  -303.842831095     A.U. after   15 cycles
 SCF Done:  E(RB3LYP) =  -303.851049245     A.U. after   12 cycles
 SCF Done:  E(RB3LYP) =  -303.860691280     A.U. after   10 cycles
 SCF Done:  E(RB3LYP) =  -303.860693169     A.U. after    8 cycles
 SCF Done:  E(RB3LYP) =  -303.860693471     A.U. after    7 cycles
 Optimization completed.
    -- Stationary point found.
 Normal termination of Gaussian 09 at Fri Aug 26 06:10:09 2022.

 ----------------------------------------------------------
 #P Geom=AllCheck Guess=TCheck SCRF=Check B3LYP/GTBas3 Freq
 ----------------------------------------------------------

 Structure from the checkpoint file:  "G4.Frag_729.chk"
 --------
 Frag_729
 --------
 Charge =  0 Multiplicity = 1

 SCF Done:  E(RB3LYP) =  -303.860693471     A.U. after    1 cycles

  Exact polarizability:  58.113  -1.824  48.506  -0.748   3.019  43.566
 Approx polarizability:  84.726  -5.238  68.464  -4.437   7.006  63.967

                      1                      2                      3
                      A                      A                      A
 Frequencies --    129.5022               233.1380               273.0254
 Red. masses --      2.8514                 1.0725                 1.1240
 Frc consts  --      0.0282                 0.0343                 0.0494
 IR Inten    --      1.1083                 1.9190                60.1248

                      4                      5                      6
                      A                      A                      A
 Frequencies --    291.7404               304.1352               338.8520
 Red. masses --      1.5965                 3.2473                 1.3040
 Frc consts  --      0.0801                 0.1770                 0.0882
 IR Inten    --     24.8765                 1.2219                32.0781

                      7                      8                      9
                      A                      A                      A
 Frequencies --    381.2492               456.9581               475.7105
 Red. masses --      2.6970                 3.0113                 2.8944
 Frc consts  --      0.2310                 0.3705                 0.3859
 IR Inten    --      4.0303                10.8361                46.6491

                     10                     11                     12
                      A                      A                      A
 Frequencies --    608.4910               781.3358               833.6329
 Red. masses --      2.9809                 4.1137                 1.6148
 Frc consts  --      0.6503                 1.4796                 0.6612
 IR Inten    --     27.5037                21.7818                59.5349

                     13                     14                     15
                      A                      A                      A
 Frequencies --    843.3922               917.9780               972.2525
 Red. masses --      2.0614                 2.4042                 1.7089
 Frc consts  --      0.8639                 1.1937                 0.9517
 IR Inten    --     13.4569                77.4657                 2.9713

                     16                     17                     18
                      A                      A                      A
 Frequencies --   1022.8706              1114.0339              1174.4895
 Red. masses --      1.5988                 1.8332                 1.0799
 Frc consts  --      0.9856                 1.3404                 0.8777
 IR Inten    --      5.9742               126.0561                52.9687

                     19                     20                     21
                      A                      A                      A
 Frequencies --   1205.4819              1246.1806              1284.4462
 Red. masses --      1.6118                 1.4270                 2.0157
 Frc consts  --      1.3800                 1.3057                 1.9593
 IR Inten    --     59.5641                52.4268                50.4368

                     22                     23                     24
                      A                      A                      A
 Frequencies --   1387.3524              1400.9364              1422.1929
 Red. masses --      1.5250                 1.3341                 1.3487
 Frc consts  --      1.7294                 1.5426                 1.6072
 IR Inten    --     24.6459                13.3183                25.9537

                     25                     26                     27
                      A                      A                      A
 Frequencies --   1486.1822              1495.7494              1653.4295
 Red. masses --      1.0475                 1.0946                 1.1195
 Frc consts  --      1.3632                 1.4428                 1.8032
 IR Inten    --      2.3346                 5.7627                30.5954

                     28                     29                     30
                      A                      A                      A
 Frequencies --   1742.8437              3023.7552              3099.4736
 Red. masses --      8.0743                 1.0447                 1.0891
 Frc consts  --     14.4501                 5.6275                 6.1646
 IR Inten    --     38.0917                21.9871                22.2906

                     31                     32                     33
                      A                      A                      A
 Frequencies --   3105.2282              3140.5801              3386.3286
 Red. masses --      1.0895                 1.1033                 1.0714
 Frc consts  --      6.1893                 6.4118                 7.2384
 IR Inten    --     18.5383                12.1530                 3.2487

                     34                     35                     36
                      A                      A                      A
 Frequencies --   3500.5653              3585.3159              3798.6526
 Red. masses --      1.0482                 1.0938                 1.0661
 Frc consts  --      7.5679                 8.2843                 9.0634
 IR Inten    --      1.3248                 3.0815                11.0120

 - Thermochemistry -
 -------------------
 Temperature   298.150 Kelvin.  Pressure   1.00000 Atm.
 Atom     1 has atomic number  6 and mass  12.00000

 Molecular mass:    88.06366 amu.
 Principal axes and moments of inertia in atomic units:
                           1         2         3
     Eigenvalues --   377.84705 632.47830 641.75235
           X            0.99918   0.01315   0.03835
           Y            0.01401   0.77567  -0.63099
           Z           -0.03805   0.63100   0.77485
 This molecule is an asymmetric top.
 Rotational symmetry number  1.
 Rotational temperatures (Kelvin)      0.22923     0.13694     0.13496
 Rotational constants (GHZ):           4.77638     2.85344     2.81221
 Zero-point vibrational energy     311731.8 (Joules/Mol)
                                   74.50568 (Kcal/Mol)
 Warning -- explicit consideration of  10 degrees of freedom as
           vibrations may cause significant error
 Vibrational temperatures:    186.32   335.43   392.82   419.75   437.58
          (Kelvin)            487.53   548.53   657.46   684.44   875.48
                             1124.17  1199.41  1213.45  1320.76  1398.85
                             1471.68  1602.84  1689.83  1734.42  1792.97
                             1848.03  1996.09  2015.63  2046.22  2138.28
                             2152.05  2378.91  2507.56  4350.50  4459.45
                             4467.73  4518.59  4872.17  5036.53  5158.46
                             5465.41

 Zero-point correction=                           0.118732 (Hartree/Particle)
 Thermal correction to Energy=                    0.125880
 Thermal correction to Enthalpy=                  0.126824
 Thermal correction to Gibbs Free Energy=         0.088579
 Sum of electronic and zero-point Energies=           -303.741961
 Sum of electronic and thermal Energies=              -303.734814
 Sum of electronic and thermal Enthalpies=            -303.733870
 Sum of electronic and thermal Free Energies=         -303.772114

                     E (Thermal)             CV                S
                      KCal/Mol        Cal/Mol-Kelvin    Cal/Mol-Kelvin
 Total                   78.991             26.191             80.492
 Electronic               0.000              0.000              0.000
 Translational            0.889              2.981             39.339
 Rotational               0.889              2.981             26.531
 Vibrational             77.213             20.230             14.623
 Vibration     1          0.612              1.924              2.953
 Vibration     2          0.654              1.790              1.855
 Vibration     3          0.676              1.723              1.577
 Vibration     4          0.687              1.689              1.464
 Vibration     5          0.695              1.666              1.394
 Vibration     6          0.719              1.598              1.218
 Vibration     7          0.751              1.510              1.034
 Vibration     8          0.815              1.346              0.775
 Vibration     9          0.832              1.304              0.722
 Vibration    10          0.967              1.014              0.435

 Optimization completed.
    -- Stationary point found.
 Normal termination of Gaussian 09 at Fri Aug 26 06:10:42 2022.

 -----------------------------------------------------------------
 #P Geom=AllCheck Guess=TCheck SCRF=Check CCSD(T,E4T,FrzG4)/GTBas1
 -----------------------------------------------------------------

 Structure from the checkpoint file:  "G4.Frag_729.chk"
 --------
 Frag_729
 --------
 Charge =  0 Multiplicity = 1

 SCF Done:  E(RHF) =  -301.988436608     A.U. after   12 cycles
 E2 =    -0.8939015749D+00 EUMP2 =    -0.30288233818340D+03
 CCSD(T)
 CCSD(T)= -0.30295961377D+03
 DQ=-302.9308955\CCSD=-302.9312307\CCSD(T)=-302.9596138\RMSD=5.618e-09\
 Normal termination of Gaussian 09 at Fri Aug 26 06:12:39 2022.

 ---------------------------------------------------------
 #P Geom=AllCheck Guess=TCheck SCRF=Check MP4=FrzG4/GTBas2
 ---------------------------------------------------------

 Structure from the checkpoint file:  "G4.Frag_729.chk"
 --------
 Frag_729
 --------
 Charge =  0 Multiplicity = 1

 SCF Done:  E(RHF) =  -301.999739549     A.U. after   13 cycles
 E2 =    -0.9089358054D+00 EUMP2 =    -0.30290867535457D+03
 Normal termination of Gaussian 09 at Fri Aug 26 06:13:16 2022.

 ---------------------------------------------------------
 #P Geom=AllCheck Guess=TCheck SCRF=Check MP4=FrzG4/GTBas3
 ---------------------------------------------------------

 Structure from the checkpoint file:  "G4.Frag_729.chk"
 --------
 Frag_729
 --------
 Charge =  0 Multiplicity = 1

 SCF Done:  E(RHF) =  -302.031317785     A.U. after   12 cycles
 E2 =    -0.1094531426D+01 EUMP2 =    -0.30312584921089D+03
 Normal termination of Gaussian 09 at Fri Aug 26 06:16:44 2022.

 -----------------------------------------------------------
 #P Geom=AllCheck Guess=TCheck SCRF=Check MP2=Full/GTLargeXP
 -----------------------------------------------------------

 Structure from the checkpoint file:  "G4.Frag_729.chk"
 --------
 Frag_729
 --------
 Charge =  0 Multiplicity = 1

 SCF Done:  E(RHF) =  -302.111581631     A.U. after   13 cycles
 E2 =    -0.1431895755D+01 EUMP2 =    -0.30354347738582D+03
 Normal termination of Gaussian 09 at Fri Aug 26 06:18:47 2022.
 SCF Done:  E(RHF) =  -302.135236211     A.U. after    8 cycles
 Normal termination of Gaussian 09 at Fri Aug 26 06:20:39 2022.

                         Standard orientation:
 ---------------------------------------------------------------------
 Center     Atomic      Atomic             Coordinates (Angstroms)
 Number     Number       Type             X           Y           Z
 ---------------------------------------------------------------------
      1          6           0       -1.003459    0.741626   -1.109464
      2          6           0       -0.337757   -0.020060    0.044469
      3          7           0       -0.200378   -1.417056   -0.312474
      4          8           0       -1.049517    0.202898    1.266063
      5          6           0        1.047951    0.571384    0.318099
      6          7           0        2.156964    0.107465   -0.072628
      7          1           0       -2.028153    0.378046   -1.261978
      8          1           0       -1.053808    1.808028   -0.878418
      9          1           0       -0.446979    0.602923   -2.039141
     10          1           0        0.024712   -1.958698    0.516669
     11          1           0       -1.062196   -1.785440   -0.701333
     12          1           0       -1.979223    0.004062    1.108692
     13          1           0        1.023180    1.496314    0.901225
     14          1           0        1.982093   -0.758978   -0.597133
 ---------------------------------------------------------------------

 SCF Done:  E(RHF) =  -302.140328434     A.U. after    8 cycles

 The electronic state is 1-A.
 Alpha  occ. eigenvalues --  -20.57172 -15.56180 -15.54598 -11.33462 -11.27331
 Alpha  occ. eigenvalues --  -11.23812  -1.38782  -1.22169  -1.17788  -1.01361
 Alpha  occ. eigenvalues --   -0.89537  -0.77852  -0.71265  -0.68995  -0.65689
 Alpha  occ. eigenvalues --   -0.63127  -0.58338  -0.56366  -0.55149  -0.54311
 Alpha  occ. eigenvalues --   -0.49042  -0.43371  -0.42954  -0.41383
 Alpha virt. eigenvalues --    0.02793   0.04166   0.04978   0.05094   0.06862
 Alpha virt. eigenvalues --    0.07050   0.07399   0.07496   0.08719   0.10524
 Alpha virt. eigenvalues --    0.11464   0.12293   0.12483   0.13206   0.13416

 Mulliken charges:
               1
     1  C   -0.556970
     2  C    0.437548
     3  N   -0.778236
     4  O   -0.575674
     5  C    0.029929
     6  N   -0.616435
     7  H    0.155277
     8  H    0.192846
     9  H    0.198162
    10  H    0.324424
    11  H    0.293588
    12  H    0.363562
    13  H    0.224374
    14  H    0.307605
 Sum of Mulliken charges =  -0.00000

 Dipole moment (field-independent basis, Debye):
    X=             -4.2126    Y=             -1.0819    Z=             -1.0045  Tot=              4.4638
 Quadrupole moment (field-independent basis, Debye-Ang):
   XX=            -41.1189   YY=            -34.3580   ZZ=            -39.6991
   XY=              0.2150   XZ=              0.8520   YZ=             -1.1835

 Normal termination of Gaussian 09 at Fri Aug 26 06:28:02 2022.
