 Gaussian 09, Revision E.01,
 Gaussian 09:  ES64L-G09RevE.01 30-Nov-2015

 -----
 #P G4
 -----

 ---------
 Frag_1028
 ---------
 Symbolic Z-matrix:
 Charge =  0 Multiplicity = 1

 SCF Done:  E(RB3LYP) =  -343.149594353     A.U. after   14 cycles
 SCF Done:  E(RB3LYP) =  -343.166523102     A.U. after   11 cycles
 SCF Done:  E(RB3LYP) =  -343.168412200     A.U. after   12 cycles
 SCF Done:  E(RB3LYP) =  -343.169190821     A.U. after   12 cycles
 SCF Done:  E(RB3LYP) =  -343.169443443     A.U. after   11 cycles
 SCF Done:  E(RB3LYP) =  -343.169497583     A.U. after   11 cycles
 SCF Done:  E(RB3LYP) =  -343.169506866     A.U. after    9 cycles
 SCF Done:  E(RB3LYP) =  -343.169508826     A.U. after    7 cycles
 SCF Done:  E(RB3LYP) =  -343.169509269     A.U. after    7 cycles
 Optimization completed.
    -- Stationary point found.
 Normal termination of Gaussian 09 at Fri Aug 19 22:26:18 2022.

 ----------------------------------------------------------
 #P Geom=AllCheck Guess=TCheck SCRF=Check B3LYP/GTBas3 Freq
 ----------------------------------------------------------

 Structure from the checkpoint file:  "G4.Frag_1028.chk"
 ---------
 Frag_1028
 ---------
 Charge =  0 Multiplicity = 1

 SCF Done:  E(RB3LYP) =  -343.169509269     A.U. after    1 cycles

  Exact polarizability:  71.361   5.697  65.054   0.837   1.025  50.416
 Approx polarizability:  96.127  10.466 100.601   2.355   3.549  72.783

                      1                      2                      3
                      A                      A                      A
 Frequencies --     72.8440               220.1639               267.5720
 Red. masses --      4.1502                 1.4306                 1.5256
 Frc consts  --      0.0130                 0.0409                 0.0644
 IR Inten    --      0.1518                 6.0934                12.7092

                      4                      5                      6
                      A                      A                      A
 Frequencies --    283.9700               287.2689               309.5124
 Red. masses --      1.5944                 1.3922                 1.3746
 Frc consts  --      0.0758                 0.0677                 0.0776
 IR Inten    --     10.0198                 4.6089                41.6938

                      7                      8                      9
                      A                      A                      A
 Frequencies --    370.4970               398.0489               416.6808
 Red. masses --      2.5494                 2.5817                 1.6051
 Frc consts  --      0.2062                 0.2410                 0.1642
 IR Inten    --      4.8752                12.3891                25.4208

                     10                     11                     12
                      A                      A                      A
 Frequencies --    443.0635               508.3325               532.0109
 Red. masses --      1.6330                 2.8583                 2.6965
 Frc consts  --      0.1889                 0.4352                 0.4497
 IR Inten    --     75.3087                11.8974                24.4985

                     13                     14                     15
                      A                      A                      A
 Frequencies --    676.6568               713.4381               755.9126
 Red. masses --      2.9456                 3.1052                 1.2477
 Frc consts  --      0.7946                 0.9312                 0.4201
 IR Inten    --      3.0884                 3.2922                 0.7694

                     16                     17                     18
                      A                      A                      A
 Frequencies --    843.9519               849.4951               897.6809
 Red. masses --      1.4302                 1.9113                 1.7386
 Frc consts  --      0.6002                 0.8127                 0.8255
 IR Inten    --     93.8644                38.1244               149.9200

                     19                     20                     21
                      A                      A                      A
 Frequencies --    936.0804               968.5197               985.5635
 Red. masses --      1.3453                 1.7564                 1.7051
 Frc consts  --      0.6945                 0.9707                 0.9758
 IR Inten    --     28.1913                 1.7586                11.6867

                     22                     23                     24
                      A                      A                      A
 Frequencies --   1040.8146              1089.7512              1165.9813
 Red. masses --      1.6632                 1.6432                 1.8550
 Frc consts  --      1.0616                 1.1497                 1.4859
 IR Inten    --     43.1127                66.3143               115.9053

                     25                     26                     27
                      A                      A                      A
 Frequencies --   1222.5705              1293.3194              1340.7213
 Red. masses --      2.2261                 1.8818                 1.6626
 Frc consts  --      1.9604                 1.8545                 1.7609
 IR Inten    --     28.6727                18.9370                12.3061

                     28                     29                     30
                      A                      A                      A
 Frequencies --   1391.2884              1403.9953              1444.6548
 Red. masses --      1.7733                 1.3690                 1.2867
 Frc consts  --      2.0224                 1.5900                 1.5822
 IR Inten    --     21.5248                 5.9499                20.6611

                     31                     32                     33
                      A                      A                      A
 Frequencies --   1481.1733              1503.6631              1635.2288
 Red. masses --      1.0487                 1.1065                 1.1203
 Frc consts  --      1.3555                 1.4740                 1.7650
 IR Inten    --      0.9733                 1.9309                42.8401

                     34                     35                     36
                      A                      A                      A
 Frequencies --   1651.6244              1717.8892              3033.1821
 Red. masses --      1.1024                 5.5378                 1.0407
 Frc consts  --      1.7717                 9.6289                 5.6414
 IR Inten    --     26.7305                96.1724                23.8814

                     37                     38                     39
                      A                      A                      A
 Frequencies --   3102.1054              3149.4324              3152.3343
 Red. masses --      1.0980                 1.0984                 1.0681
 Frc consts  --      6.2256                 6.4189                 6.2535
 IR Inten    --     26.8914                 9.7107                15.9606

                     40                     41                     42
                      A                      A                      A
 Frequencies --   3273.8109              3467.2236              3475.9664
 Red. masses --      1.1076                 1.0491                 1.0484
 Frc consts  --      6.9945                 7.4307                 7.4634
 IR Inten    --      1.4529                 0.9089                 1.6198

                     43                     44                     45
                      A                      A                      A
 Frequencies --   3551.3356              3561.7151              3812.8675
 Red. masses --      1.0920                 1.0923                 1.0655
 Frc consts  --      8.1142                 8.1645                 9.1262
 IR Inten    --      0.4114                 0.6985                26.6960

 - Thermochemistry -
 -------------------
 Temperature   298.150 Kelvin.  Pressure   1.00000 Atm.
 Atom     1 has atomic number  6 and mass  12.00000

 Molecular mass:   102.07931 amu.
 Principal axes and moments of inertia in atomic units:
                           1         2         3
     Eigenvalues --   538.24009 750.76034 921.35561
           X            0.99804   0.06123  -0.01271
           Y           -0.06158   0.99768  -0.02904
           Z            0.01090   0.02977   0.99950
 This molecule is an asymmetric top.
 Rotational symmetry number  1.
 Warning -- assumption of classical behavior for rotation
           may cause significant error
 Rotational temperatures (Kelvin)      0.16092     0.11537     0.09401
 Rotational constants (GHZ):           3.35304     2.40388     1.95879
 Zero-point vibrational energy     386991.4 (Joules/Mol)
                                   92.49317 (Kcal/Mol)
 Warning -- explicit consideration of  12 degrees of freedom as
           vibrations may cause significant error
 Vibrational temperatures:    104.81   316.77   384.98   408.57   413.32
          (Kelvin)            445.32   533.06   572.70   599.51   637.47
                              731.38   765.44   973.56  1026.48  1087.59
                             1214.26  1222.23  1291.56  1346.81  1393.48
                             1418.00  1497.50  1567.91  1677.58  1759.00
                             1860.80  1929.00  2001.75  2020.03  2078.53
                             2131.08  2163.43  2352.73  2376.32  2471.66
                             4364.07  4463.23  4531.33  4535.50  4710.28
                             4988.56  5001.13  5109.57  5124.51  5485.86

 Zero-point correction=                           0.147397 (Hartree/Particle)
 Thermal correction to Energy=                    0.155716
 Thermal correction to Enthalpy=                  0.156660
 Thermal correction to Gibbs Free Energy=         0.115682
 Sum of electronic and zero-point Energies=           -343.022112
 Sum of electronic and thermal Energies=              -343.013793
 Sum of electronic and thermal Enthalpies=            -343.012849
 Sum of electronic and thermal Free Energies=         -343.053828

                     E (Thermal)             CV                S
                      KCal/Mol        Cal/Mol-Kelvin    Cal/Mol-Kelvin
 Total                   97.713             31.982             86.246
 Electronic               0.000              0.000              0.000
 Translational            0.889              2.981             39.779
 Rotational               0.889              2.981             27.412
 Vibrational             95.936             26.021             19.055
 Vibration     1          0.599              1.967              4.075
 Vibration     2          0.647              1.810              1.958
 Vibration     3          0.673              1.733              1.612
 Vibration     4          0.682              1.703              1.510
 Vibration     5          0.684              1.697              1.490
 Vibration     6          0.699              1.656              1.365
 Vibration     7          0.742              1.533              1.078
 Vibration     8          0.764              1.474              0.970
 Vibration     9          0.780              1.434              0.903
 Vibration    10          0.803              1.376              0.817
 Vibration    11          0.864              1.232              0.638
 Vibration    12          0.887              1.179              0.583

 Optimization completed.
    -- Stationary point found.
 Normal termination of Gaussian 09 at Fri Aug 19 22:31:21 2022.

 -----------------------------------------------------------------
 #P Geom=AllCheck Guess=TCheck SCRF=Check CCSD(T,E4T,FrzG4)/GTBas1
 -----------------------------------------------------------------

 Structure from the checkpoint file:  "G4.Frag_1028.chk"
 ---------
 Frag_1028
 ---------
 Charge =  0 Multiplicity = 1

 SCF Done:  E(RHF) =  -341.007681460     A.U. after   12 cycles
 E2 =    -0.1027422410D+01 EUMP2 =    -0.34203510387031D+03
 CCSD(T)
 CCSD(T)= -0.34212726113D+03
 42.0937225\CCSD=-342.094303\CCSD(T)=-342.1272611\RMSD=6.378e-09\PG=C01
 Normal termination of Gaussian 09 at Fri Aug 19 22:46:59 2022.

 ---------------------------------------------------------
 #P Geom=AllCheck Guess=TCheck SCRF=Check MP4=FrzG4/GTBas2
 ---------------------------------------------------------

 Structure from the checkpoint file:  "G4.Frag_1028.chk"
 ---------
 Frag_1028
 ---------
 Charge =  0 Multiplicity = 1

 SCF Done:  E(RHF) =  -341.020820932     A.U. after   12 cycles
 E2 =    -0.1044469838D+01 EUMP2 =    -0.34206529076952D+03
 Normal termination of Gaussian 09 at Fri Aug 19 23:07:14 2022.

 ---------------------------------------------------------
 #P Geom=AllCheck Guess=TCheck SCRF=Check MP4=FrzG4/GTBas3
 ---------------------------------------------------------

 Structure from the checkpoint file:  "G4.Frag_1028.chk"
 ---------
 Frag_1028
 ---------
 Charge =  0 Multiplicity = 1

 SCF Done:  E(RHF) =  -341.059096262     A.U. after   11 cycles
 E2 =    -0.1262986342D+01 EUMP2 =    -0.34232208260349D+03
 Normal termination of Gaussian 09 at Sat Aug 20 03:56:01 2022.

 -----------------------------------------------------------
 #P Geom=AllCheck Guess=TCheck SCRF=Check MP2=Full/GTLargeXP
 -----------------------------------------------------------

 Structure from the checkpoint file:  "G4.Frag_1028.chk"
 ---------
 Frag_1028
 ---------
 Charge =  0 Multiplicity = 1

 SCF Done:  E(RHF) =  -341.147684010     A.U. after   12 cycles
 E2 =    -0.1654025837D+01 EUMP2 =    -0.34280170984727D+03
 Normal termination of Gaussian 09 at Sat Aug 20 04:15:59 2022.
 SCF Done:  E(RHF) =  -341.174572104     A.U. after    9 cycles
 Normal termination of Gaussian 09 at Sat Aug 20 04:26:49 2022.

                         Standard orientation:
 ---------------------------------------------------------------------
 Center     Atomic      Atomic             Coordinates (Angstroms)
 Number     Number       Type             X           Y           Z
 ---------------------------------------------------------------------
      1          6           0       -1.717932   -1.120132   -0.075600
      2          6           0       -0.949650   -0.032104   -0.016014
      3          8           0       -1.432839    1.241518    0.041525
      4          6           0        0.578727   -0.044843    0.020069
      5          6           0        1.147784    1.078225   -0.868254
      6          7           0        0.981217    0.224708    1.400822
      7          7           0        1.036639   -1.385154   -0.398954
      8          1           0       -2.801497   -1.046859   -0.081789
      9          1           0       -1.274232   -2.103743   -0.096103
     10          1           0       -2.394610    1.202751    0.080669
     11          1           0        0.811036    2.059543   -0.532966
     12          1           0        0.839957    0.938644   -1.908555
     13          1           0        2.243196    1.048620   -0.832272
     14          1           0        0.754254   -0.589740    1.965142
     15          1           0        1.989692    0.347188    1.446595
     16          1           0        0.762836   -1.559502   -1.363570
     17          1           0        2.053499   -1.392794   -0.383633
 ---------------------------------------------------------------------

 SCF Done:  E(RHF) =  -341.180371759     A.U. after    8 cycles

 The electronic state is 1-A.
 Alpha  occ. eigenvalues --  -20.57989 -15.54282 -15.53913 -11.30023 -11.29426
 Alpha  occ. eigenvalues --  -11.21474 -11.20298  -1.40043  -1.23304  -1.12578
 Alpha  occ. eigenvalues --   -1.02089  -0.97785  -0.85821  -0.76186  -0.68998
 Alpha  occ. eigenvalues --   -0.67843  -0.65182  -0.62465  -0.60786  -0.58255
 Alpha  occ. eigenvalues --   -0.56073  -0.54603  -0.53687  -0.51628  -0.49182
 Alpha  occ. eigenvalues --   -0.41096  -0.40083  -0.34151
 Alpha virt. eigenvalues --    0.03303   0.04121   0.04754   0.05334   0.06315
 Alpha virt. eigenvalues --    0.06786   0.07119   0.07528   0.07809   0.09290
 Alpha virt. eigenvalues --    0.09765   0.10144   0.11715   0.12151   0.12614

 Mulliken charges:
               1
     1  C   -0.578804
     2  C    0.282229
     3  O   -0.584847
     4  C    0.503442
     5  C   -0.568140
     6  N   -0.760551
     7  N   -0.766315
     8  H    0.152924
     9  H    0.222347
    10  H    0.386338
    11  H    0.203610
    12  H    0.172546
    13  H    0.153437
    14  H    0.310036
    15  H    0.283207
    16  H    0.302623
    17  H    0.285917
 Sum of Mulliken charges =  -0.00000

 Dipole moment (field-independent basis, Debye):
    X=              0.5778    Y=             -0.5634    Z=             -1.1267  Tot=              1.3859
 Quadrupole moment (field-independent basis, Debye-Ang):
   XX=            -33.7608   YY=            -48.1523   ZZ=            -44.8828
   XY=             -1.6590   XZ=             -0.1026   YZ=             -0.7557

 Normal termination of Gaussian 09 at Sat Aug 20 09:12:30 2022.
