 Gaussian 09, Revision E.01,
 Gaussian 09:  ES64L-G09RevE.01 30-Nov-2015

 -----
 #P G4
 -----

 --------
 Frag_758
 --------
 Symbolic Z-matrix:
 Charge =  0 Multiplicity = 1

 SCF Done:  E(RB3LYP) =  -271.677559279     A.U. after   13 cycles
 SCF Done:  E(RB3LYP) =  -271.767188917     A.U. after   12 cycles
 SCF Done:  E(RB3LYP) =  -271.776301451     A.U. after   12 cycles
 SCF Done:  E(RB3LYP) =  -271.791279534     A.U. after   12 cycles
 SCF Done:  E(RB3LYP) =  -271.784561500     A.U. after   14 cycles
 SCF Done:  E(RB3LYP) =  -271.793336359     A.U. after   11 cycles
 SCF Done:  E(RB3LYP) =  -271.794000837     A.U. after   12 cycles
 SCF Done:  E(RB3LYP) =  -271.794400316     A.U. after   13 cycles
 SCF Done:  E(RB3LYP) =  -271.767411524     A.U. after   15 cycles
 SCF Done:  E(RB3LYP) =  -271.774230723     A.U. after   11 cycles
 SCF Done:  E(RB3LYP) =  -271.796342764     A.U. after    9 cycles
 SCF Done:  E(RB3LYP) =  -271.796345835     A.U. after    8 cycles
 SCF Done:  E(RB3LYP) =  -271.796346254     A.U. after    7 cycles
 Optimization completed.
    -- Stationary point found.
 Normal termination of Gaussian 09 at Tue Aug 30 11:41:43 2022.

 ----------------------------------------------------------
 #P Geom=AllCheck Guess=TCheck SCRF=Check B3LYP/GTBas3 Freq
 ----------------------------------------------------------

 Structure from the checkpoint file:  "G4.Frag_758.chk"
 --------
 Frag_758
 --------
 Charge =  0 Multiplicity = 1

 SCF Done:  E(RB3LYP) =  -271.796346254     A.U. after    1 cycles

  Exact polarizability:  60.519   1.573  57.767   0.003   0.012  52.466
 Approx polarizability:  90.558   5.589  80.887   0.010   0.019  72.447

                      1                      2                      3
                      A                      A                      A
 Frequencies --     81.4151               189.1220               238.9978
 Red. masses --      3.3345                 1.0273                 1.0437
 Frc consts  --      0.0130                 0.0216                 0.0351
 IR Inten    --      3.8754                 0.0001                 0.2095

                      4                      5                      6
                      A                      A                      A
 Frequencies --    241.3493               272.8757               318.2606
 Red. masses --      1.2335                 2.1691                 2.0557
 Frc consts  --      0.0423                 0.0952                 0.1227
 IR Inten    --      1.7628                 3.8981                 0.5415

                      7                      8                      9
                      A                      A                      A
 Frequencies --    344.8078               382.7249               400.0212
 Red. masses --      2.5905                 2.2715                 2.0642
 Frc consts  --      0.1815                 0.1960                 0.1946
 IR Inten    --      1.6073                 0.9327                 0.1141

                     10                     11                     12
                      A                      A                      A
 Frequencies --    595.8794               764.9226               884.3922
 Red. masses --      3.7722                 3.4819                 2.2473
 Frc consts  --      0.7891                 1.2003                 1.0356
 IR Inten    --      2.8275                 7.6139                32.2053

                     13                     14                     15
                      A                      A                      A
 Frequencies --    933.3024               950.4069               960.8241
 Red. masses --      2.2278                 1.5550                 1.3100
 Frc consts  --      1.1433                 0.8276                 0.7126
 IR Inten    --      0.7273                 1.6515                 0.3589

                     16                     17                     18
                      A                      A                      A
 Frequencies --    964.6501              1056.6760              1074.0748
 Red. masses --      1.2057                 1.4646                 1.5590
 Frc consts  --      0.6610                 0.9635                 1.0596
 IR Inten    --      0.0041                 4.3339                 0.0239

                     19                     20                     21
                      A                      A                      A
 Frequencies --   1229.7216              1237.1233              1292.6095
 Red. masses --      2.6587                 2.5327                 3.0088
 Frc consts  --      2.3688                 2.2838                 2.9619
 IR Inten    --      3.1942                 2.2433                 1.3554

                     22                     23                     24
                      A                      A                      A
 Frequencies --   1394.2121              1402.1390              1412.0912
 Red. masses --      1.2037                 1.2341                 1.1825
 Frc consts  --      1.3786                 1.4295                 1.3892
 IR Inten    --      2.6112                 5.8527                 1.4828

                     25                     26                     27
                      A                      A                      A
 Frequencies --   1438.8737              1477.7250              1482.1622
 Red. masses --      1.2240                 1.0470                 1.0431
 Frc consts  --      1.4931                 1.3471                 1.3501
 IR Inten    --      4.4156                 0.0000                 0.0525

                     28                     29                     30
                      A                      A                      A
 Frequencies --   1484.3353              1499.4291              1505.1304
 Red. masses --      1.0469                 1.0485                 1.0620
 Frc consts  --      1.3590                 1.3889                 1.4175
 IR Inten    --      0.5051                 4.7809                 5.3955

                     31                     32                     33
                      A                      A                      A
 Frequencies --   1516.8659              1833.1655              2837.8568
 Red. masses --      1.0691                10.8707                 1.0815
 Frc consts  --      1.4493                21.5233                 5.1317
 IR Inten    --     14.5934               162.3028               118.0656

                     34                     35                     36
                      A                      A                      A
 Frequencies --   3027.0696              3030.4829              3043.3650
 Red. masses --      1.0341                 1.0346                 1.0360
 Frc consts  --      5.5830                 5.5980                 5.6535
 IR Inten    --     22.6915                21.1533                13.1136

                     37                     38                     39
                      A                      A                      A
 Frequencies --   3096.1421              3099.7385              3105.0061
 Red. masses --      1.1014                 1.1007                 1.1026
 Frc consts  --      6.2209                 6.2312                 6.2632
 IR Inten    --      0.8088                44.8195                12.8226

                     40                     41                     42
                      A                      A                      A
 Frequencies --   3106.2407              3113.7531              3121.5990
 Red. masses --      1.1021                 1.1009                 1.1014
 Frc consts  --      6.2652                 6.2890                 6.3232
 IR Inten    --     11.1986                32.7040                22.8160

 - Thermochemistry -
 -------------------
 Temperature   298.150 Kelvin.  Pressure   1.00000 Atm.
 Atom     1 has atomic number  6 and mass  12.00000

 Molecular mass:    86.07317 amu.
 Principal axes and moments of inertia in atomic units:
                           1         2         3
     Eigenvalues --   408.01238 653.42649 662.90540
           X            0.99984   0.01791   0.00009
           Y           -0.01791   0.99984   0.00079
           Z           -0.00007  -0.00079   1.00000
 This molecule is an asymmetric top.
 Rotational symmetry number  1.
 Rotational temperatures (Kelvin)      0.21228     0.13255     0.13066
 Rotational constants (GHZ):           4.42325     2.76197     2.72247
 Zero-point vibrational energy     367502.0 (Joules/Mol)
                                   87.83509 (Kcal/Mol)
 Warning -- explicit consideration of  10 degrees of freedom as
           vibrations may cause significant error
 Vibrational temperatures:    117.14   272.10   343.86   347.25   392.61
          (Kelvin)            457.91   496.10   550.66   575.54   857.34
                             1100.55  1272.44  1342.81  1367.42  1382.41
                             1387.91  1520.32  1545.35  1769.29  1779.94
                             1859.77  2005.96  2017.36  2031.68  2070.22
                             2126.11  2132.50  2135.62  2157.34  2165.54
                             2182.43  2637.51  4083.04  4355.27  4360.18
                             4378.72  4454.65  4459.83  4467.41  4469.18
                             4479.99  4491.28

 Zero-point correction=                           0.139974 (Hartree/Particle)
 Thermal correction to Energy=                    0.147656
 Thermal correction to Enthalpy=                  0.148600
 Thermal correction to Gibbs Free Energy=         0.108974
 Sum of electronic and zero-point Energies=           -271.656372
 Sum of electronic and thermal Energies=              -271.648690
 Sum of electronic and thermal Enthalpies=            -271.647746
 Sum of electronic and thermal Free Energies=         -271.687373

                     E (Thermal)             CV                S
                      KCal/Mol        Cal/Mol-Kelvin    Cal/Mol-Kelvin
 Total                   92.656             27.296             83.401
 Electronic               0.000              0.000              0.000
 Translational            0.889              2.981             39.271
 Rotational               0.889              2.981             26.672
 Vibrational             90.878             21.335             17.459
 Vibration     1          0.600              1.962              3.856
 Vibration     2          0.633              1.855              2.236
 Vibration     3          0.657              1.781              1.810
 Vibration     4          0.658              1.777              1.793
 Vibration     5          0.676              1.723              1.578
 Vibration     6          0.705              1.639              1.319
 Vibration     7          0.723              1.586              1.190
 Vibration     8          0.752              1.507              1.028
 Vibration     9          0.766              1.470              0.963
 Vibration    10          0.954              1.041              0.457

 Optimization completed.
    -- Stationary point found.
 Normal termination of Gaussian 09 at Tue Aug 30 11:42:20 2022.

 -----------------------------------------------------------------
 #P Geom=AllCheck Guess=TCheck SCRF=Check CCSD(T,E4T,FrzG4)/GTBas1
 -----------------------------------------------------------------

 Structure from the checkpoint file:  "G4.Frag_758.chk"
 --------
 Frag_758
 --------
 Charge =  0 Multiplicity = 1

 SCF Done:  E(RHF) =  -270.020423784     A.U. after   12 cycles
 E2 =    -0.8307308802D+00 EUMP2 =    -0.27085115466432D+03
 CCSD(T)
 CCSD(T)= -0.27093667442D+03
 =-270.9377705\MP4SDQ=-270.9087859\CCSD=-270.9083453\CCSD(T)=-270.93667
 Normal termination of Gaussian 09 at Tue Aug 30 11:44:26 2022.

 ---------------------------------------------------------
 #P Geom=AllCheck Guess=TCheck SCRF=Check MP4=FrzG4/GTBas2
 ---------------------------------------------------------

 Structure from the checkpoint file:  "G4.Frag_758.chk"
 --------
 Frag_758
 --------
 Charge =  0 Multiplicity = 1

 SCF Done:  E(RHF) =  -270.026059364     A.U. after   12 cycles
 E2 =    -0.8406446532D+00 EUMP2 =    -0.27086670401756D+03
 Normal termination of Gaussian 09 at Tue Aug 30 11:45:09 2022.

 ---------------------------------------------------------
 #P Geom=AllCheck Guess=TCheck SCRF=Check MP4=FrzG4/GTBas3
 ---------------------------------------------------------

 Structure from the checkpoint file:  "G4.Frag_758.chk"
 --------
 Frag_758
 --------
 Charge =  0 Multiplicity = 1

 SCF Done:  E(RHF) =  -270.052017360     A.U. after   11 cycles
 E2 =    -0.1030384915D+01 EUMP2 =    -0.27108240227504D+03
 Normal termination of Gaussian 09 at Tue Aug 30 11:49:20 2022.

 -----------------------------------------------------------
 #P Geom=AllCheck Guess=TCheck SCRF=Check MP2=Full/GTLargeXP
 -----------------------------------------------------------

 Structure from the checkpoint file:  "G4.Frag_758.chk"
 --------
 Frag_758
 --------
 Charge =  0 Multiplicity = 1

 SCF Done:  E(RHF) =  -270.114777036     A.U. after   12 cycles
 E2 =    -0.1355143401D+01 EUMP2 =    -0.27146992043668D+03
 Normal termination of Gaussian 09 at Tue Aug 30 11:51:39 2022.
 SCF Done:  E(RHF) =  -270.136123646     A.U. after    9 cycles
 Normal termination of Gaussian 09 at Tue Aug 30 11:54:03 2022.

                         Standard orientation:
 ---------------------------------------------------------------------
 Center     Atomic      Atomic             Coordinates (Angstroms)
 Number     Number       Type             X           Y           Z
 ---------------------------------------------------------------------
      1          6           0       -1.078258   -0.452758   -1.261104
      2          6           0       -0.329167    0.028250    0.000020
      3          6           0       -0.173452    1.551881    0.003810
      4          6           0       -1.077416   -0.459337    1.259268
      5          6           0        1.035397   -0.649457   -0.001768
      6          8           0        2.099864   -0.088250   -0.000520
      7          1           0       -2.100681   -0.061319   -1.262510
      8          1           0       -1.140364   -1.545966   -1.299014
      9          1           0       -0.581996   -0.108630   -2.174015
     10          1           0        0.378347    1.887363    0.886010
     11          1           0        0.379539    1.891502   -0.876026
     12          1           0       -1.154625    2.037455    0.004315
     13          1           0       -2.099611   -0.067321    1.263916
     14          1           0       -0.580123   -0.120610    2.173642
     15          1           0       -1.140053   -1.552715    1.291040
     16          1           0        0.978030   -1.765233   -0.004557
 ---------------------------------------------------------------------

 SCF Done:  E(RHF) =  -270.140561121     A.U. after    8 cycles

 The electronic state is 1-A.
 Alpha  occ. eigenvalues --  -20.55424 -11.32631 -11.25333 -11.23167 -11.23165
 Alpha  occ. eigenvalues --  -11.21682  -1.39468  -1.11336  -0.94803  -0.94331
 Alpha  occ. eigenvalues --   -0.87194  -0.74323  -0.66624  -0.65093  -0.61465
 Alpha  occ. eigenvalues --   -0.59995  -0.56154  -0.54840  -0.53144  -0.52794
 Alpha  occ. eigenvalues --   -0.51768  -0.48108  -0.47442  -0.40992
 Alpha virt. eigenvalues --    0.03201   0.03939   0.04182   0.04606   0.06391
 Alpha virt. eigenvalues --    0.06866   0.06983   0.07390   0.07717   0.09694
 Alpha virt. eigenvalues --    0.09746   0.09886   0.09946   0.12300   0.12985

 Mulliken charges:
               1
     1  C   -0.571437
     2  C    0.320118
     3  C   -0.577589
     4  C   -0.571450
     5  C    0.193085
     6  O   -0.533748
     7  H    0.172671
     8  H    0.168751
     9  H    0.179910
    10  H    0.179563
    11  H    0.179677
    12  H    0.168522
    13  H    0.172659
    14  H    0.179906
    15  H    0.168755
    16  H    0.170607
 Sum of Mulliken charges =  -0.00000

 Dipole moment (field-independent basis, Debye):
    X=             -3.0578    Y=             -0.8826    Z=             -0.0018  Tot=              3.1826
 Quadrupole moment (field-independent basis, Debye-Ang):
   XX=            -46.4350   YY=            -37.2930   ZZ=            -37.8783
   XY=             -0.8571   XZ=             -0.0011   YZ=              0.0017

 Normal termination of Gaussian 09 at Tue Aug 30 12:02:50 2022.
