 Gaussian 09, Revision E.01,
 Gaussian 09:  ES64L-G09RevE.01 30-Nov-2015

 -----
 #P G4
 -----

 --------
 Frag_465
 --------
 Symbolic Z-matrix:
 Charge =  0 Multiplicity = 1

 SCF Done:  E(RB3LYP) =  -266.631629446     A.U. after   15 cycles
 SCF Done:  E(RB3LYP) =  -266.650411116     A.U. after   13 cycles
 SCF Done:  E(RB3LYP) =  -266.653480394     A.U. after   13 cycles
 SCF Done:  E(RB3LYP) =  -266.654048621     A.U. after   13 cycles
 SCF Done:  E(RB3LYP) =  -266.654410755     A.U. after   12 cycles
 SCF Done:  E(RB3LYP) =  -266.654766404     A.U. after   12 cycles
 SCF Done:  E(RB3LYP) =  -266.655178269     A.U. after   12 cycles
 SCF Done:  E(RB3LYP) =  -266.655260377     A.U. after   11 cycles
 SCF Done:  E(RB3LYP) =  -266.655278178     A.U. after   10 cycles
 SCF Done:  E(RB3LYP) =  -266.655279842     A.U. after    9 cycles
 SCF Done:  E(RB3LYP) =  -266.655280012     A.U. after    7 cycles
 SCF Done:  E(RB3LYP) =  -266.655280110     A.U. after    7 cycles
 Optimization completed.
    -- Stationary point found.
 Normal termination of Gaussian 09 at Fri Aug 26 13:52:19 2022.

 ----------------------------------------------------------
 #P Geom=AllCheck Guess=TCheck SCRF=Check B3LYP/GTBas3 Freq
 ----------------------------------------------------------

 Structure from the checkpoint file:  "G4.Frag_465.chk"
 --------
 Frag_465
 --------
 Charge =  0 Multiplicity = 1

 SCF Done:  E(RB3LYP) =  -266.655280110     A.U. after    1 cycles

  Exact polarizability:  64.480   0.582  68.015  -5.781   6.041  49.494
 Approx polarizability:  87.185   2.367 127.786 -11.228  26.218  86.794

                      1                      2                      3
                      A                      A                      A
 Frequencies --     64.6342               165.2006               284.3056
 Red. masses --      3.1532                 1.0656                 3.0683
 Frc consts  --      0.0078                 0.0171                 0.1461
 IR Inten    --      1.0239                 0.2602                 6.9321

                      4                      5                      6
                      A                      A                      A
 Frequencies --    293.8958               368.9475               461.2850
 Red. masses --      2.9621                 2.4457                 1.1721
 Frc consts  --      0.1507                 0.1961                 0.1469
 IR Inten    --      0.8994                 0.6970                 7.6342

                      7                      8                      9
                      A                      A                      A
 Frequencies --    527.4238               570.5718               624.2815
 Red. masses --      2.3996                 2.0641                 2.2643
 Frc consts  --      0.3933                 0.3959                 0.5199
 IR Inten    --     10.3613                 3.6588                 0.7069

                     10                     11                     12
                      A                      A                      A
 Frequencies --    669.2304               758.4744               775.9013
 Red. masses --      1.1475                 2.0390                 1.5708
 Frc consts  --      0.3028                 0.6911                 0.5572
 IR Inten    --    112.6860                 1.7642                 3.3398

                     13                     14                     15
                      A                      A                      A
 Frequencies --    796.2550               936.4778               947.3828
 Red. masses --      1.6254                 1.4682                 1.6280
 Frc consts  --      0.6072                 0.7586                 0.8609
 IR Inten    --      2.4054                20.9988                 8.0306

                     16                     17                     18
                      A                      A                      A
 Frequencies --   1026.9841              1073.8885              1092.2312
 Red. masses --      1.4591                 1.4970                 2.0013
 Frc consts  --      0.9067                 1.0172                 1.4067
 IR Inten    --      6.0902                 1.5739                51.6394

                     19                     20                     21
                      A                      A                      A
 Frequencies --   1234.2809              1315.1394              1396.8948
 Red. masses --      2.3751                 2.1806                 2.2109
 Frc consts  --      2.1318                 2.2221                 2.5418
 IR Inten    --      5.7114                31.7205               188.6665

                     22                     23                     24
                      A                      A                      A
 Frequencies --   1408.1408              1438.7612              1467.2499
 Red. masses --      1.1972                 1.2242                 1.1536
 Frc consts  --      1.3986                 1.4931                 1.4632
 IR Inten    --      6.1083                 2.9123                 8.1803

                     25                     26                     27
                      A                      A                      A
 Frequencies --   1471.6249              1487.9273              1651.7095
 Red. masses --      1.0559                 1.0563                 3.1532
 Frc consts  --      1.3472                 1.3779                 5.0684
 IR Inten    --     16.6893                14.7253                61.0665

                     28                     29                     30
                      A                      A                      A
 Frequencies --   1731.0331              3042.1259              3101.1776
 Red. masses --      5.8780                 1.0376                 1.0980
 Frc consts  --     10.3775                 5.6578                 6.2217
 IR Inten    --     25.4061                 9.3792                 5.9718

                     31                     32                     33
                      A                      A                      A
 Frequencies --   3137.4761              3166.7761              3203.1650
 Red. masses --      1.1013                 1.0615                 1.0507
 Frc consts  --      6.3876                 6.2722                 6.3515
 IR Inten    --     11.3740                 1.5987                 3.8747

                     34                     35                     36
                      A                      A                      A
 Frequencies --   3257.2507              3338.5143              3455.1042
 Red. masses --      1.1162                 1.1236                 1.0745
 Frc consts  --      6.9773                 7.3788                 7.5578
 IR Inten    --      3.4468                 0.5095                 1.4889

 - Thermochemistry -
 -------------------
 Temperature   298.150 Kelvin.  Pressure   1.00000 Atm.
 Atom     1 has atomic number  6 and mass  12.00000

 Molecular mass:    84.06875 amu.
 Principal axes and moments of inertia in atomic units:
                           1         2         3
     Eigenvalues --   353.05246 561.11901 706.29737
           X            0.99789  -0.06420  -0.00960
           Y            0.06399   0.99772  -0.02139
           Z            0.01095   0.02073   0.99973
 This molecule is an asymmetric top.
 Rotational symmetry number  1.
 Rotational temperatures (Kelvin)      0.24533     0.15436     0.12263
 Rotational constants (GHZ):           5.11182     3.21633     2.55521
 Zero-point vibrational energy     309484.2 (Joules/Mol)
                                   73.96851 (Kcal/Mol)
 Warning -- explicit consideration of   8 degrees of freedom as
           vibrations may cause significant error
 Vibrational temperatures:     92.99   237.69   409.05   422.85   530.83
          (Kelvin)            663.69   758.84   820.92   898.20   962.87
                             1091.27  1116.35  1145.63  1347.38  1363.07
                             1477.60  1545.08  1571.48  1775.85  1892.19
                             2009.82  2026.00  2070.05  2111.04  2117.34
                             2140.79  2376.44  2490.57  4376.94  4461.90
                             4514.12  4556.28  4608.63  4686.45  4803.37
                             4971.12

 Zero-point correction=                           0.117876 (Hartree/Particle)
 Thermal correction to Energy=                    0.124750
 Thermal correction to Enthalpy=                  0.125694
 Thermal correction to Gibbs Free Energy=         0.087496
 Sum of electronic and zero-point Energies=           -266.537404
 Sum of electronic and thermal Energies=              -266.530530
 Sum of electronic and thermal Enthalpies=            -266.529586
 Sum of electronic and thermal Free Energies=         -266.567784

                     E (Thermal)             CV                S
                      KCal/Mol        Cal/Mol-Kelvin    Cal/Mol-Kelvin
 Total                   78.282             25.080             80.394
 Electronic               0.000              0.000              0.000
 Translational            0.889              2.981             39.201
 Rotational               0.889              2.981             26.440
 Vibrational             76.504             19.118             14.754
 Vibration     1          0.597              1.971              4.310
 Vibration     2          0.624              1.885              2.489
 Vibration     3          0.683              1.703              1.508
 Vibration     4          0.689              1.685              1.451
 Vibration     5          0.741              1.536              1.084
 Vibration     6          0.819              1.336              0.762
 Vibration     7          0.882              1.189              0.593
 Vibration     8          0.927              1.095              0.503

 Normal termination of Gaussian 09 at Fri Aug 26 13:52:54 2022.

 -----------------------------------------------------------------
 #P Geom=AllCheck Guess=TCheck SCRF=Check CCSD(T,E4T,FrzG4)/GTBas1
 -----------------------------------------------------------------

 Structure from the checkpoint file:  "G4.Frag_465.chk"
 --------
 Frag_465
 --------
 Charge =  0 Multiplicity = 1

 SCF Done:  E(RHF) =  -264.880316409     A.U. after   14 cycles
 E2 =    -0.8608393939D+00 EUMP2 =    -0.26574115580291D+03
 CCSD(T)
 CCSD(T)= -0.26582357730D+03
 DQ=-265.78642\CCSD=-265.7865273\CCSD(T)=-265.8235773\RMSD=4.397e-09\PG
 Normal termination of Gaussian 09 at Fri Aug 26 13:54:57 2022.

 ---------------------------------------------------------
 #P Geom=AllCheck Guess=TCheck SCRF=Check MP4=FrzG4/GTBas2
 ---------------------------------------------------------

 Structure from the checkpoint file:  "G4.Frag_465.chk"
 --------
 Frag_465
 --------
 Charge =  0 Multiplicity = 1

 SCF Done:  E(RHF) =  -264.891646368     A.U. after   14 cycles
 E2 =    -0.8725629036D+00 EUMP2 =    -0.26576420927193D+03
 Normal termination of Gaussian 09 at Fri Aug 26 13:55:35 2022.

 ---------------------------------------------------------
 #P Geom=AllCheck Guess=TCheck SCRF=Check MP4=FrzG4/GTBas3
 ---------------------------------------------------------

 Structure from the checkpoint file:  "G4.Frag_465.chk"
 --------
 Frag_465
 --------
 Charge =  0 Multiplicity = 1

 SCF Done:  E(RHF) =  -264.916661724     A.U. after   13 cycles
 E2 =    -0.1039734044D+01 EUMP2 =    -0.26595639576830D+03
 Normal termination of Gaussian 09 at Fri Aug 26 13:58:49 2022.

 -----------------------------------------------------------
 #P Geom=AllCheck Guess=TCheck SCRF=Check MP2=Full/GTLargeXP
 -----------------------------------------------------------

 Structure from the checkpoint file:  "G4.Frag_465.chk"
 --------
 Frag_465
 --------
 Charge =  0 Multiplicity = 1

 SCF Done:  E(RHF) =  -264.982654449     A.U. after   14 cycles
 E2 =    -0.1361970399D+01 EUMP2 =    -0.26634462484800D+03
 Normal termination of Gaussian 09 at Fri Aug 26 14:00:55 2022.
 SCF Done:  E(RHF) =  -265.003240580     A.U. after   10 cycles
 Normal termination of Gaussian 09 at Fri Aug 26 14:03:08 2022.

                         Standard orientation:
 ---------------------------------------------------------------------
 Center     Atomic      Atomic             Coordinates (Angstroms)
 Number     Number       Type             X           Y           Z
 ---------------------------------------------------------------------
      1          6           0        1.162672    1.266208   -0.571603
      2          6           0        0.669349    0.155195   -0.038885
      3          6           0        1.456431   -0.970025    0.564657
      4          7           0       -0.779248   -0.049245   -0.034013
      5          6           0       -1.496863    0.770428    0.705348
      6          7           0       -1.278223   -1.053332   -0.720699
      7          1           0        0.516910    2.028338   -0.989471
      8          1           0        2.232922    1.433814   -0.604691
      9          1           0        1.164357   -1.122544    1.609721
     10          1           0        1.277668   -1.914445    0.042738
     11          1           0        2.524257   -0.746565    0.525811
     12          1           0       -2.566419    0.624465    0.721635
     13          1           0       -0.987535    1.507377    1.300884
     14          1           0       -0.509404   -1.423235   -1.280747
 ---------------------------------------------------------------------

 SCF Done:  E(RHF) =  -265.007426277     A.U. after    8 cycles

 The electronic state is 1-A.
 Alpha  occ. eigenvalues --  -15.70464 -15.52604 -11.30216 -11.26027 -11.24877
 Alpha  occ. eigenvalues --  -11.24564  -1.36739  -1.10861  -1.05953  -0.96621
 Alpha  occ. eigenvalues --   -0.87499  -0.76224  -0.69961  -0.66074  -0.64600
 Alpha  occ. eigenvalues --   -0.59829  -0.59603  -0.56636  -0.55195  -0.53249
 Alpha  occ. eigenvalues --   -0.42997  -0.38734  -0.28477
 Alpha virt. eigenvalues --    0.02974   0.03940   0.04217   0.05047   0.06249
 Alpha virt. eigenvalues --    0.06354   0.06922   0.07604   0.07814   0.09242
 Alpha virt. eigenvalues --    0.10409   0.10849   0.11260   0.11988   0.12046

 Mulliken charges:
               1
     1  C   -0.440988
     2  C    0.125934
     3  C   -0.518734
     4  N    0.327910
     5  C   -0.464867
     6  N   -0.764797
     7  H    0.218458
     8  H    0.200304
     9  H    0.193411
    10  H    0.201447
    11  H    0.177303
    12  H    0.229986
    13  H    0.236996
    14  H    0.277638
 Sum of Mulliken charges =  -0.00000

 Dipole moment (field-independent basis, Debye):
    X=              3.2349    Y=              1.9290    Z=              1.2428  Tot=              3.9661
 Quadrupole moment (field-independent basis, Debye-Ang):
   XX=            -38.8866   YY=            -37.8107   ZZ=            -38.7794
   XY=             -4.6498   XZ=             -3.3236   YZ=             -0.5083

 Normal termination of Gaussian 09 at Fri Aug 26 14:10:46 2022.
