 Gaussian 09, Revision E.01,
 Gaussian 09:  ES64L-G09RevE.01 30-Nov-2015

 -----
 #P G4
 -----

 --------
 Frag_779
 --------
 Symbolic Z-matrix:
 Charge =  0 Multiplicity = 1

 SCF Done:  E(RB3LYP) =  -228.542938939     A.U. after   14 cycles
 SCF Done:  E(RB3LYP) =  -228.556675004     A.U. after   13 cycles
 SCF Done:  E(RB3LYP) =  -228.558721988     A.U. after   12 cycles
 SCF Done:  E(RB3LYP) =  -228.559559646     A.U. after   11 cycles
 SCF Done:  E(RB3LYP) =  -228.559599468     A.U. after    9 cycles
 SCF Done:  E(RB3LYP) =  -228.559602172     A.U. after    8 cycles
 Optimization completed.
    -- Stationary point found.
 Normal termination of Gaussian 09 at Fri Aug 26 12:17:39 2022.

 ----------------------------------------------------------
 #P Geom=AllCheck Guess=TCheck SCRF=Check B3LYP/GTBas3 Freq
 ----------------------------------------------------------

 Structure from the checkpoint file:  "G4.Frag_779.chk"
 --------
 Frag_779
 --------
 Charge =  0 Multiplicity = 1

 SCF Done:  E(RB3LYP) =  -228.559602172     A.U. after    1 cycles

  Exact polarizability:  81.122   3.828  48.476  -0.002  -0.000  33.046
 Approx polarizability: 146.807   3.554  67.395  -0.006  -0.000  49.193

                      1                      2                      3
                      A                      A                      A
 Frequencies --     86.3733               187.9274               266.7918
 Red. masses --      1.9654                 1.2901                 1.0962
 Frc consts  --      0.0086                 0.0268                 0.0460
 IR Inten    --      0.7798                 2.5600                 1.2063

                      4                      5                      6
                      A                      A                      A
 Frequencies --    357.5303               480.5434               511.2851
 Red. masses --      2.6146                 1.3887                 2.3599
 Frc consts  --      0.1969                 0.1889                 0.3635
 IR Inten    --      0.3023                15.7483                 0.5044

                      7                      8                      9
                      A                      A                      A
 Frequencies --    546.6427               576.3020               709.4432
 Red. masses --      1.4911                 3.1043                 1.5201
 Frc consts  --      0.2625                 0.6075                 0.4508
 IR Inten    --     29.1130                 6.6646                31.6026

                     10                     11                     12
                      A                      A                      A
 Frequencies --    831.3896               981.5115              1093.7893
 Red. masses --      4.2514                 2.2750                 1.2976
 Frc consts  --      1.7314                 1.2913                 0.9147
 IR Inten    --      4.7227                17.0333                 0.4406

                     13                     14                     15
                      A                      A                      A
 Frequencies --   1101.0191              1137.2350              1150.8658
 Red. masses --      1.3611                 1.4117                 1.5728
 Frc consts  --      0.9721                 1.0757                 1.2274
 IR Inten    --     18.7553                 0.0817                18.9365

                     16                     17                     18
                      A                      A                      A
 Frequencies --   1205.4669              1350.1033              1424.2870
 Red. masses --      2.7249                 3.2129                 1.1787
 Frc consts  --      2.3330                 3.4505                 1.4088
 IR Inten    --     48.7758                84.2106                19.8190

                     19                     20                     21
                      A                      A                      A
 Frequencies --   1442.9471              1470.9583              1472.6973
 Red. masses --      1.2198                 1.1957                 1.0446
 Frc consts  --      1.4963                 1.5244                 1.3349
 IR Inten    --     65.9962                20.8814                 2.4568

                     22                     23                     24
                      A                      A                      A
 Frequencies --   1485.7327              1507.7992              1509.4955
 Red. masses --      1.0644                 1.0452                 1.1176
 Frc consts  --      1.3844                 1.4001                 1.5004
 IR Inten    --     11.5342                10.7020                 2.1356

                     25                     26                     27
                      A                      A                      A
 Frequencies --   1614.6427              2929.7810              2961.8349
 Red. masses --      4.4255                 1.0427                 1.1005
 Frc consts  --      6.7977                 5.2732                 5.6878
 IR Inten    --    187.1078               114.6204                71.9180

                     28                     29                     30
                      A                      A                      A
 Frequencies --   3075.7942              3105.9016              3151.7182
 Red. masses --      1.0324                 1.0891                 1.1038
 Frc consts  --      5.7546                 6.1901                 6.4599
 IR Inten    --      8.4057                25.5945                 6.4275

                     31                     32                     33
                      A                      A                      A
 Frequencies --   3181.0528              3211.9066              3340.7577
 Red. masses --      1.1042                 1.0510                 1.1244
 Frc consts  --      6.5831                 6.3882                 7.3935
 IR Inten    --      6.4518                 3.4507                 0.8876

 - Thermochemistry -
 -------------------
 Temperature   298.150 Kelvin.  Pressure   1.00000 Atm.
 Atom     1 has atomic number  6 and mass  12.00000

 Molecular mass:    72.06875 amu.
 Principal axes and moments of inertia in atomic units:
                           1         2         3
     Eigenvalues --   193.77118 416.39199 587.44330
           X            0.99989   0.01461   0.00000
           Y           -0.01461   0.99989  -0.00001
           Z           -0.00000   0.00001   1.00000
 This molecule is an asymmetric top.
 Rotational symmetry number  1.
 Rotational temperatures (Kelvin)      0.44699     0.20801     0.14744
 Rotational constants (GHZ):           9.31378     4.33424     3.07220
 Zero-point vibrational energy     295845.6 (Joules/Mol)
                                   70.70880 (Kcal/Mol)
 Warning -- explicit consideration of   8 degrees of freedom as
           vibrations may cause significant error
 Vibrational temperatures:    124.27   270.39   383.85   514.41   691.39
          (Kelvin)            735.62   786.50   829.17  1020.73  1196.18
                             1412.17  1573.72  1584.12  1636.23  1655.84
                             1734.40  1942.50  2049.23  2076.08  2116.38
                             2118.88  2137.64  2169.38  2171.82  2323.11
                             4215.30  4261.41  4425.38  4468.69  4534.61
                             4576.82  4621.21  4806.60

 Zero-point correction=                           0.112682 (Hartree/Particle)
 Thermal correction to Energy=                    0.118870
 Thermal correction to Enthalpy=                  0.119814
 Thermal correction to Gibbs Free Energy=         0.083609
 Sum of electronic and zero-point Energies=           -228.446921
 Sum of electronic and thermal Energies=              -228.440733
 Sum of electronic and thermal Enthalpies=            -228.439788
 Sum of electronic and thermal Free Energies=         -228.475993

                     E (Thermal)             CV                S
                      KCal/Mol        Cal/Mol-Kelvin    Cal/Mol-Kelvin
 Total                   74.592             21.637             76.199
 Electronic               0.000              0.000              0.000
 Translational            0.889              2.981             38.742
 Rotational               0.889              2.981             25.364
 Vibrational             72.814             15.675             12.093
 Vibration     1          0.601              1.959              3.741
 Vibration     2          0.633              1.856              2.248
 Vibration     3          0.672              1.734              1.617
 Vibration     4          0.733              1.560              1.133
 Vibration     5          0.837              1.293              0.709
 Vibration     6          0.866              1.225              0.631
 Vibration     7          0.902              1.147              0.551
 Vibration     8          0.933              1.083              0.492

 Optimization completed.
    -- Stationary point found.
 Normal termination of Gaussian 09 at Fri Aug 26 12:18:02 2022.

 -----------------------------------------------------------------
 #P Geom=AllCheck Guess=TCheck SCRF=Check CCSD(T,E4T,FrzG4)/GTBas1
 -----------------------------------------------------------------

 Structure from the checkpoint file:  "G4.Frag_779.chk"
 --------
 Frag_779
 --------
 Charge =  0 Multiplicity = 1

 SCF Done:  E(RHF) =  -227.023562563     A.U. after   13 cycles
 E2 =    -0.7405875423D+00 EUMP2 =    -0.22776415010555D+03
 CCSD(T)
 CCSD(T)= -0.22783491488D+03
 MP4SDTQ=-227.8359506\MP4SDQ=-227.8043699\CCSD=-227.8043674\CCSD(T)=-22
 Normal termination of Gaussian 09 at Fri Aug 26 12:19:12 2022.

 ---------------------------------------------------------
 #P Geom=AllCheck Guess=TCheck SCRF=Check MP4=FrzG4/GTBas2
 ---------------------------------------------------------

 Structure from the checkpoint file:  "G4.Frag_779.chk"
 --------
 Frag_779
 --------
 Charge =  0 Multiplicity = 1

 SCF Done:  E(RHF) =  -227.031956248     A.U. after   13 cycles
 E2 =    -0.7496403398D+00 EUMP2 =    -0.22778159658764D+03
 Normal termination of Gaussian 09 at Fri Aug 26 12:19:29 2022.

 ---------------------------------------------------------
 #P Geom=AllCheck Guess=TCheck SCRF=Check MP4=FrzG4/GTBas3
 ---------------------------------------------------------

 Structure from the checkpoint file:  "G4.Frag_779.chk"
 --------
 Frag_779
 --------
 Charge =  0 Multiplicity = 1

 SCF Done:  E(RHF) =  -227.053331242     A.U. after   13 cycles
 E2 =    -0.9020917920D+00 EUMP2 =    -0.22795542303357D+03
 Normal termination of Gaussian 09 at Fri Aug 26 12:21:01 2022.

 -----------------------------------------------------------
 #P Geom=AllCheck Guess=TCheck SCRF=Check MP2=Full/GTLargeXP
 -----------------------------------------------------------

 Structure from the checkpoint file:  "G4.Frag_779.chk"
 --------
 Frag_779
 --------
 Charge =  0 Multiplicity = 1

 SCF Done:  E(RHF) =  -227.109789865     A.U. after   14 cycles
 E2 =    -0.1174617119D+01 EUMP2 =    -0.22828440698404D+03
 Normal termination of Gaussian 09 at Fri Aug 26 12:22:06 2022.
 SCF Done:  E(RHF) =  -227.127616690     A.U. after   10 cycles
 Normal termination of Gaussian 09 at Fri Aug 26 12:23:27 2022.

                         Standard orientation:
 ---------------------------------------------------------------------
 Center     Atomic      Atomic             Coordinates (Angstroms)
 Number     Number       Type             X           Y           Z
 ---------------------------------------------------------------------
      1          6           0       -1.689857   -0.696873    0.000071
      2          7           0       -0.494022   -0.134105   -0.000089
      3          6           0       -0.460641    1.347839   -0.000016
      4          7           0        0.608151   -0.843019   -0.000115
      5          6           0        1.847721   -0.097652    0.000075
      6          1           0       -2.565860   -0.073225    0.000179
      7          1           0       -1.733423   -1.774339    0.000094
      8          1           0        0.067929    1.697387    0.888094
      9          1           0       -1.476850    1.734854    0.000079
     10          1           0        0.067799    1.697480   -0.888165
     11          1           0        2.004765    0.539339   -0.888342
     12          1           0        2.648769   -0.840657    0.000054
     13          1           0        2.004628    0.539144    0.888656
 ---------------------------------------------------------------------

 SCF Done:  E(RHF) =  -227.131344002     A.U. after    8 cycles

 The electronic state is 1-A.
 Alpha  occ. eigenvalues --  -15.70324 -15.52870 -11.28677 -11.24995 -11.23320
 Alpha  occ. eigenvalues --   -1.36305  -1.10188  -1.00338  -0.91431  -0.77669
 Alpha  occ. eigenvalues --   -0.69006  -0.67348  -0.66047  -0.58757  -0.56157
 Alpha  occ. eigenvalues --   -0.55998  -0.53383  -0.50896  -0.39836  -0.26707
 Alpha virt. eigenvalues --    0.03161   0.03916   0.04770   0.05047   0.06319
 Alpha virt. eigenvalues --    0.06937   0.07334   0.07878   0.08439   0.09180
 Alpha virt. eigenvalues --    0.12301   0.12604   0.14351   0.14445   0.16143

 Mulliken charges:
               1
     1  C   -0.469273
     2  N    0.268672
     3  C   -0.491809
     4  N   -0.409979
     5  C   -0.413158
     6  H    0.205516
     7  H    0.220282
     8  H    0.212744
     9  H    0.208246
    10  H    0.212736
    11  H    0.130647
    12  H    0.194731
    13  H    0.130645
 Sum of Mulliken charges =  -0.00000

 Dipole moment (field-independent basis, Debye):
    X=             -1.2958    Y=              3.2727    Z=              0.0004  Tot=              3.5199
 Quadrupole moment (field-independent basis, Debye-Ang):
   XX=            -29.8269   YY=            -32.3561   ZZ=            -34.1600
   XY=              0.6748   XZ=             -0.0002   YZ=             -0.0006

 Normal termination of Gaussian 09 at Fri Aug 26 12:28:16 2022.
