 Gaussian 09, Revision E.01,
 Gaussian 09:  ES64L-G09RevE.01 30-Nov-2015

 -----
 #P G4
 -----

 --------
 Frag_718
 --------
 Symbolic Z-matrix:
 Charge =  0 Multiplicity = 1

 SCF Done:  E(RB3LYP) =  -249.663775338     A.U. after   12 cycles
 SCF Done:  E(RB3LYP) =  -249.670005496     A.U. after   11 cycles
 SCF Done:  E(RB3LYP) =  -249.671114235     A.U. after   10 cycles
 SCF Done:  E(RB3LYP) =  -249.671336821     A.U. after   10 cycles
 SCF Done:  E(RB3LYP) =  -249.671361496     A.U. after    9 cycles
 SCF Done:  E(RB3LYP) =  -249.671367142     A.U. after    9 cycles
 SCF Done:  E(RB3LYP) =  -249.671368881     A.U. after    8 cycles
 SCF Done:  E(RB3LYP) =  -249.671369000     A.U. after    6 cycles
 Optimization completed.
    -- Stationary point found.
 Normal termination of Gaussian 09 at Mon Aug 22 02:27:21 2022.

 ----------------------------------------------------------
 #P Geom=AllCheck Guess=TCheck SCRF=Check B3LYP/GTBas3 Freq
 ----------------------------------------------------------

 Structure from the checkpoint file:  "G4.Frag_718.chk"
 --------
 Frag_718
 --------
 Charge =  0 Multiplicity = 1

 SCF Done:  E(RB3LYP) =  -249.671369000     A.U. after    1 cycles

  Exact polarizability:  52.952   0.614  47.201   1.237   0.716  40.882
 Approx polarizability:  66.952   3.372  64.064   1.365   0.928  60.530

                      1                      2                      3
                      A                      A                      A
 Frequencies --     99.2909               216.4286               264.5344
 Red. masses --      1.8696                 1.0729                 1.2623
 Frc consts  --      0.0109                 0.0296                 0.0520
 IR Inten    --      0.0863                 2.0183                 0.3923

                      4                      5                      6
                      A                      A                      A
 Frequencies --    281.7131               288.7628               406.8613
 Red. masses --      1.1358                 2.3083                 2.1753
 Frc consts  --      0.0531                 0.1134                 0.2122
 IR Inten    --     85.1238                 1.1011                 4.0607

                      7                      8                      9
                      A                      A                      A
 Frequencies --    445.4479               489.2181               797.4513
 Red. masses --      3.2030                 3.3361                 2.7228
 Frc consts  --      0.3745                 0.4704                 1.0202
 IR Inten    --      0.7933                10.3135                15.5974

                     10                     11                     12
                      A                      A                      A
 Frequencies --    814.4662               929.0518              1005.0454
 Red. masses --      1.1710                 2.8562                 2.3400
 Frc consts  --      0.4577                 1.4525                 1.3927
 IR Inten    --      0.7696                18.7730                10.3975

                     13                     14                     15
                      A                      A                      A
 Frequencies --   1057.2449              1118.1289              1151.6054
 Red. masses --      2.5601                 1.3872                 1.7139
 Frc consts  --      1.6860                 1.0218                 1.3392
 IR Inten    --      7.9338                 0.9856                11.6245

                     16                     17                     18
                      A                      A                      A
 Frequencies --   1205.6166              1242.6060              1292.8716
 Red. masses --      1.7570                 2.7148                 1.1422
 Frc consts  --      1.5047                 2.4698                 1.1249
 IR Inten    --     14.8044                 6.5291                21.0932

                     19                     20                     21
                      A                      A                      A
 Frequencies --   1370.0949              1381.2742              1408.0434
 Red. masses --      1.2833                 1.2757                 1.2846
 Frc consts  --      1.4193                 1.4341                 1.5005
 IR Inten    --     35.2216                 7.3593                 4.7275

                     22                     23                     24
                      A                      A                      A
 Frequencies --   1441.6060              1479.7307              1490.8833
 Red. masses --      1.1883                 1.0481                 1.0509
 Frc consts  --      1.4550                 1.3521                 1.3762
 IR Inten    --      0.1595                 7.9421                 1.7521

                     25                     26                     27
                      A                      A                      A
 Frequencies --   1494.2090              1503.2634              1517.7867
 Red. masses --      1.0465                 1.0429                 1.0899
 Frc consts  --      1.3766                 1.3886                 1.4793
 IR Inten    --      3.8064                 3.8569                 2.7051

                     28                     29                     30
                      A                      A                      A
 Frequencies --   2955.8690              2975.2277              3042.3662
 Red. masses --      1.0718                 1.0533                 1.0351
 Frc consts  --      5.5173                 5.4932                 5.6451
 IR Inten    --     47.9407                59.2569                16.9445

                     31                     32                     33
                      A                      A                      A
 Frequencies --   3076.9305              3089.4588              3113.0024
 Red. masses --      1.0896                 1.0793                 1.1000
 Frc consts  --      6.0779                 6.0693                 6.2805
 IR Inten    --     12.0814                23.1357                43.2955

                     34                     35                     36
                      A                      A                      A
 Frequencies --   3117.2115              3129.5345              3802.4155
 Red. masses --      1.1024                 1.1028                 1.0681
 Frc consts  --      6.3111                 6.3636                 9.0991
 IR Inten    --     24.9411                22.1615                37.3022

 - Thermochemistry -
 -------------------
 Temperature   298.150 Kelvin.  Pressure   1.00000 Atm.
 Atom     1 has atomic number  6 and mass  12.00000

 Molecular mass:    75.06841 amu.
 Principal axes and moments of inertia in atomic units:
                           1         2         3
     Eigenvalues --   215.47278 497.73270 647.12540
           X            0.99960  -0.02807   0.00411
           Y            0.02800   0.99946   0.01699
           Z           -0.00459  -0.01687   0.99985
 This molecule is an asymmetric top.
 Rotational symmetry number  1.
 Rotational temperatures (Kelvin)      0.40197     0.17402     0.13384
 Rotational constants (GHZ):           8.37573     3.62592     2.78886
 Zero-point vibrational energy     325954.0 (Joules/Mol)
                                   77.90487 (Kcal/Mol)
 Warning -- explicit consideration of   8 degrees of freedom as
           vibrations may cause significant error
 Vibrational temperatures:    142.86   311.39   380.61   405.32   415.46
          (Kelvin)            585.38   640.90   703.87  1147.35  1171.83
                             1336.70  1446.03  1521.14  1608.74  1656.90
                             1734.61  1787.83  1860.15  1971.26  1987.34
                             2025.86  2074.15  2129.00  2145.05  2149.83
                             2162.86  2183.75  4252.83  4280.68  4377.28
                             4427.01  4445.04  4478.91  4484.97  4502.70
                             5470.82

 Zero-point correction=                           0.124149 (Hartree/Particle)
 Thermal correction to Energy=                    0.130808
 Thermal correction to Enthalpy=                  0.131752
 Thermal correction to Gibbs Free Energy=         0.094611
 Sum of electronic and zero-point Energies=           -249.547220
 Sum of electronic and thermal Energies=              -249.540561
 Sum of electronic and thermal Enthalpies=            -249.539617
 Sum of electronic and thermal Free Energies=         -249.576758

                     E (Thermal)             CV                S
                      KCal/Mol        Cal/Mol-Kelvin    Cal/Mol-Kelvin
 Total                   82.083             23.241             78.171
 Electronic               0.000              0.000              0.000
 Translational            0.889              2.981             38.863
 Rotational               0.889              2.981             25.743
 Vibrational             80.306             17.280             13.565
 Vibration     1          0.604              1.950              3.468
 Vibration     2          0.645              1.816              1.989
 Vibration     3          0.671              1.738              1.632
 Vibration     4          0.681              1.707              1.523
 Vibration     5          0.685              1.695              1.481
 Vibration     6          0.772              1.455              0.938
 Vibration     7          0.805              1.371              0.810
 Vibration     8          0.845              1.274              0.686

 Optimization completed.
    -- Stationary point found.
 Normal termination of Gaussian 09 at Mon Aug 22 02:29:14 2022.

 -----------------------------------------------------------------
 #P Geom=AllCheck Guess=TCheck SCRF=Check CCSD(T,E4T,FrzG4)/GTBas1
 -----------------------------------------------------------------

 Structure from the checkpoint file:  "G4.Frag_718.chk"
 --------
 Frag_718
 --------
 Charge =  0 Multiplicity = 1

 SCF Done:  E(RHF) =  -248.077699390     A.U. after   12 cycles
 E2 =    -0.7410177084D+00 EUMP2 =    -0.24881871709853D+03
 CCSD(T)
 CCSD(T)= -0.24889291628D+03
 SDQ=-248.869976\CCSD=-248.8709354\CCSD(T)=-248.8929163\RMSD=8.347e-09\
 Normal termination of Gaussian 09 at Mon Aug 22 02:32:05 2022.

 ---------------------------------------------------------
 #P Geom=AllCheck Guess=TCheck SCRF=Check MP4=FrzG4/GTBas2
 ---------------------------------------------------------

 Structure from the checkpoint file:  "G4.Frag_718.chk"
 --------
 Frag_718
 --------
 Charge =  0 Multiplicity = 1

 SCF Done:  E(RHF) =  -248.084834913     A.U. after   12 cycles
 E2 =    -0.7529588943D+00 EUMP2 =    -0.24883779380770D+03
 Normal termination of Gaussian 09 at Mon Aug 22 02:35:54 2022.

 ---------------------------------------------------------
 #P Geom=AllCheck Guess=TCheck SCRF=Check MP4=FrzG4/GTBas3
 ---------------------------------------------------------

 Structure from the checkpoint file:  "G4.Frag_718.chk"
 --------
 Frag_718
 --------
 Charge =  0 Multiplicity = 1

 SCF Done:  E(RHF) =  -248.110342278     A.U. after   11 cycles
 E2 =    -0.9230136668D+00 EUMP2 =    -0.24903335594453D+03
 Normal termination of Gaussian 09 at Mon Aug 22 03:37:19 2022.

 -----------------------------------------------------------
 #P Geom=AllCheck Guess=TCheck SCRF=Check MP2=Full/GTLargeXP
 -----------------------------------------------------------

 Structure from the checkpoint file:  "G4.Frag_718.chk"
 --------
 Frag_718
 --------
 Charge =  0 Multiplicity = 1

 SCF Done:  E(RHF) =  -248.173798922     A.U. after   12 cycles
 E2 =    -0.1206051753D+01 EUMP2 =    -0.24937985067589D+03
 Normal termination of Gaussian 09 at Mon Aug 22 03:40:51 2022.
 SCF Done:  E(RHF) =  -248.194047414     A.U. after    9 cycles
 Normal termination of Gaussian 09 at Mon Aug 22 03:45:01 2022.

                         Standard orientation:
 ---------------------------------------------------------------------
 Center     Atomic      Atomic             Coordinates (Angstroms)
 Number     Number       Type             X           Y           Z
 ---------------------------------------------------------------------
      1          6           0        2.019556    0.033342   -0.147985
      2          6           0        0.710568   -0.608025    0.309289
      3          7           0       -0.455287   -0.023138   -0.359879
      4          6           0       -0.750984    1.328897    0.097277
      5          8           0       -1.585747   -0.823990    0.058898
      6          1           0        2.867211   -0.521689    0.264816
      7          1           0        2.095836    0.018205   -1.239333
      8          1           0        2.113698    1.070465    0.186918
      9          1           0        0.609671   -0.544934    1.406957
     10          1           0        0.710413   -1.670068    0.048142
     11          1           0       -1.662771    1.676268   -0.393342
     12          1           0        0.069289    1.991852   -0.190282
     13          1           0       -0.892828    1.383872    1.189149
     14          1           0       -1.912372   -1.175363   -0.776552
 ---------------------------------------------------------------------

 SCF Done:  E(RHF) =  -248.198460217     A.U. after    8 cycles

 The electronic state is 1-A.
 Alpha  occ. eigenvalues --  -20.57588 -15.60421 -11.24899 -11.24299 -11.21817
 Alpha  occ. eigenvalues --   -1.39370  -1.14676  -1.00578  -0.90690  -0.79879
 Alpha  occ. eigenvalues --   -0.69731  -0.65039  -0.63456  -0.58893  -0.56573
 Alpha  occ. eigenvalues --   -0.55051  -0.51782  -0.51382  -0.48943  -0.46239
 Alpha  occ. eigenvalues --   -0.38304
 Alpha virt. eigenvalues --    0.04006   0.04328   0.04938   0.05254   0.07056
 Alpha virt. eigenvalues --    0.07270   0.07467   0.07911   0.08623   0.10265
 Alpha virt. eigenvalues --    0.11693   0.13544   0.14288   0.14859   0.15553

 Mulliken charges:
               1
     1  C   -0.523354
     2  C   -0.197530
     3  N   -0.000930
     4  C   -0.428053
     5  O   -0.574778
     6  H    0.170581
     7  H    0.178474
     8  H    0.161790
     9  H    0.155527
    10  H    0.160252
    11  H    0.167867
    12  H    0.175008
    13  H    0.157331
    14  H    0.397818
 Sum of Mulliken charges =  -0.00000

 Dipole moment (field-independent basis, Debye):
    X=              0.7652    Y=              0.3775    Z=             -0.5150  Tot=              0.9966
 Quadrupole moment (field-independent basis, Debye-Ang):
   XX=            -32.2339   YY=            -30.8789   ZZ=            -33.0319
   XY=             -0.3552   XZ=              2.9945   YZ=              1.8967

 Normal termination of Gaussian 09 at Mon Aug 22 05:35:13 2022.
