 Gaussian 09, Revision E.01,
 Gaussian 09:  ES64L-G09RevE.01 30-Nov-2015

 -----
 #P G4
 -----

 --------
 Frag_486
 --------
 Symbolic Z-matrix:
 Charge =  0 Multiplicity = 1

 SCF Done:  E(RB3LYP) =  -249.656124696     A.U. after   12 cycles
 SCF Done:  E(RB3LYP) =  -249.661444575     A.U. after   11 cycles
 SCF Done:  E(RB3LYP) =  -249.662155887     A.U. after   11 cycles
 SCF Done:  E(RB3LYP) =  -249.662299012     A.U. after   10 cycles
 SCF Done:  E(RB3LYP) =  -249.662310083     A.U. after    8 cycles
 Optimization completed.
    -- Stationary point found.
 Normal termination of Gaussian 09 at Fri Aug 26 07:29:17 2022.

 ----------------------------------------------------------
 #P Geom=AllCheck Guess=TCheck SCRF=Check B3LYP/GTBas3 Freq
 ----------------------------------------------------------

 Structure from the checkpoint file:  "G4.Frag_486.chk"
 --------
 Frag_486
 --------
 Charge =  0 Multiplicity = 1

 SCF Done:  E(RB3LYP) =  -249.662310083     A.U. after    1 cycles

  Exact polarizability:  56.466  -0.000  46.967  -0.231  -0.000  39.925
 Approx polarizability:  70.572  -0.000  60.755  -2.048   0.000  59.756

                      1                      2                      3
                      A                      A                      A
 Frequencies --     54.5974               200.8112               244.8705
 Red. masses --      2.6142                 1.0841                 1.0267
 Frc consts  --      0.0046                 0.0258                 0.0363
 IR Inten    --      3.3328                 0.7288                 0.1586

                      4                      5                      6
                      A                      A                      A
 Frequencies --    253.1201               317.6017               397.9395
 Red. masses --      1.1554                 2.1335                 2.2642
 Frc consts  --      0.0436                 0.1268                 0.2113
 IR Inten    --      1.9128                 5.5860                 3.9101

                      7                      8                      9
                      A                      A                      A
 Frequencies --    451.9808               504.6359               797.6888
 Red. masses --      3.4331                 2.8109                 4.0733
 Frc consts  --      0.4132                 0.4217                 1.5271
 IR Inten    --      7.9033                 3.3316                13.8247

                     10                     11                     12
                      A                      A                      A
 Frequencies --    958.8133              1016.0364              1080.5478
 Red. masses --      3.4875                 1.6757                 6.5110
 Frc consts  --      1.8890                 1.0192                 4.4790
 IR Inten    --     18.4144                 8.7948                84.4701

                     13                     14                     15
                      A                      A                      A
 Frequencies --   1111.5702              1180.3628              1181.5441
 Red. masses --      1.2307                 1.2841                 1.4592
 Frc consts  --      0.8959                 1.0541                 1.2002
 IR Inten    --      1.6650                 2.2083                 3.1372

                     16                     17                     18
                      A                      A                      A
 Frequencies --   1228.5401              1244.5122              1250.4101
 Red. masses --      1.7203                 1.7701                 3.2675
 Frc consts  --      1.5298                 1.6153                 3.0101
 IR Inten    --      1.1881                 4.0734                 1.6775

                     19                     20                     21
                      A                      A                      A
 Frequencies --   1429.1171              1452.5328              1465.8885
 Red. masses --      1.1791                 1.1764                 1.1441
 Frc consts  --      1.4189                 1.4624                 1.4485
 IR Inten    --      0.8493                 2.1028                 2.0598

                     22                     23                     24
                      A                      A                      A
 Frequencies --   1470.7278              1474.4114              1486.0031
 Red. masses --      1.0485                 1.0507                 1.0443
 Frc consts  --      1.3363                 1.3457                 1.3586
 IR Inten    --      6.4672                 4.0377                 6.2580

                     25                     26                     27
                      A                      A                      A
 Frequencies --   1491.4572              1507.6625              1512.6068
 Red. masses --      1.0462                 1.0547                 1.0614
 Frc consts  --      1.3712                 1.4124                 1.4308
 IR Inten    --      0.4569                17.0051                 1.4995

                     28                     29                     30
                      A                      A                      A
 Frequencies --   2974.5630              2980.8844              2998.1785
 Red. masses --      1.0506                 1.0510                 1.0322
 Frc consts  --      5.4770                 5.5020                 5.4670
 IR Inten    --     30.3502                94.4885                47.6212

                     31                     32                     33
                      A                      A                      A
 Frequencies --   3054.6470              3077.9956              3083.2731
 Red. masses --      1.1049                 1.0828                 1.0809
 Frc consts  --      6.0745                 6.0440                 6.0544
 IR Inten    --     47.7974                10.5168                39.8225

                     34                     35                     36
                      A                      A                      A
 Frequencies --   3107.7249              3120.7265              3124.3416
 Red. masses --      1.1002                 1.1020                 1.1032
 Frc consts  --      6.2602                 6.3235                 6.3447
 IR Inten    --     28.8711                18.0203                28.0576

 - Thermochemistry -
 -------------------
 Temperature   298.150 Kelvin.  Pressure   1.00000 Atm.
 Atom     1 has atomic number  6 and mass  12.00000

 Molecular mass:    75.06841 amu.
 Principal axes and moments of inertia in atomic units:
                           1         2         3
     Eigenvalues --   226.80675 456.42605 598.05854
           X            0.99980   0.00000   0.01986
           Y           -0.00000   1.00000  -0.00000
           Z           -0.01986   0.00000   0.99980
 This molecule is an asymmetric top.
 Rotational symmetry number  1.
 Rotational temperatures (Kelvin)      0.38188     0.18977     0.14482
 Rotational constants (GHZ):           7.95718     3.95407     3.01767
 Zero-point vibrational energy     324716.3 (Joules/Mol)
                                   77.60906 (Kcal/Mol)
 Warning -- explicit consideration of   8 degrees of freedom as
           vibrations may cause significant error
 Vibrational temperatures:     78.55   288.92   352.31   364.18   456.96
          (Kelvin)            572.55   650.30   726.06  1147.69  1379.52
                             1461.85  1554.67  1599.30  1698.28  1699.98
                             1767.59  1790.57  1799.06  2056.18  2089.87
                             2109.08  2116.05  2121.35  2138.02  2145.87
                             2169.19  2176.30  4279.73  4288.82  4313.70
                             4394.95  4428.54  4436.14  4471.32  4490.02
                             4495.23

 Zero-point correction=                           0.123678 (Hartree/Particle)
 Thermal correction to Energy=                    0.130399
 Thermal correction to Enthalpy=                  0.131343
 Thermal correction to Gibbs Free Energy=         0.093659
 Sum of electronic and zero-point Energies=           -249.538632
 Sum of electronic and thermal Energies=              -249.531911
 Sum of electronic and thermal Enthalpies=            -249.530967
 Sum of electronic and thermal Free Energies=         -249.568651

                     E (Thermal)             CV                S
                      KCal/Mol        Cal/Mol-Kelvin    Cal/Mol-Kelvin
 Total                   81.827             22.731             79.313
 Electronic               0.000              0.000              0.000
 Translational            0.889              2.981             38.863
 Rotational               0.889              2.981             25.629
 Vibrational             80.049             16.770             14.820
 Vibration     1          0.596              1.976              4.644
 Vibration     2          0.638              1.839              2.126
 Vibration     3          0.660              1.771              1.767
 Vibration     4          0.664              1.758              1.709
 Vibration     5          0.704              1.640              1.322
 Vibration     6          0.764              1.475              0.970
 Vibration     7          0.811              1.357              0.790
 Vibration     8          0.860              1.240              0.647

 Optimization completed.
    -- Stationary point found.
 Normal termination of Gaussian 09 at Fri Aug 26 07:29:42 2022.

 -----------------------------------------------------------------
 #P Geom=AllCheck Guess=TCheck SCRF=Check CCSD(T,E4T,FrzG4)/GTBas1
 -----------------------------------------------------------------

 Structure from the checkpoint file:  "G4.Frag_486.chk"
 --------
 Frag_486
 --------
 Charge =  0 Multiplicity = 1

 SCF Done:  E(RHF) =  -248.070777047     A.U. after   12 cycles
 E2 =    -0.7385935963D+00 EUMP2 =    -0.24880937064316D+03
 CCSD(T)
 CCSD(T)= -0.24888446605D+03
 P4SDQ=-248.8609746\CCSD=-248.8618172\CCSD(T)=-248.8844661\RMSD=4.494e-
 Normal termination of Gaussian 09 at Fri Aug 26 07:30:46 2022.

 ---------------------------------------------------------
 #P Geom=AllCheck Guess=TCheck SCRF=Check MP4=FrzG4/GTBas2
 ---------------------------------------------------------

 Structure from the checkpoint file:  "G4.Frag_486.chk"
 --------
 Frag_486
 --------
 Charge =  0 Multiplicity = 1

 SCF Done:  E(RHF) =  -248.077091501     A.U. after   12 cycles
 E2 =    -0.7497366666D+00 EUMP2 =    -0.24882682816798D+03
 Normal termination of Gaussian 09 at Fri Aug 26 07:31:05 2022.

 ---------------------------------------------------------
 #P Geom=AllCheck Guess=TCheck SCRF=Check MP4=FrzG4/GTBas3
 ---------------------------------------------------------

 Structure from the checkpoint file:  "G4.Frag_486.chk"
 --------
 Frag_486
 --------
 Charge =  0 Multiplicity = 1

 SCF Done:  E(RHF) =  -248.099782696     A.U. after   11 cycles
 E2 =    -0.9203095504D+00 EUMP2 =    -0.24902009224650D+03
 Normal termination of Gaussian 09 at Fri Aug 26 07:32:54 2022.

 -----------------------------------------------------------
 #P Geom=AllCheck Guess=TCheck SCRF=Check MP2=Full/GTLargeXP
 -----------------------------------------------------------

 Structure from the checkpoint file:  "G4.Frag_486.chk"
 --------
 Frag_486
 --------
 Charge =  0 Multiplicity = 1

 SCF Done:  E(RHF) =  -248.162560846     A.U. after   11 cycles
 E2 =    -0.1201415759D+01 EUMP2 =    -0.24936397660492D+03
 Normal termination of Gaussian 09 at Fri Aug 26 07:33:58 2022.
 SCF Done:  E(RHF) =  -248.182278965     A.U. after    9 cycles
 Normal termination of Gaussian 09 at Fri Aug 26 07:35:21 2022.

                         Standard orientation:
 ---------------------------------------------------------------------
 Center     Atomic      Atomic             Coordinates (Angstroms)
 Number     Number       Type             X           Y           Z
 ---------------------------------------------------------------------
      1          6           0       -1.933669    0.000002   -0.203853
      2          8           0       -0.748051    0.000006    0.566478
      3          7           0        0.385612    0.000000   -0.326833
      4          6           0        1.138147   -1.207647   -0.013863
      5          6           0        1.138158    1.207640   -0.013865
      6          1           0       -2.007101   -0.891405   -0.840836
      7          1           0       -2.758875    0.000006    0.514630
      8          1           0       -2.007100    0.891403   -0.840846
      9          1           0        0.517792   -2.082387   -0.222602
     10          1           0        2.020818   -1.244595   -0.659851
     11          1           0        1.462563   -1.244280    1.038725
     12          1           0        2.020831    1.244580   -0.659851
     13          1           0        1.462572    1.244273    1.038724
     14          1           0        0.517813    2.082386   -0.222605
 ---------------------------------------------------------------------

 SCF Done:  E(RHF) =  -248.186646866     A.U. after    7 cycles

 The electronic state is 1-A.
 Alpha  occ. eigenvalues --  -20.57359 -15.60314 -11.26414 -11.24440 -11.24439
 Alpha  occ. eigenvalues --   -1.40182  -1.15463  -0.95791  -0.91421  -0.82370
 Alpha  occ. eigenvalues --   -0.66300  -0.65669  -0.65648  -0.58325  -0.57679
 Alpha  occ. eigenvalues --   -0.54847  -0.54696  -0.51840  -0.49364  -0.43183
 Alpha  occ. eigenvalues --   -0.38172
 Alpha virt. eigenvalues --    0.04008   0.04263   0.04434   0.05125   0.06693
 Alpha virt. eigenvalues --    0.06837   0.07367   0.07685   0.08966   0.09791
 Alpha virt. eigenvalues --    0.13135   0.13730   0.14655   0.14935   0.16037

 Mulliken charges:
               1
     1  C   -0.313690
     2  O   -0.332954
     3  N    0.078497
     4  C   -0.463372
     5  C   -0.463372
     6  H    0.158244
     7  H    0.174395
     8  H    0.158245
     9  H    0.169720
    10  H    0.171133
    11  H    0.161151
    12  H    0.171133
    13  H    0.161151
    14  H    0.169720
 Sum of Mulliken charges =  -0.00000

 Dipole moment (field-independent basis, Debye):
    X=              0.4700    Y=             -0.0000    Z=             -0.5348  Tot=              0.7119
 Quadrupole moment (field-independent basis, Debye-Ang):
   XX=            -28.5902   YY=            -30.8756   ZZ=            -34.9481
   XY=              0.0000   XZ=              0.6933   YZ=             -0.0000

 Normal termination of Gaussian 09 at Fri Aug 26 07:39:40 2022.
