 Gaussian 09, Revision E.01,
 Gaussian 09:  ES64L-G09RevE.01 30-Nov-2015

 -----
 #P G4
 -----

 --------
 Frag_738
 --------
 Symbolic Z-matrix:
 Charge =  0 Multiplicity = 1

 SCF Done:  E(RB3LYP) =  -229.066104946     A.U. after   13 cycles
 SCF Done:  E(RB3LYP) =  -229.081372736     A.U. after   12 cycles
 SCF Done:  E(RB3LYP) =  -229.081971237     A.U. after   11 cycles
 SCF Done:  E(RB3LYP) =  -229.082010524     A.U. after    8 cycles
 SCF Done:  E(RB3LYP) =  -229.082013922     A.U. after    8 cycles
 Optimization completed.
    -- Stationary point found.
 Normal termination of Gaussian 09 at Thu Aug 25 15:08:56 2022.

 ----------------------------------------------------------
 #P Geom=AllCheck Guess=TCheck SCRF=Check B3LYP/GTBas3 Freq
 ----------------------------------------------------------

 Structure from the checkpoint file:  "G4.Frag_738.chk"
 --------
 Frag_738
 --------
 Charge =  0 Multiplicity = 1

 SCF Done:  E(RB3LYP) =  -229.082013922     A.U. after    1 cycles

  Exact polarizability:  35.208  -1.031  29.161  -0.000   0.000  21.018
 Approx polarizability:  46.602   5.010  46.191  -0.000   0.000  29.560

                      1                      2                      3
                      A                      A                      A
 Frequencies --    112.4135               298.6779               346.3684
 Red. masses --      1.0781                 3.8823                 2.3694
 Frc consts  --      0.0080                 0.2041                 0.1675
 IR Inten    --      0.1094                13.4544                22.6553

                      4                      5                      6
                      A                      A                      A
 Frequencies --    777.1461               944.1511              1047.2670
 Red. masses --      4.8880                 5.2044                 1.6552
 Frc consts  --      1.7393                 2.7334                 1.0696
 IR Inten    --      7.8361                19.4767                 0.3247

                      7                      8                      9
                      A                      A                      A
 Frequencies --   1178.7040              1187.3170              1233.5413
 Red. masses --      1.2803                 2.0564                 3.0538
 Frc consts  --      1.0480                 1.7080                 2.7378
 IR Inten    --      1.3007                92.6542               203.0646

                     10                     11                     12
                      A                      A                      A
 Frequencies --   1405.6952              1468.7141              1482.2222
 Red. masses --      1.1411                 1.1814                 1.0465
 Frc consts  --      1.3284                 1.5014                 1.3546
 IR Inten    --      1.3459                 3.7376                 6.9871

                     13                     14                     15
                      A                      A                      A
 Frequencies --   1496.0207              1827.0019              3030.8176
 Red. masses --      1.0494                 9.0153                 1.0902
 Frc consts  --      1.3837                17.7299                 5.9001
 IR Inten    --      9.6320               255.3777                64.5284

                     16                     17                     18
                      A                      A                      A
 Frequencies --   3054.6541              3130.0399              3165.1538
 Red. masses --      1.0304                 1.1058                 1.1060
 Frc consts  --      5.6649                 6.3828                 6.5285
 IR Inten    --     15.8745                17.9739                13.5850

 - Thermochemistry -
 -------------------
 Temperature   298.150 Kelvin.  Pressure   1.00000 Atm.
 Atom     1 has atomic number  6 and mass  12.00000

 Molecular mass:    60.02113 amu.
 Principal axes and moments of inertia in atomic units:
                           1         2         3
     Eigenvalues --    89.51363 262.59943 340.74539
           X            0.99597  -0.08968  -0.00000
           Y            0.08968   0.99597   0.00000
           Z            0.00000  -0.00000   1.00000
 This molecule is an asymmetric top.
 Rotational symmetry number  1.
 Rotational temperatures (Kelvin)      0.96760     0.32983     0.25419
 Rotational constants (GHZ):          20.16163     6.87260     5.29645
 Zero-point vibrational energy     162607.8 (Joules/Mol)
                                   38.86420 (Kcal/Mol)
 Warning -- explicit consideration of   3 degrees of freedom as
           vibrations may cause significant error
 Vibrational temperatures:    161.74   429.73   498.35  1118.14  1358.42
          (Kelvin)           1506.78  1695.89  1708.28  1774.79  2022.48
                             2113.15  2132.58  2152.44  2628.64  4360.67
                             4394.96  4503.42  4553.94

 Zero-point correction=                           0.061934 (Hartree/Particle)
 Thermal correction to Energy=                    0.066501
 Thermal correction to Enthalpy=                  0.067446
 Thermal correction to Gibbs Free Energy=         0.035026
 Sum of electronic and zero-point Energies=           -229.020080
 Sum of electronic and thermal Energies=              -229.015513
 Sum of electronic and thermal Enthalpies=            -229.014568
 Sum of electronic and thermal Free Energies=         -229.046988

                     E (Thermal)             CV                S
                      KCal/Mol        Cal/Mol-Kelvin    Cal/Mol-Kelvin
 Total                   41.730             13.602             68.232
 Electronic               0.000              0.000              0.000
 Translational            0.889              2.981             38.196
 Rotational               0.889              2.981             23.597
 Vibrational             39.953              7.641              6.438
 Vibration     1          0.607              1.939              3.227
 Vibration     2          0.692              1.676              1.424
 Vibration     3          0.724              1.583              1.183

 Optimization completed.
    -- Stationary point found.
 Normal termination of Gaussian 09 at Thu Aug 25 15:09:22 2022.

 -----------------------------------------------------------------
 #P Geom=AllCheck Guess=TCheck SCRF=Check CCSD(T,E4T,FrzG4)/GTBas1
 -----------------------------------------------------------------

 Structure from the checkpoint file:  "G4.Frag_738.chk"
 --------
 Frag_738
 --------
 Charge =  0 Multiplicity = 1

 SCF Done:  E(RHF) =  -227.787448948     A.U. after   13 cycles
 E2 =    -0.6086294273D+00 EUMP2 =    -0.22839607837516D+03
 CCSD(T)
 CCSD(T)= -0.22843832744D+03
 8.4416626\MP4SDQ=-228.4204342\CCSD=-228.4190301\CCSD(T)=-228.4383274\R
 Normal termination of Gaussian 09 at Thu Aug 25 15:09:46 2022.

 ---------------------------------------------------------
 #P Geom=AllCheck Guess=TCheck SCRF=Check MP4=FrzG4/GTBas2
 ---------------------------------------------------------

 Structure from the checkpoint file:  "G4.Frag_738.chk"
 --------
 Frag_738
 --------
 Charge =  0 Multiplicity = 1

 SCF Done:  E(RHF) =  -227.794236426     A.U. after   12 cycles
 E2 =    -0.6173812974D+00 EUMP2 =    -0.22841161772368D+03
 Normal termination of Gaussian 09 at Thu Aug 25 15:09:56 2022.

 ---------------------------------------------------------
 #P Geom=AllCheck Guess=TCheck SCRF=Check MP4=FrzG4/GTBas3
 ---------------------------------------------------------

 Structure from the checkpoint file:  "G4.Frag_738.chk"
 --------
 Frag_738
 --------
 Charge =  0 Multiplicity = 1

 SCF Done:  E(RHF) =  -227.811345892     A.U. after   12 cycles
 E2 =    -0.7504017953D+00 EUMP2 =    -0.22856174768693D+03
 Normal termination of Gaussian 09 at Thu Aug 25 15:13:13 2022.

 -----------------------------------------------------------
 #P Geom=AllCheck Guess=TCheck SCRF=Check MP2=Full/GTLargeXP
 -----------------------------------------------------------

 Structure from the checkpoint file:  "G4.Frag_738.chk"
 --------
 Frag_738
 --------
 Charge =  0 Multiplicity = 1

 SCF Done:  E(RHF) =  -227.875244186     A.U. after   12 cycles
 E2 =    -0.9807607041D+00 EUMP2 =    -0.22885600489058D+03
 Normal termination of Gaussian 09 at Thu Aug 25 15:13:51 2022.
 SCF Done:  E(RHF) =  -227.893615687     A.U. after   10 cycles
 Normal termination of Gaussian 09 at Thu Aug 25 15:15:15 2022.

                         Standard orientation:
 ---------------------------------------------------------------------
 Center     Atomic      Atomic             Coordinates (Angstroms)
 Number     Number       Type             X           Y           Z
 ---------------------------------------------------------------------
      1          6           0        1.363195   -0.401399    0.000000
      2          8           0        0.477399    0.729374   -0.000000
      3          6           0       -0.828443    0.432199    0.000000
      4          8           0       -1.299399   -0.671416   -0.000000
      5          1           0        1.199758   -1.016075    0.888615
      6          1           0        1.199763   -1.016071   -0.888618
      7          1           0        2.371159    0.012176    0.000003
      8          1           0       -1.403189    1.371506    0.000000
 ---------------------------------------------------------------------

 SCF Done:  E(RHF) =  -227.897540874     A.U. after    7 cycles

 The electronic state is 1-A.
 Alpha  occ. eigenvalues --  -20.61274 -20.55599 -11.38442 -11.29246  -1.46916
 Alpha  occ. eigenvalues --   -1.37195  -0.99005  -0.82050  -0.73956  -0.68323
 Alpha  occ. eigenvalues --   -0.67692  -0.59741  -0.55575  -0.53893  -0.47204
 Alpha  occ. eigenvalues --   -0.46677
 Alpha virt. eigenvalues --    0.03963   0.04543   0.05133   0.05921   0.07264
 Alpha virt. eigenvalues --    0.07616   0.07815   0.12773   0.13950   0.14714
 Alpha virt. eigenvalues --    0.15786   0.16205   0.17761   0.17761   0.19196

 Mulliken charges:
               1
     1  C   -0.328411
     2  O   -0.301791
     3  C    0.393529
     4  O   -0.552514
     5  H    0.193229
     6  H    0.193229
     7  H    0.191414
     8  H    0.211315
 Sum of Mulliken charges =  -0.00000

 Dipole moment (field-independent basis, Debye):
    X=              1.6944    Y=              1.1084    Z=              0.0000  Tot=              2.0247
 Quadrupole moment (field-independent basis, Debye-Ang):
   XX=            -23.4023   YY=            -24.5863   ZZ=            -23.0465
   XY=             -5.2482   XZ=             -0.0000   YZ=             -0.0000

 Normal termination of Gaussian 09 at Thu Aug 25 15:46:07 2022.
