 Gaussian 09, Revision E.01,
 Gaussian 09:  ES64L-G09RevE.01 30-Nov-2015

 -----
 #P G4
 -----

 --------
 Frag_874
 --------
 Symbolic Z-matrix:
 Charge =  0 Multiplicity = 1

 SCF Done:  E(RB3LYP) =  -285.134436924     A.U. after   12 cycles
 SCF Done:  E(RB3LYP) =  -285.138138112     A.U. after   11 cycles
 SCF Done:  E(RB3LYP) =  -285.138512337     A.U. after   10 cycles
 SCF Done:  E(RB3LYP) =  -285.138601718     A.U. after    9 cycles
 SCF Done:  E(RB3LYP) =  -285.138610971     A.U. after    9 cycles
 SCF Done:  E(RB3LYP) =  -285.138612495     A.U. after    7 cycles
 SCF Done:  E(RB3LYP) =  -285.138612383     A.U. after    7 cycles
 Optimization completed.
    -- Stationary point found.
 Normal termination of Gaussian 09 at Fri Aug 26 12:29:36 2022.

 ----------------------------------------------------------
 #P Geom=AllCheck Guess=TCheck SCRF=Check B3LYP/GTBas3 Freq
 ----------------------------------------------------------

 Structure from the checkpoint file:  "G4.Frag_874.chk"
 --------
 Frag_874
 --------
 Charge =  0 Multiplicity = 1

 SCF Done:  E(RB3LYP) =  -285.138612383     A.U. after    1 cycles

  Exact polarizability:  64.785   0.711  56.055  -1.144   0.099  53.505
 Approx polarizability:  82.547   1.984  78.782  -2.652  -0.444  77.767

                      1                      2                      3
                      A                      A                      A
 Frequencies --    122.9044               228.0573               244.0014
 Red. masses --      2.5501                 1.1121                 1.1358
 Frc consts  --      0.0227                 0.0341                 0.0398
 IR Inten    --      0.8561                 1.6135                 2.2269

                      4                      5                      6
                      A                      A                      A
 Frequencies --    249.3517               285.3043               296.4535
 Red. masses --      1.0856                 2.0794                 2.0655
 Frc consts  --      0.0398                 0.0997                 0.1070
 IR Inten    --      1.6737                11.0214                 5.5809

                      7                      8                      9
                      A                      A                      A
 Frequencies --    337.0539               372.4475               448.1474
 Red. masses --      1.1899                 2.3288                 2.1995
 Frc consts  --      0.0796                 0.1903                 0.2603
 IR Inten    --     24.9174                 0.5483                 3.4465

                     10                     11                     12
                      A                      A                      A
 Frequencies --    521.2177               585.3539               745.2249
 Red. masses --      2.9844                 3.3089                 4.4988
 Frc consts  --      0.4777                 0.6680                 1.4720
 IR Inten    --      6.3086                 5.1412                 8.0091

                     13                     14                     15
                      A                      A                      A
 Frequencies --    827.5438               949.8040              1035.0616
 Red. masses --      2.9229                 2.5537                 1.6559
 Frc consts  --      1.1794                 1.3573                 1.0453
 IR Inten    --     82.3770                 5.3466                11.2443

                     16                     17                     18
                      A                      A                      A
 Frequencies --   1046.2351              1106.5054              1133.4182
 Red. masses --      1.4276                 1.2328                 1.6404
 Frc consts  --      0.9207                 0.8893                 1.2416
 IR Inten    --     37.9555                 2.3613                 6.9249

                     19                     20                     21
                      A                      A                      A
 Frequencies --   1167.1040              1198.5207              1224.5057
 Red. masses --      1.9853                 2.0117                 1.8893
 Frc consts  --      1.5933                 1.7026                 1.6691
 IR Inten    --      5.7215                 4.7562                13.1124

                     22                     23                     24
                      A                      A                      A
 Frequencies --   1251.9239              1283.2022              1309.9090
 Red. masses --      2.7157                 2.2583                 1.3541
 Frc consts  --      2.5078                 2.1909                 1.3689
 IR Inten    --      4.9355                 6.3204                 4.8555

                     25                     26                     27
                      A                      A                      A
 Frequencies --   1422.5700              1438.7405              1453.3494
 Red. masses --      1.1662                 1.1763                 1.1733
 Frc consts  --      1.3905                 1.4346                 1.4602
 IR Inten    --      0.1951                 0.2801                 0.5308

                     28                     29                     30
                      A                      A                      A
 Frequencies --   1471.7045              1485.8485              1493.0162
 Red. masses --      1.0523                 1.0599                 1.0536
 Frc consts  --      1.3429                 1.3787                 1.3837
 IR Inten    --      6.1202                13.3857                 7.5967

                     31                     32                     33
                      A                      A                      A
 Frequencies --   1497.8988              1507.2535              1519.4543
 Red. masses --      1.0501                 1.0488                 1.0507
 Frc consts  --      1.3882                 1.4038                 1.4293
 IR Inten    --      1.0027                 0.7924                 5.7538

                     34                     35                     36
                      A                      A                      A
 Frequencies --   1663.8181              2937.4859              2977.9044
 Red. masses --      1.0813                 1.0590                 1.0504
 Frc consts  --      1.7636                 5.3839                 5.4879
 IR Inten    --     10.7962                64.7522                47.0802

                     37                     38                     39
                      A                      A                      A
 Frequencies --   2986.6541              3070.3058              3072.2148
 Red. masses --      1.0502                 1.0742                 1.0824
 Frc consts  --      5.5194                 5.9664                 6.0190
 IR Inten    --     56.8305                37.8366                20.3335

                     40                     41                     42
                      A                      A                      A
 Frequencies --   3074.7719              3107.6845              3123.8361
 Red. masses --      1.0825                 1.1020                 1.1014
 Frc consts  --      6.0296                 6.2707                 6.3326
 IR Inten    --     41.9502                27.2720                24.2918

                     43                     44                     45
                      A                      A                      A
 Frequencies --   3133.5269              3391.9318              3544.3614
 Red. masses --      1.1007                 1.0558                 1.0852
 Frc consts  --      6.3677                 7.1568                 8.0323
 IR Inten    --     16.9684                11.8040                 0.7953

 - Thermochemistry -
 -------------------
 Temperature   298.150 Kelvin.  Pressure   1.00000 Atm.
 Atom     1 has atomic number  6 and mass  12.00000

 Molecular mass:    89.09530 amu.
 Principal axes and moments of inertia in atomic units:
                           1         2         3
     Eigenvalues --   376.70902 642.15402 691.10253
           X            0.99964  -0.02636   0.00529
           Y            0.02566   0.99419   0.10455
           Z           -0.00802  -0.10438   0.99451
 This molecule is an asymmetric top.
 Rotational symmetry number  1.
 Rotational temperatures (Kelvin)      0.22992     0.13488     0.12533
 Rotational constants (GHZ):           4.79081     2.81045     2.61139
 Zero-point vibrational energy     402804.1 (Joules/Mol)
                                   96.27248 (Kcal/Mol)
 Warning -- explicit consideration of  11 degrees of freedom as
           vibrations may cause significant error
 Vibrational temperatures:    176.83   328.12   351.06   358.76   410.49
          (Kelvin)            426.53   484.94   535.87   644.78   749.92
                              842.19  1072.21  1190.65  1366.55  1489.22
                             1505.30  1592.01  1630.73  1679.20  1724.40
                             1761.79  1801.24  1846.24  1884.66  2046.76
                             2070.02  2091.04  2117.45  2137.80  2148.11
                             2155.14  2168.60  2186.15  2393.86  4226.38
                             4284.53  4297.12  4417.48  4420.23  4423.91
                             4471.26  4494.50  4508.44  4880.23  5099.54

 Zero-point correction=                           0.153420 (Hartree/Particle)
 Thermal correction to Energy=                    0.161123
 Thermal correction to Enthalpy=                  0.162067
 Thermal correction to Gibbs Free Energy=         0.122757
 Sum of electronic and zero-point Energies=           -284.985192
 Sum of electronic and thermal Energies=              -284.977489
 Sum of electronic and thermal Enthalpies=            -284.976545
 Sum of electronic and thermal Free Energies=         -285.015856

                     E (Thermal)             CV                S
                      KCal/Mol        Cal/Mol-Kelvin    Cal/Mol-Kelvin
 Total                  101.106             28.227             82.736
 Electronic               0.000              0.000              0.000
 Translational            0.889              2.981             39.374
 Rotational               0.889              2.981             26.616
 Vibrational             99.329             22.265             16.746
 Vibration     1          0.610              1.930              3.054
 Vibration     2          0.651              1.798              1.894
 Vibration     3          0.659              1.773              1.774
 Vibration     4          0.662              1.764              1.735
 Vibration     5          0.683              1.701              1.502
 Vibration     6          0.690              1.680              1.437
 Vibration     7          0.718              1.601              1.226
 Vibration     8          0.744              1.529              1.070
 Vibration     9          0.807              1.365              0.801
 Vibration    10          0.876              1.203              0.607
 Vibration    11          0.942              1.063              0.476

 Optimization completed.
    -- Stationary point found.
 Normal termination of Gaussian 09 at Fri Aug 26 12:30:17 2022.

 -----------------------------------------------------------------
 #P Geom=AllCheck Guess=TCheck SCRF=Check CCSD(T,E4T,FrzG4)/GTBas1
 -----------------------------------------------------------------

 Structure from the checkpoint file:  "G4.Frag_874.chk"
 --------
 Frag_874
 --------
 Charge =  0 Multiplicity = 1

 SCF Done:  E(RHF) =  -283.255008547     A.U. after   12 cycles
 E2 =    -0.8903994742D+00 EUMP2 =    -0.28414540802149D+03
 CCSD(T)
 CCSD(T)= -0.28423658379D+03
 -284.2084382\CCSD(T)=-284.2365838\RMSD=3.591e-09\PG=C01 [X(C3H11N3)]\\
 Normal termination of Gaussian 09 at Fri Aug 26 12:32:52 2022.

 ---------------------------------------------------------
 #P Geom=AllCheck Guess=TCheck SCRF=Check MP4=FrzG4/GTBas2
 ---------------------------------------------------------

 Structure from the checkpoint file:  "G4.Frag_874.chk"
 --------
 Frag_874
 --------
 Charge =  0 Multiplicity = 1

 SCF Done:  E(RHF) =  -283.262692105     A.U. after   12 cycles
 E2 =    -0.9039840286D+00 EUMP2 =    -0.28416667613384D+03
 Normal termination of Gaussian 09 at Fri Aug 26 12:33:43 2022.

 ---------------------------------------------------------
 #P Geom=AllCheck Guess=TCheck SCRF=Check MP4=FrzG4/GTBas3
 ---------------------------------------------------------

 Structure from the checkpoint file:  "G4.Frag_874.chk"
 --------
 Frag_874
 --------
 Charge =  0 Multiplicity = 1

 SCF Done:  E(RHF) =  -283.292851295     A.U. after   11 cycles
 E2 =    -0.1100359757D+01 EUMP2 =    -0.28439321105184D+03
 Normal termination of Gaussian 09 at Fri Aug 26 12:38:51 2022.

 -----------------------------------------------------------
 #P Geom=AllCheck Guess=TCheck SCRF=Check MP2=Full/GTLargeXP
 -----------------------------------------------------------

 Structure from the checkpoint file:  "G4.Frag_874.chk"
 --------
 Frag_874
 --------
 Charge =  0 Multiplicity = 1

 SCF Done:  E(RHF) =  -283.361736883     A.U. after   11 cycles
 E2 =    -0.1434559436D+01 EUMP2 =    -0.28479629631925D+03
 Normal termination of Gaussian 09 at Fri Aug 26 12:41:18 2022.
 SCF Done:  E(RHF) =  -283.383332080     A.U. after    8 cycles
 Normal termination of Gaussian 09 at Fri Aug 26 12:43:59 2022.

                         Standard orientation:
 ---------------------------------------------------------------------
 Center     Atomic      Atomic             Coordinates (Angstroms)
 Number     Number       Type             X           Y           Z
 ---------------------------------------------------------------------
      1          6           0        1.667975   -0.780688   -0.527575
      2          7           0        0.648671    0.249736   -0.391315
      3          6           0        0.964181    1.187299    0.685975
      4          7           0       -0.630091   -0.364569   -0.287900
      5          6           0       -1.679416    0.541356   -0.726425
      6          7           0       -0.870529   -0.914448    1.012309
      7          1           0        2.632755   -0.302446   -0.724807
      8          1           0        1.764973   -1.405331    0.375131
      9          1           0        1.410848   -1.423123   -1.372543
     10          1           0        1.906545    1.688185    0.445828
     11          1           0        1.068019    0.699905    1.667987
     12          1           0        0.190601    1.958108    0.754455
     13          1           0       -1.850142    1.386645   -0.034081
     14          1           0       -1.414481    0.942704   -1.706288
     15          1           0       -2.616405   -0.018147   -0.808085
     16          1           0       -1.438114   -1.746716    0.889253
     17          1           0       -1.407398   -0.262623    1.589643
 ---------------------------------------------------------------------

 SCF Done:  E(RHF) =  -283.388132419     A.U. after    8 cycles

 The electronic state is 1-A.
 Alpha  occ. eigenvalues --  -15.59709 -15.56790 -15.56515 -11.24346 -11.23579
 Alpha  occ. eigenvalues --  -11.22818  -1.32496  -1.16905  -1.03971  -0.94680
 Alpha  occ. eigenvalues --   -0.89962  -0.78997  -0.68585  -0.66230  -0.65199
 Alpha  occ. eigenvalues --   -0.60666  -0.58982  -0.56207  -0.54923  -0.53218
 Alpha  occ. eigenvalues --   -0.50873  -0.50455  -0.41673  -0.37822  -0.36327
 Alpha virt. eigenvalues --    0.03740   0.04154   0.04531   0.04996   0.06386
 Alpha virt. eigenvalues --    0.06840   0.07040   0.07594   0.07962   0.09557
 Alpha virt. eigenvalues --    0.10831   0.11077   0.11820   0.13031   0.14376

 Mulliken charges:
               1
     1  C   -0.514640
     2  N    0.054281
     3  C   -0.520849
     4  N    0.022125
     5  C   -0.486947
     6  N   -0.690935
     7  H    0.162391
     8  H    0.169989
     9  H    0.180062
    10  H    0.175118
    11  H    0.171106
    12  H    0.165566
    13  H    0.136776
    14  H    0.197292
    15  H    0.170081
    16  H    0.322760
    17  H    0.285822
 Sum of Mulliken charges =  -0.00000

 Dipole moment (field-independent basis, Debye):
    X=             -1.2388    Y=              0.5076    Z=              0.8062  Tot=              1.5628
 Quadrupole moment (field-independent basis, Debye-Ang):
   XX=            -35.0455   YY=            -38.7700   ZZ=            -40.6719
   XY=              0.9138   XZ=             -1.3653   YZ=              0.9218

 Normal termination of Gaussian 09 at Fri Aug 26 12:53:19 2022.
