 Gaussian 09, Revision E.01,
 Gaussian 09:  ES64L-G09RevE.01 30-Nov-2015

 -----
 #P G4
 -----

 --------
 Frag_543
 --------
 Symbolic Z-matrix:
 Charge =  0 Multiplicity = 1

 SCF Done:  E(RB3LYP) =  -342.377282873     A.U. after   15 cycles
 SCF Done:  E(RB3LYP) =  -342.396283250     A.U. after   13 cycles
 SCF Done:  E(RB3LYP) =  -342.399745416     A.U. after   13 cycles
 SCF Done:  E(RB3LYP) =  -342.399814024     A.U. after   13 cycles
 SCF Done:  E(RB3LYP) =  -342.401716140     A.U. after   13 cycles
 SCF Done:  E(RB3LYP) =  -342.402441999     A.U. after   12 cycles
 SCF Done:  E(RB3LYP) =  -342.403111316     A.U. after   13 cycles
 SCF Done:  E(RB3LYP) =  -342.403475230     A.U. after   13 cycles
 SCF Done:  E(RB3LYP) =  -342.404451301     A.U. after   14 cycles
 SCF Done:  E(RB3LYP) =  -342.399945886     A.U. after   14 cycles
 SCF Done:  E(RB3LYP) =  -342.410042780     A.U. after   10 cycles
 SCF Done:  E(RB3LYP) =  -342.410045306     A.U. after    9 cycles
 SCF Done:  E(RB3LYP) =  -342.410045406     A.U. after    7 cycles
 Optimization completed.
    -- Stationary point found.
 Normal termination of Gaussian 09 at Thu Aug 25 07:28:07 2022.

 ----------------------------------------------------------
 #P Geom=AllCheck Guess=TCheck SCRF=Check B3LYP/GTBas3 Freq
 ----------------------------------------------------------

 Structure from the checkpoint file:  "G4.Frag_543.chk"
 --------
 Frag_543
 --------
 Charge =  0 Multiplicity = 1

 SCF Done:  E(RB3LYP) =  -342.410045406     A.U. after    1 cycles

  Exact polarizability:  51.022  -4.380  51.974   0.002  -0.000  22.064
 Approx polarizability:  73.662  -7.956  88.303   0.005  -0.001  33.443

                      1                      2                      3
                      A                      A                      A
 Frequencies --     81.0766               286.8033               329.6236
 Red. masses --      6.4514                 4.2307                 1.1137
 Frc consts  --      0.0250                 0.2050                 0.0713
 IR Inten    --      7.7219                 9.3775               105.8307

                      4                      5                      6
                      A                      A                      A
 Frequencies --    412.0138               432.6253               540.3172
 Red. masses --      3.4867                 3.5921                 7.1368
 Frc consts  --      0.3487                 0.3961                 1.2276
 IR Inten    --      6.9060                33.6748                 5.7826

                      7                      8                      9
                      A                      A                      A
 Frequencies --    592.3616               608.5229               736.9746
 Red. masses --      3.7149                 1.1135                 1.3091
 Frc consts  --      0.7680                 0.2429                 0.4189
 IR Inten    --     12.2267                62.6326                 0.7014

                     10                     11                     12
                      A                      A                      A
 Frequencies --    804.9089               805.5434               890.8806
 Red. masses --      4.0800                 5.8860                 1.3871
 Frc consts  --      1.5574                 2.2503                 0.6487
 IR Inten    --     16.2944                 8.8648                39.4913

                     13                     14                     15
                      A                      A                      A
 Frequencies --    963.9539              1155.3040              1179.9791
 Red. masses --      1.8793                 1.7351                 2.7292
 Frc consts  --      1.0288                 1.3645                 2.2389
 IR Inten    --     15.1542               122.8764                51.0181

                     16                     17                     18
                      A                      A                      A
 Frequencies --   1362.3349              1390.3273              1429.6805
 Red. masses --      1.3868                 2.7222                 1.2674
 Frc consts  --      1.5165                 3.1003                 1.5263
 IR Inten    --    316.6720               186.7804                72.8354

                     19                     20                     21
                      A                      A                      A
 Frequencies --   1719.2506              1864.8664              3169.0966
 Red. masses --      6.5430                10.2039                 1.0638
 Frc consts  --     11.3947                20.9079                 6.2950
 IR Inten    --     70.2583               191.2332                 6.8118

                     22                     23                     24
                      A                      A                      A
 Frequencies --   3276.7206              3742.2267              3820.5278
 Red. masses --      1.1130                 1.0648                 1.0660
 Frc consts  --      7.0408                 8.7857                 9.1676
 IR Inten    --      0.7014                97.7979                39.6171

 - Thermochemistry -
 -------------------
 Temperature   298.150 Kelvin.  Pressure   1.00000 Atm.
 Atom     1 has atomic number  6 and mass  12.00000

 Molecular mass:    88.01604 amu.
 Principal axes and moments of inertia in atomic units:
                           1         2         3
     Eigenvalues --   324.71972 487.74865 812.46836
           X            0.99698  -0.07763   0.00001
           Y            0.07763   0.99698   0.00000
           Z           -0.00001  -0.00000   1.00000
 This molecule is an asymmetric top.
 Rotational symmetry number  1.
 Rotational temperatures (Kelvin)      0.26673     0.17758     0.10661
 Rotational constants (GHZ):           5.55784     3.70015     2.22131
 Zero-point vibrational energy     188985.6 (Joules/Mol)
                                   45.16864 (Kcal/Mol)
 Warning -- explicit consideration of   8 degrees of freedom as
           vibrations may cause significant error
 Vibrational temperatures:    116.65   412.65   474.25   592.80   622.45
          (Kelvin)            777.39   852.28   875.53  1060.34  1158.08
                             1159.00  1281.78  1386.91  1662.22  1697.72
                             1960.09  2000.37  2056.99  2473.62  2683.12
                             4559.62  4714.46  5384.22  5496.88

 Zero-point correction=                           0.071981 (Hartree/Particle)
 Thermal correction to Energy=                    0.077913
 Thermal correction to Enthalpy=                  0.078858
 Thermal correction to Gibbs Free Energy=         0.042449
 Sum of electronic and zero-point Energies=           -342.338065
 Sum of electronic and thermal Energies=              -342.332132
 Sum of electronic and thermal Enthalpies=            -342.331188
 Sum of electronic and thermal Free Energies=         -342.367596

                     E (Thermal)             CV                S
                      KCal/Mol        Cal/Mol-Kelvin    Cal/Mol-Kelvin
 Total                   48.891             21.113             76.627
 Electronic               0.000              0.000              0.000
 Translational            0.889              2.981             39.338
 Rotational               0.889              2.981             26.356
 Vibrational             47.114             15.152             10.933
 Vibration     1          0.600              1.962              3.865
 Vibration     2          0.684              1.698              1.493
 Vibration     3          0.712              1.616              1.262
 Vibration     4          0.776              1.444              0.920
 Vibration     5          0.794              1.399              0.850
 Vibration     6          0.895              1.161              0.565
 Vibration     7          0.950              1.048              0.463
 Vibration     8          0.967              1.014              0.435

 Optimization completed.
    -- Stationary point found.
 Normal termination of Gaussian 09 at Thu Aug 25 07:29:46 2022.

 -----------------------------------------------------------------
 #P Geom=AllCheck Guess=TCheck SCRF=Check CCSD(T,E4T,FrzG4)/GTBas1
 -----------------------------------------------------------------

 Structure from the checkpoint file:  "G4.Frag_543.chk"
 --------
 Frag_543
 --------
 Charge =  0 Multiplicity = 1

 SCF Done:  E(RHF) =  -340.499903307     A.U. after   13 cycles
 E2 =    -0.9086432045D+00 EUMP2 =    -0.34140854651155D+03
 CCSD(T)
 CCSD(T)= -0.34146537382D+03
 Normal termination of Gaussian 09 at Thu Aug 25 07:34:33 2022.

 ---------------------------------------------------------
 #P Geom=AllCheck Guess=TCheck SCRF=Check MP4=FrzG4/GTBas2
 ---------------------------------------------------------

 Structure from the checkpoint file:  "G4.Frag_543.chk"
 --------
 Frag_543
 --------
 Charge =  0 Multiplicity = 1

 SCF Done:  E(RHF) =  -340.511373349     A.U. after   12 cycles
 E2 =    -0.9225008011D+00 EUMP2 =    -0.34143387414988D+03
 Normal termination of Gaussian 09 at Thu Aug 25 07:40:07 2022.

 ---------------------------------------------------------
 #P Geom=AllCheck Guess=TCheck SCRF=Check MP4=FrzG4/GTBas3
 ---------------------------------------------------------

 Structure from the checkpoint file:  "G4.Frag_543.chk"
 --------
 Frag_543
 --------
 Charge =  0 Multiplicity = 1

 SCF Done:  E(RHF) =  -340.543576653     A.U. after   12 cycles
 E2 =    -0.1109876700D+01 EUMP2 =    -0.34165345335295D+03
 Normal termination of Gaussian 09 at Thu Aug 25 09:08:34 2022.

 -----------------------------------------------------------
 #P Geom=AllCheck Guess=TCheck SCRF=Check MP2=Full/GTLargeXP
 -----------------------------------------------------------

 Structure from the checkpoint file:  "G4.Frag_543.chk"
 --------
 Frag_543
 --------
 Charge =  0 Multiplicity = 1

 SCF Done:  E(RHF) =  -340.638283924     A.U. after   12 cycles
 E2 =    -0.1454679890D+01 EUMP2 =    -0.34209296381355D+03
 Normal termination of Gaussian 09 at Thu Aug 25 09:12:22 2022.
 SCF Done:  E(RHF) =  -340.666166828     A.U. after   10 cycles
 Normal termination of Gaussian 09 at Thu Aug 25 09:16:42 2022.

                         Standard orientation:
 ---------------------------------------------------------------------
 Center     Atomic      Atomic             Coordinates (Angstroms)
 Number     Number       Type             X           Y           Z
 ---------------------------------------------------------------------
      1          6           0        1.500934   -1.124264    0.000155
      2          6           0        0.714279   -0.051597   -0.000025
      3          8           0        1.121242    1.256282   -0.000200
      4          6           0       -0.786822   -0.174183   -0.000012
      5          8           0       -1.361998   -1.227810   -0.000156
      6          8           0       -1.444628    1.000329    0.000169
      7          1           0        1.042845   -2.103111    0.000117
      8          1           0        2.582967   -1.054015    0.000258
      9          1           0        2.083096    1.306951    0.000087
     10          1           0       -0.796180    1.720029    0.000326
 ---------------------------------------------------------------------

 SCF Done:  E(RHF) =  -340.672016308     A.U. after    8 cycles

 The electronic state is 1-A.
 Alpha  occ. eigenvalues --  -20.62705 -20.61060 -20.54535 -11.39439 -11.33288
 Alpha  occ. eigenvalues --  -11.25522  -1.47310  -1.43487  -1.36868  -1.07171
 Alpha  occ. eigenvalues --   -0.91446  -0.82625  -0.75898  -0.72349  -0.65511
 Alpha  occ. eigenvalues --   -0.65227  -0.63435  -0.60141  -0.59596  -0.56335
 Alpha  occ. eigenvalues --   -0.48850  -0.46299  -0.38328
 Alpha virt. eigenvalues --    0.02582   0.04063   0.05429   0.05477   0.07042
 Alpha virt. eigenvalues --    0.07378   0.07444   0.08291   0.09122   0.09953
 Alpha virt. eigenvalues --    0.10085   0.12720   0.13918   0.14552   0.15312

 Mulliken charges:
               1
     1  C   -0.385932
     2  C    0.203595
     3  O   -0.615518
     4  C    0.626617
     5  O   -0.556987
     6  O   -0.516698
     7  H    0.244899
     8  H    0.177008
     9  H    0.405497
    10  H    0.417519
 Sum of Mulliken charges =  -0.00000

 Dipole moment (field-independent basis, Debye):
    X=              5.0642    Y=              2.0578    Z=              0.0010  Tot=              5.4663
 Quadrupole moment (field-independent basis, Debye-Ang):
   XX=            -33.3369   YY=            -33.9147   ZZ=            -35.7373
   XY=             -1.8229   XZ=              0.0009   YZ=              0.0009

 Normal termination of Gaussian 09 at Thu Aug 25 11:06:49 2022.
