 Gaussian 09, Revision E.01,
 Gaussian 09:  ES64L-G09RevE.01 30-Nov-2015

 -----
 #P G4
 -----

 ---------
 Frag_1022
 ---------
 Symbolic Z-matrix:
 Charge =  0 Multiplicity = 1

 SCF Done:  E(RB3LYP) =  -379.074369502     A.U. after   14 cycles
 SCF Done:  E(RB3LYP) =  -379.089258998     A.U. after   12 cycles
 SCF Done:  E(RB3LYP) =  -379.090741220     A.U. after   11 cycles
 SCF Done:  E(RB3LYP) =  -379.091459263     A.U. after   11 cycles
 SCF Done:  E(RB3LYP) =  -379.092496407     A.U. after   11 cycles
 SCF Done:  E(RB3LYP) =  -379.092660374     A.U. after   12 cycles
 SCF Done:  E(RB3LYP) =  -379.093679381     A.U. after   12 cycles
 SCF Done:  E(RB3LYP) =  -379.094063131     A.U. after   11 cycles
 SCF Done:  E(RB3LYP) =  -379.094425330     A.U. after   11 cycles
 SCF Done:  E(RB3LYP) =  -379.094599190     A.U. after   10 cycles
 SCF Done:  E(RB3LYP) =  -379.094710424     A.U. after    8 cycles
 SCF Done:  E(RB3LYP) =  -379.094712345     A.U. after    8 cycles
 SCF Done:  E(RB3LYP) =  -379.094713361     A.U. after    8 cycles
 Optimization completed.
    -- Stationary point found.
 Normal termination of Gaussian 09 at Mon Aug 22 22:57:41 2022.

 ----------------------------------------------------------
 #P Geom=AllCheck Guess=TCheck SCRF=Check B3LYP/GTBas3 Freq
 ----------------------------------------------------------

 Structure from the checkpoint file:  "G4.Frag_1022.chk"
 ---------
 Frag_1022
 ---------
 Charge =  0 Multiplicity = 1

 SCF Done:  E(RB3LYP) =  -379.094713361     A.U. after    1 cycles

  Exact polarizability:  59.435   4.264  63.395  -0.750   0.012  42.687
 Approx polarizability:  79.845  10.387 101.356  -0.738  -0.717  62.231

                      1                      2                      3
                      A                      A                      A
 Frequencies --     79.1013               166.2106               250.7518
 Red. masses --      4.1668                 1.0646                 2.7863
 Frc consts  --      0.0154                 0.0173                 0.1032
 IR Inten    --      2.8105                21.9359                 1.9105

                      4                      5                      6
                      A                      A                      A
 Frequencies --    290.8014               334.3517               379.0279
 Red. masses --      4.5707                 1.2415                 2.4542
 Frc consts  --      0.2277                 0.0818                 0.2077
 IR Inten    --     10.1301                59.9522                 3.3575

                      7                      8                      9
                      A                      A                      A
 Frequencies --    404.1302               418.0753               446.7870
 Red. masses --      1.7817                 1.2893                 2.1849
 Frc consts  --      0.1714                 0.1328                 0.2570
 IR Inten    --     46.1112                41.1655                23.9901

                     10                     11                     12
                      A                      A                      A
 Frequencies --    537.7318               548.3970               569.1168
 Red. masses --      1.9166                 3.6424                 2.9747
 Frc consts  --      0.3265                 0.6454                 0.5677
 IR Inten    --     50.6616                 3.2645                81.0501

                     13                     14                     15
                      A                      A                      A
 Frequencies --    656.9008               721.6783               752.4829
 Red. masses --      2.0150                 1.2807                 4.3140
 Frc consts  --      0.5123                 0.3930                 1.4392
 IR Inten    --    101.0608                39.7546                 6.7165

                     16                     17                     18
                      A                      A                      A
 Frequencies --    777.1297               846.8562               918.4352
 Red. masses --      1.5280                 1.4489                 1.5404
 Frc consts  --      0.5437                 0.6122                 0.7656
 IR Inten    --     80.3524                57.1525               183.6876

                     19                     20                     21
                      A                      A                      A
 Frequencies --    972.6291               996.0982              1023.0399
 Red. masses --      2.3839                 1.6984                 2.6770
 Frc consts  --      1.3287                 0.9929                 1.6507
 IR Inten    --     37.9890                45.4307               158.4183

                     22                     23                     24
                      A                      A                      A
 Frequencies --   1111.3667              1158.8332              1293.7949
 Red. masses --      1.8602                 1.7295                 1.6712
 Frc consts  --      1.3537                 1.3684                 1.6482
 IR Inten    --     57.7305               144.9538                22.0039

                     25                     26                     27
                      A                      A                      A
 Frequencies --   1334.1279              1373.0965              1405.5425
 Red. masses --      1.8336                 2.0442                 1.7696
 Frc consts  --      1.9229                 2.2708                 2.0598
 IR Inten    --     27.2362                39.0191               123.5304

                     28                     29                     30
                      A                      A                      A
 Frequencies --   1448.8924              1629.9197              1646.3954
 Red. masses --      1.2716                 1.1419                 1.1218
 Frc consts  --      1.5728                 1.7874                 1.7915
 IR Inten    --     33.7201                47.7500                44.8766

                     31                     32                     33
                      A                      A                      A
 Frequencies --   1721.6883              3158.2151              3273.3989
 Red. masses --      5.6451                 1.0654                 1.1090
 Frc consts  --      9.8590                 6.2608                 7.0015
 IR Inten    --     67.8927                12.5014                 2.5706

                     34                     35                     36
                      A                      A                      A
 Frequencies --   3506.2559              3539.9206              3587.5326
 Red. masses --      1.0496                 1.0470                 1.0917
 Frc consts  --      7.6028                 7.7301                 8.2782
 IR Inten    --      5.3998                13.6354                 5.8504

                     37                     38                     39
                      A                      A                      A
 Frequencies --   3642.7521              3779.8320              3811.9503
 Red. masses --      1.0965                 1.0645                 1.0655
 Frc consts  --      8.5729                 8.9603                 9.1223
 IR Inten    --     16.4381                39.9417                37.9891

 - Thermochemistry -
 -------------------
 Temperature   298.150 Kelvin.  Pressure   1.00000 Atm.
 Atom     1 has atomic number  6 and mass  12.00000

 Molecular mass:   104.05858 amu.
 Principal axes and moments of inertia in atomic units:
                           1         2         3
     Eigenvalues --   516.05966 724.45556 900.00007
           X            0.99989   0.00329  -0.01470
           Y           -0.00319   0.99997   0.00684
           Z            0.01472  -0.00679   0.99987
 This molecule is an asymmetric top.
 Rotational symmetry number  1.
 Warning -- assumption of classical behavior for rotation
           may cause significant error
 Rotational temperatures (Kelvin)      0.16784     0.11956     0.09624
 Rotational constants (GHZ):           3.49716     2.49117     2.00527
 Zero-point vibrational energy     326061.6 (Joules/Mol)
                                   77.93060 (Kcal/Mol)
 Warning -- explicit consideration of  12 degrees of freedom as
           vibrations may cause significant error
 Vibrational temperatures:    113.81   239.14   360.78   418.40   481.06
          (Kelvin)            545.34   581.45   601.52   642.83   773.68
                              789.02   818.83   945.13  1038.33  1082.65
                             1118.11  1218.44  1321.42  1399.39  1433.16
                             1471.92  1599.01  1667.30  1861.48  1919.51
                             1975.58  2022.26  2084.63  2345.09  2368.79
                             2477.12  4543.96  4709.68  5044.71  5093.15
                             5161.65  5241.10  5438.33  5484.54

 Zero-point correction=                           0.124190 (Hartree/Particle)
 Thermal correction to Energy=                    0.132207
 Thermal correction to Enthalpy=                  0.133151
 Thermal correction to Gibbs Free Energy=         0.092657
 Sum of electronic and zero-point Energies=           -378.970523
 Sum of electronic and thermal Energies=              -378.962507
 Sum of electronic and thermal Enthalpies=            -378.961562
 Sum of electronic and thermal Free Energies=         -379.002056

                     E (Thermal)             CV                S
                      KCal/Mol        Cal/Mol-Kelvin    Cal/Mol-Kelvin
 Total                   82.961             30.591             85.227
 Electronic               0.000              0.000              0.000
 Translational            0.889              2.981             39.837
 Rotational               0.889              2.981             27.311
 Vibrational             81.184             24.629             18.079
 Vibration     1          0.600              1.963              3.913
 Vibration     2          0.624              1.884              2.478
 Vibration     3          0.663              1.762              1.725
 Vibration     4          0.687              1.691              1.469
 Vibration     5          0.716              1.607              1.239
 Vibration     6          0.749              1.515              1.043
 Vibration     7          0.769              1.461              0.948
 Vibration     8          0.781              1.431              0.899
 Vibration     9          0.806              1.368              0.806
 Vibration    10          0.893              1.167              0.570
 Vibration    11          0.904              1.143              0.548
 Vibration    12          0.925              1.098              0.506

 Normal termination of Gaussian 09 at Mon Aug 22 23:01:31 2022.

 -----------------------------------------------------------------
 #P Geom=AllCheck Guess=TCheck SCRF=Check CCSD(T,E4T,FrzG4)/GTBas1
 -----------------------------------------------------------------

 Structure from the checkpoint file:  "G4.Frag_1022.chk"
 ---------
 Frag_1022
 ---------
 Charge =  0 Multiplicity = 1

 SCF Done:  E(RHF) =  -376.848479720     A.U. after   12 cycles
 E2 =    -0.1071424053D+01 EUMP2 =    -0.37791990377270D+03
 CCSD(T)
 CCSD(T)= -0.37800020439D+03
 .9677681\CCSD(T)=-378.0002044\RMSD=8.965e-09\PG=C01 [X(C3H8N2O2)]\\@
 Normal termination of Gaussian 09 at Mon Aug 22 23:15:20 2022.

 ---------------------------------------------------------
 #P Geom=AllCheck Guess=TCheck SCRF=Check MP4=FrzG4/GTBas2
 ---------------------------------------------------------

 Structure from the checkpoint file:  "G4.Frag_1022.chk"
 ---------
 Frag_1022
 ---------
 Charge =  0 Multiplicity = 1

 SCF Done:  E(RHF) =  -376.864371824     A.U. after   12 cycles
 E2 =    -0.1091542196D+01 EUMP2 =    -0.37795591402047D+03
 Normal termination of Gaussian 09 at Mon Aug 22 23:33:21 2022.

 ---------------------------------------------------------
 #P Geom=AllCheck Guess=TCheck SCRF=Check MP4=FrzG4/GTBas3
 ---------------------------------------------------------

 Structure from the checkpoint file:  "G4.Frag_1022.chk"
 ---------
 Frag_1022
 ---------
 Charge =  0 Multiplicity = 1

 SCF Done:  E(RHF) =  -376.904935060     A.U. after   11 cycles
 E2 =    -0.1314958586D+01 EUMP2 =    -0.37821989364658D+03
 Normal termination of Gaussian 09 at Tue Aug 23 03:31:03 2022.

 -----------------------------------------------------------
 #P Geom=AllCheck Guess=TCheck SCRF=Check MP2=Full/GTLargeXP
 -----------------------------------------------------------

 Structure from the checkpoint file:  "G4.Frag_1022.chk"
 ---------
 Frag_1022
 ---------
 Charge =  0 Multiplicity = 1

 SCF Done:  E(RHF) =  -377.010131805     A.U. after   12 cycles
 E2 =    -0.1717219086D+01 EUMP2 =    -0.37872735089136D+03
 Normal termination of Gaussian 09 at Tue Aug 23 03:41:26 2022.
 SCF Done:  E(RHF) =  -377.039956912     A.U. after    8 cycles
 Normal termination of Gaussian 09 at Tue Aug 23 03:49:28 2022.

                         Standard orientation:
 ---------------------------------------------------------------------
 Center     Atomic      Atomic             Coordinates (Angstroms)
 Number     Number       Type             X           Y           Z
 ---------------------------------------------------------------------
      1          6           0        1.621394    1.248233    0.020191
      2          6           0        0.939262    0.100243   -0.004444
      3          7           0        1.504852   -1.177250    0.087275
      4          6           0       -0.590602    0.037768   -0.014343
      5          7           0       -1.176772   -0.394751    1.243810
      6          8           0       -1.019947   -0.941492   -0.954529
      7          8           0       -1.087505    1.297951   -0.338749
      8          1           0        2.706150    1.259348    0.055259
      9          1           0        1.103708    2.195292    0.023019
     10          1           0        1.010534   -1.855795   -0.478110
     11          1           0        2.500011   -1.198212   -0.086491
     12          1           0       -0.998495   -1.386330    1.370468
     13          1           0       -0.703403    0.088493    2.001943
     14          1           0       -0.868739   -0.551424   -1.823210
     15          1           0       -2.007042    1.283496   -0.042666
 ---------------------------------------------------------------------

 SCF Done:  E(RHF) =  -377.046500919     A.U. after    8 cycles

 The electronic state is 1-A.
 Alpha  occ. eigenvalues --  -20.57258 -20.57011 -15.56095 -15.55423 -11.38083
 Alpha  occ. eigenvalues --  -11.27323 -11.20508  -1.43554  -1.34800  -1.21858
 Alpha  occ. eigenvalues --   -1.17589  -1.01011  -0.88933  -0.77591  -0.75339
 Alpha  occ. eigenvalues --   -0.71010  -0.68482  -0.64265  -0.61823  -0.61121
 Alpha  occ. eigenvalues --   -0.60115  -0.55777  -0.53402  -0.51722  -0.48734
 Alpha  occ. eigenvalues --   -0.47638  -0.42222  -0.32648
 Alpha virt. eigenvalues --    0.03587   0.04578   0.04715   0.05367   0.06677
 Alpha virt. eigenvalues --    0.07047   0.07615   0.07901   0.08319   0.09799
 Alpha virt. eigenvalues --    0.11529   0.11845   0.12697   0.13137   0.13552

 Mulliken charges:
               1
     1  C   -0.490429
     2  C    0.155658
     3  N   -0.747822
     4  C    0.611322
     5  N   -0.720920
     6  O   -0.608870
     7  O   -0.629383
     8  H    0.162926
     9  H    0.221442
    10  H    0.332030
    11  H    0.307735
    12  H    0.311069
    13  H    0.308396
    14  H    0.387910
    15  H    0.398937
 Sum of Mulliken charges =  -0.00000

 Dipole moment (field-independent basis, Debye):
    X=              1.0796    Y=             -0.6930    Z=             -0.4260  Tot=              1.3518
 Quadrupole moment (field-independent basis, Debye-Ang):
   XX=            -40.6600   YY=            -43.1862   ZZ=            -40.1596
   XY=             -3.6123   XZ=             -0.7635   YZ=              1.8694

 Normal termination of Gaussian 09 at Tue Aug 23 07:51:54 2022.
