 Gaussian 09, Revision E.01,
 Gaussian 09:  ES64L-G09RevE.01 30-Nov-2015

 -----
 #P G4
 -----

 ---------
 Frag_1084
 ---------
 Symbolic Z-matrix:
 Charge =  0 Multiplicity = 1

 SCF Done:  E(RB3LYP) =  -304.988112719     A.U. after   13 cycles
 SCF Done:  E(RB3LYP) =  -304.997927919     A.U. after   12 cycles
 SCF Done:  E(RB3LYP) =  -304.999398421     A.U. after   11 cycles
 SCF Done:  E(RB3LYP) =  -304.999736152     A.U. after   11 cycles
 SCF Done:  E(RB3LYP) =  -305.000118280     A.U. after   12 cycles
 SCF Done:  E(RB3LYP) =  -304.981204017     A.U. after   15 cycles
 SCF Done:  E(RB3LYP) =  -305.001085745     A.U. after   13 cycles
 SCF Done:  E(RB3LYP) =  -305.001999382     A.U. after   13 cycles
 SCF Done:  E(RB3LYP) =  -305.003743440     A.U. after   12 cycles
 SCF Done:  E(RB3LYP) =  -305.007080358     A.U. after   11 cycles
 SCF Done:  E(RB3LYP) =  -305.011080145     A.U. after    7 cycles
 SCF Done:  E(RB3LYP) =  -305.011080490     A.U. after    7 cycles
 SCF Done:  E(RB3LYP) =  -305.011080647     A.U. after    7 cycles
 Optimization completed.
    -- Stationary point found.
 Normal termination of Gaussian 09 at Thu Aug 25 03:06:50 2022.

 ----------------------------------------------------------
 #P Geom=AllCheck Guess=TCheck SCRF=Check B3LYP/GTBas3 Freq
 ----------------------------------------------------------

 Structure from the checkpoint file:  "G4.Frag_1084.chk"
 ---------
 Frag_1084
 ---------
 Charge =  0 Multiplicity = 1

 SCF Done:  E(RB3LYP) =  -305.011080647     A.U. after    1 cycles

  Exact polarizability:  58.932  -0.544  52.188  -0.455  -1.165  51.701
 Approx polarizability:  76.754   0.674  73.437  -2.244  -3.443  75.673

                      1                      2                      3
                      A                      A                      A
 Frequencies --    109.5143               211.8346               236.5897
 Red. masses --      3.1094                 1.0741                 1.0493
 Frc consts  --      0.0220                 0.0284                 0.0346
 IR Inten    --      0.1765                 0.7331                 9.7317

                      4                      5                      6
                      A                      A                      A
 Frequencies --    253.8345               279.2306               300.6801
 Red. masses --      1.5341                 1.7413                 2.7651
 Frc consts  --      0.0582                 0.0800                 0.1473
 IR Inten    --     57.1140                24.6480                 2.0288

                      7                      8                      9
                      A                      A                      A
 Frequencies --    346.4635               392.3419               472.0571
 Red. masses --      2.1550                 1.2202                 2.9264
 Frc consts  --      0.1524                 0.1107                 0.3842
 IR Inten    --      5.5142                28.1838                 6.1029

                     10                     11                     12
                      A                      A                      A
 Frequencies --    527.4177               588.1661               761.8877
 Red. masses --      3.3103                 2.3692                 3.5711
 Frc consts  --      0.5425                 0.4829                 1.2213
 IR Inten    --     39.8656                 1.7267                 7.7001

                     13                     14                     15
                      A                      A                      A
 Frequencies --    857.0057               881.0408               926.3262
 Red. masses --      3.8331                 3.0134                 1.4026
 Frc consts  --      1.6587                 1.3781                 0.7091
 IR Inten    --     13.9091               135.1712                 3.5406

                     16                     17                     18
                      A                      A                      A
 Frequencies --    934.8747               952.6072              1122.3711
 Red. masses --      1.7573                 1.4586                 1.5655
 Frc consts  --      0.9049                 0.7799                 1.1619
 IR Inten    --      2.7831                 3.3455                39.6101

                     19                     20                     21
                      A                      A                      A
 Frequencies --   1142.2294              1195.4632              1249.7705
 Red. masses --      2.1189                 1.9650                 2.8899
 Frc consts  --      1.6288                 1.6546                 2.6595
 IR Inten    --      9.5977                 1.9454                 4.4247

                     22                     23                     24
                      A                      A                      A
 Frequencies --   1295.3066              1347.4835              1359.1091
 Red. masses --      1.1380                 1.3630                 1.2529
 Frc consts  --      1.1249                 1.4582                 1.3635
 IR Inten    --     44.1159                 4.6497                 5.9619

                     25                     26                     27
                      A                      A                      A
 Frequencies --   1384.2495              1397.6148              1409.3995
 Red. masses --      1.2481                 1.3477                 1.2486
 Frc consts  --      1.4090                 1.5510                 1.4613
 IR Inten    --      8.6517                19.4157                 6.8661

                     28                     29                     30
                      A                      A                      A
 Frequencies --   1480.1656              1495.0122              1498.8969
 Red. masses --      1.0466                 1.0473                 1.0460
 Frc consts  --      1.3510                 1.3791                 1.3846
 IR Inten    --      1.5570                 0.2013                 5.0727

                     31                     32                     33
                      A                      A                      A
 Frequencies --   1515.9197              1679.9598              3040.0057
 Red. masses --      1.0543                 1.0777                 1.0356
 Frc consts  --      1.4274                 1.7921                 5.6387
 IR Inten    --      4.5560                17.8307                17.2798

                     34                     35                     36
                      A                      A                      A
 Frequencies --   3044.7014              3056.9765              3106.4588
 Red. masses --      1.0355                 1.0841                 1.1007
 Frc consts  --      5.6559                 5.9692                 6.2580
 IR Inten    --     17.2109                14.4052                16.2527

                     37                     38                     39
                      A                      A                      A
 Frequencies --   3114.1938              3124.8651              3128.7166
 Red. masses --      1.1013                 1.1015                 1.1011
 Frc consts  --      6.2930                 6.3374                 6.3506
 IR Inten    --     32.0278                15.4579                27.8405

                     40                     41                     42
                      A                      A                      A
 Frequencies --   3415.0061              3545.0498              3804.5669
 Red. masses --      1.0541                 1.0862                 1.0681
 Frc consts  --      7.2428                 8.0426                 9.1090
 IR Inten    --      4.7021                 0.8563                34.9372

 - Thermochemistry -
 -------------------
 Temperature   298.150 Kelvin.  Pressure   1.00000 Atm.
 Atom     1 has atomic number  6 and mass  12.00000

 Molecular mass:    90.07931 amu.
 Principal axes and moments of inertia in atomic units:
                           1         2         3
     Eigenvalues --   388.09918 638.45373 736.38590
           X            0.99977  -0.01839   0.01110
           Y            0.01763   0.99774   0.06480
           Z           -0.01227  -0.06459   0.99784
 This molecule is an asymmetric top.
 Rotational symmetry number  1.
 Rotational temperatures (Kelvin)      0.22317     0.13566     0.11762
 Rotational constants (GHZ):           4.65021     2.82674     2.45081
 Zero-point vibrational energy     370754.8 (Joules/Mol)
                                   88.61253 (Kcal/Mol)
 Warning -- explicit consideration of  11 degrees of freedom as
           vibrations may cause significant error
 Vibrational temperatures:    157.57   304.78   340.40   365.21   401.75
          (Kelvin)            432.61   498.48   564.49   679.18   758.84
                              846.24  1096.19  1233.04  1267.62  1332.78
                             1345.07  1370.59  1614.84  1643.41  1720.00
                             1798.14  1863.65  1938.73  1955.45  1991.62
                             2010.85  2027.81  2129.63  2150.99  2156.58
                             2181.07  2417.08  4373.88  4380.64  4398.30
                             4469.50  4480.62  4495.98  4501.52  4913.43
                             5100.53  5473.92

 Zero-point correction=                           0.141213 (Hartree/Particle)
 Thermal correction to Energy=                    0.148957
 Thermal correction to Enthalpy=                  0.149901
 Thermal correction to Gibbs Free Energy=         0.110394
 Sum of electronic and zero-point Energies=           -304.869868
 Sum of electronic and thermal Energies=              -304.862123
 Sum of electronic and thermal Enthalpies=            -304.861179
 Sum of electronic and thermal Free Energies=         -304.900686

                     E (Thermal)             CV                S
                      KCal/Mol        Cal/Mol-Kelvin    Cal/Mol-Kelvin
 Total                   93.472             28.385             83.149
 Electronic               0.000              0.000              0.000
 Translational            0.889              2.981             39.407
 Rotational               0.889              2.981             26.703
 Vibrational             91.695             22.424             17.039
 Vibration     1          0.606              1.942              3.278
 Vibration     2          0.643              1.823              2.028
 Vibration     3          0.655              1.785              1.828
 Vibration     4          0.665              1.756              1.704
 Vibration     5          0.680              1.712              1.538
 Vibration     6          0.693              1.672              1.413
 Vibration     7          0.724              1.582              1.182
 Vibration     8          0.760              1.487              0.991
 Vibration     9          0.829              1.312              0.732
 Vibration    10          0.882              1.189              0.593
 Vibration    11          0.945              1.057              0.470

 Normal termination of Gaussian 09 at Thu Aug 25 03:10:00 2022.

 -----------------------------------------------------------------
 #P Geom=AllCheck Guess=TCheck SCRF=Check CCSD(T,E4T,FrzG4)/GTBas1
 -----------------------------------------------------------------

 Structure from the checkpoint file:  "G4.Frag_1084.chk"
 ---------
 Frag_1084
 ---------
 Charge =  0 Multiplicity = 1

 SCF Done:  E(RHF) =  -303.084230967     A.U. after   13 cycles
 E2 =    -0.9098372500D+00 EUMP2 =    -0.30399406821743D+03
 CCSD(T)
 CCSD(T)= -0.30407952593D+03
 -304.0785369\MP4SDQ=-304.0509351\CCSD=-304.0518745\CCSD(T)=-304.079525
 Normal termination of Gaussian 09 at Thu Aug 25 03:16:49 2022.

 ---------------------------------------------------------
 #P Geom=AllCheck Guess=TCheck SCRF=Check MP4=FrzG4/GTBas2
 ---------------------------------------------------------

 Structure from the checkpoint file:  "G4.Frag_1084.chk"
 ---------
 Frag_1084
 ---------
 Charge =  0 Multiplicity = 1

 SCF Done:  E(RHF) =  -303.093555115     A.U. after   12 cycles
 E2 =    -0.9249699960D+00 EUMP2 =    -0.30401852511126D+03
 Normal termination of Gaussian 09 at Thu Aug 25 03:26:33 2022.

 ---------------------------------------------------------
 #P Geom=AllCheck Guess=TCheck SCRF=Check MP4=FrzG4/GTBas3
 ---------------------------------------------------------

 Structure from the checkpoint file:  "G4.Frag_1084.chk"
 ---------
 Frag_1084
 ---------
 Charge =  0 Multiplicity = 1

 SCF Done:  E(RHF) =  -303.125542454     A.U. after   12 cycles
 E2 =    -0.1125627685D+01 EUMP2 =    -0.30425117013892D+03
 Normal termination of Gaussian 09 at Thu Aug 25 07:06:37 2022.

 -----------------------------------------------------------
 #P Geom=AllCheck Guess=TCheck SCRF=Check MP2=Full/GTLargeXP
 -----------------------------------------------------------

 Structure from the checkpoint file:  "G4.Frag_1084.chk"
 ---------
 Frag_1084
 ---------
 Charge =  0 Multiplicity = 1

 SCF Done:  E(RHF) =  -303.203603741     A.U. after   12 cycles
 E2 =    -0.1466942200D+01 EUMP2 =    -0.30467054594178D+03
 Normal termination of Gaussian 09 at Thu Aug 25 07:14:12 2022.
 SCF Done:  E(RHF) =  -303.228108362     A.U. after    9 cycles
 Normal termination of Gaussian 09 at Thu Aug 25 07:21:20 2022.

                         Standard orientation:
 ---------------------------------------------------------------------
 Center     Atomic      Atomic             Coordinates (Angstroms)
 Number     Number       Type             X           Y           Z
 ---------------------------------------------------------------------
      1          6           0       -1.739281   -0.848082   -0.381215
      2          6           0       -0.652982    0.227129   -0.413330
      3          6           0       -0.877765    1.318725    0.641539
      4          7           0        0.671457   -0.433520   -0.337887
      5          7           0        0.889125   -0.959887    0.945906
      6          8           0        1.652490    0.620330   -0.587413
      7          1           0       -2.720664   -0.395122   -0.553358
      8          1           0       -1.753627   -1.353645    0.587559
      9          1           0       -1.562547   -1.599520   -1.155758
     10          1           0       -0.649521    0.697597   -1.401602
     11          1           0       -0.059191    2.042912    0.632392
     12          1           0       -0.966496    0.892418    1.645998
     13          1           0       -1.807930    1.854830    0.430008
     14          1           0        1.694827   -1.574262    0.886058
     15          1           0        1.128486   -0.210926    1.598868
     16          1           0        2.172836    0.250290   -1.308965
 ---------------------------------------------------------------------

 SCF Done:  E(RHF) =  -303.233396497     A.U. after    7 cycles

 The electronic state is 1-A.
 Alpha  occ. eigenvalues --  -20.57763 -15.63494 -15.57380 -11.25464 -11.20930
 Alpha  occ. eigenvalues --  -11.20654  -1.40565  -1.22985  -1.08095  -0.95510
 Alpha  occ. eigenvalues --   -0.92879  -0.77825  -0.71391  -0.68421  -0.63508
 Alpha  occ. eigenvalues --   -0.61550  -0.59243  -0.55657  -0.54238  -0.53071
 Alpha  occ. eigenvalues --   -0.49217  -0.47841  -0.46793  -0.42461  -0.39412
 Alpha virt. eigenvalues --    0.03833   0.04474   0.04909   0.05062   0.07383
 Alpha virt. eigenvalues --    0.07541   0.07712   0.07802   0.08057   0.10414
 Alpha virt. eigenvalues --    0.11166   0.11764   0.11830   0.12225   0.13432

 Mulliken charges:
               1
     1  C   -0.564978
     2  C    0.121528
     3  C   -0.587040
     4  N    0.020557
     5  N   -0.628069
     6  O   -0.581054
     7  H    0.163010
     8  H    0.191010
     9  H    0.170468
    10  H    0.156119
    11  H    0.198962
    12  H    0.170427
    13  H    0.168366
    14  H    0.304320
    15  H    0.300667
    16  H    0.395706
 Sum of Mulliken charges =  -0.00000

 Dipole moment (field-independent basis, Debye):
    X=              0.6105    Y=             -0.0757    Z=             -0.1856  Tot=              0.6426
 Quadrupole moment (field-independent basis, Debye-Ang):
   XX=            -34.8447   YY=            -40.7669   ZZ=            -36.2238
   XY=             -3.5154   XZ=             -0.0177   YZ=              0.2683

 Normal termination of Gaussian 09 at Thu Aug 25 10:10:21 2022.
