 Gaussian 09, Revision E.01,
 Gaussian 09:  ES64L-G09RevE.01 30-Nov-2015

 -----
 #P G4
 -----

 --------
 Frag_878
 --------
 Symbolic Z-matrix:
 Charge =  0 Multiplicity = 1

 SCF Done:  E(RB3LYP) =  -323.157414941     A.U. after   16 cycles
 SCF Done:  E(RB3LYP) =  -323.175983554     A.U. after   12 cycles
 SCF Done:  E(RB3LYP) =  -323.179223719     A.U. after   12 cycles
 SCF Done:  E(RB3LYP) =  -323.180701053     A.U. after   12 cycles
 SCF Done:  E(RB3LYP) =  -323.182290520     A.U. after   13 cycles
 SCF Done:  E(RB3LYP) =  -323.183666298     A.U. after   11 cycles
 SCF Done:  E(RB3LYP) =  -323.184352464     A.U. after   11 cycles
 SCF Done:  E(RB3LYP) =  -323.184446418     A.U. after   11 cycles
 SCF Done:  E(RB3LYP) =  -323.184593622     A.U. after   10 cycles
 SCF Done:  E(RB3LYP) =  -323.184632621     A.U. after   10 cycles
 SCF Done:  E(RB3LYP) =  -323.184643897     A.U. after    8 cycles
 SCF Done:  E(RB3LYP) =  -323.184644499     A.U. after    8 cycles
 SCF Done:  E(RB3LYP) =  -323.184644662     A.U. after    7 cycles
 Optimization completed.
    -- Stationary point found.
 Normal termination of Gaussian 09 at Sat Aug 20 19:43:18 2022.

 ----------------------------------------------------------
 #P Geom=AllCheck Guess=TCheck SCRF=Check B3LYP/GTBas3 Freq
 ----------------------------------------------------------

 Structure from the checkpoint file:  "G4.Frag_878.chk"
 --------
 Frag_878
 --------
 Charge =  0 Multiplicity = 1

 SCF Done:  E(RB3LYP) =  -323.184644662     A.U. after    1 cycles

  Exact polarizability:  73.621  -3.248  76.754   0.264   2.222  53.939
 Approx polarizability: 102.279  -3.337 125.536  -0.852   3.741  78.058

                      1                      2                      3
                      A                      A                      A
 Frequencies --     83.8349               208.1162               261.3777
 Red. masses --      3.1869                 1.1246                 1.1183
 Frc consts  --      0.0132                 0.0287                 0.0450
 IR Inten    --      2.2155                 2.7149                13.0085

                      4                      5                      6
                      A                      A                      A
 Frequencies --    269.6672               300.6709               322.1723
 Red. masses --      1.0962                 2.0163                 3.0983
 Frc consts  --      0.0470                 0.1074                 0.1895
 IR Inten    --     19.9926                 1.3345                25.0419

                      7                      8                      9
                      A                      A                      A
 Frequencies --    367.7430               416.6351               451.1766
 Red. masses --      2.3228                 3.2871                 1.4353
 Frc consts  --      0.1851                 0.3362                 0.1721
 IR Inten    --      2.7467                 6.3618                24.6466

                     10                     11                     12
                      A                      A                      A
 Frequencies --    454.5424               510.9342               520.2367
 Red. masses --      3.0583                 2.7002                 1.8712
 Frc consts  --      0.3723                 0.4153                 0.2984
 IR Inten    --     15.5003                 6.7268                51.9798

                     13                     14                     15
                      A                      A                      A
 Frequencies --    615.6597               663.2522               737.2211
 Red. masses --      2.2610                 3.1870                 1.3656
 Frc consts  --      0.5049                 0.8260                 0.4373
 IR Inten    --     80.1158                 2.6116                46.3876

                     16                     17                     18
                      A                      A                      A
 Frequencies --    787.8259               818.6638               894.4881
 Red. masses --      5.4189                 1.4510                 1.4320
 Frc consts  --      1.9816                 0.5729                 0.6751
 IR Inten    --      9.4891               110.8731                29.6670

                     19                     20                     21
                      A                      A                      A
 Frequencies --    917.9459               955.4419               976.5203
 Red. masses --      2.5129                 1.8002                 2.0908
 Frc consts  --      1.2475                 0.9682                 1.1747
 IR Inten    --      5.5445                 2.0241                 5.0981

                     22                     23                     24
                      A                      A                      A
 Frequencies --   1098.1292              1113.9066              1169.0569
 Red. masses --      1.2605                 1.5897                 1.8492
 Frc consts  --      0.8955                 1.1621                 1.4890
 IR Inten    --      3.9830                 2.9579                 4.5985

                     25                     26                     27
                      A                      A                      A
 Frequencies --   1190.7575              1242.4186              1291.6549
 Red. masses --      1.5731                 1.7507                 2.1904
 Frc consts  --      1.3142                 1.5922                 2.1531
 IR Inten    --      4.6676                 5.0810                30.0347

                     28                     29                     30
                      A                      A                      A
 Frequencies --   1375.2092              1408.5464              1438.1796
 Red. masses --      1.1565                 1.1559                 1.1818
 Frc consts  --      1.2887                 1.3512                 1.4402
 IR Inten    --     11.9898                 1.7418                 3.1682

                     31                     32                     33
                      A                      A                      A
 Frequencies --   1450.6900              1459.5170              1482.3785
 Red. masses --      1.0999                 1.0665                 1.0515
 Frc consts  --      1.3638                 1.3385                 1.3613
 IR Inten    --      5.6006                 7.9066                 8.8958

                     34                     35                     36
                      A                      A                      A
 Frequencies --   1496.5671              1507.8997              1642.9432
 Red. masses --      1.1064                 1.1485                 1.1295
 Frc consts  --      1.4600                 1.5386                 1.7964
 IR Inten    --     18.2608                 6.4428                45.1833

                     37                     38                     39
                      A                      A                      A
 Frequencies --   1744.6783              3054.7625              3062.9967
 Red. masses --      5.9566                 1.0344                 1.0358
 Frc consts  --     10.6826                 5.6874                 5.7255
 IR Inten    --     84.4317                16.8564                43.9501

                     40                     41                     42
                      A                      A                      A
 Frequencies --   3148.0999              3160.1402              3163.0545
 Red. masses --      1.1009                 1.0957                 1.0602
 Frc consts  --      6.4282                 6.4471                 6.2496
 IR Inten    --     10.7608                 9.5173                24.1366

                     43                     44                     45
                      A                      A                      A
 Frequencies --   3182.3024              3191.3503              3271.3828
 Red. masses --      1.1059                 1.1058                 1.1158
 Frc consts  --      6.5983                 6.6354                 7.0354
 IR Inten    --      6.2843                 3.4691                 2.6325

                     46                     47                     48
                      A                      A                      A
 Frequencies --   3363.9046              3517.1457              3607.1996
 Red. masses --      1.0737                 1.0483                 1.0946
 Frc consts  --      7.1583                 7.6403                 8.3914
 IR Inten    --     32.0661                 2.4146                 4.8354

 - Thermochemistry -
 -------------------
 Temperature   298.150 Kelvin.  Pressure   1.00000 Atm.
 Atom     1 has atomic number  6 and mass  12.00000

 Molecular mass:   101.09530 amu.
 Principal axes and moments of inertia in atomic units:
                           1         2         3
     Eigenvalues --   527.23333 731.54913 890.22780
           X            0.99761  -0.06861   0.00783
           Y            0.06832   0.99713   0.03249
           Z           -0.01004  -0.03188   0.99944
 This molecule is an asymmetric top.
 Rotational symmetry number  1.
 Warning -- assumption of classical behavior for rotation
           may cause significant error
 Rotational temperatures (Kelvin)      0.16428     0.11840     0.09729
 Rotational constants (GHZ):           3.42304     2.46701     2.02728
 Zero-point vibrational energy     414918.7 (Joules/Mol)
                                   99.16796 (Kcal/Mol)
 Warning -- explicit consideration of  13 degrees of freedom as
           vibrations may cause significant error
 Vibrational temperatures:    120.62   299.43   376.06   387.99   432.60
          (Kelvin)            463.53   529.10   599.44   649.14   653.98
                              735.12   748.50   885.80   954.27  1060.70
                             1133.50  1177.87  1286.97  1320.72  1374.67
                             1404.99  1579.96  1602.66  1682.01  1713.23
                             1787.56  1858.40  1978.62  2026.58  2069.22
                             2087.22  2099.92  2132.81  2153.22  2169.53
                             2363.83  2510.20  4395.12  4406.96  4529.41
                             4546.73  4550.92  4578.62  4591.64  4706.78
                             4839.90  5060.38  5189.95

 Zero-point correction=                           0.158034 (Hartree/Particle)
 Thermal correction to Energy=                    0.166395
 Thermal correction to Enthalpy=                  0.167339
 Thermal correction to Gibbs Free Energy=         0.126452
 Sum of electronic and zero-point Energies=           -323.026610
 Sum of electronic and thermal Energies=              -323.018250
 Sum of electronic and thermal Enthalpies=            -323.017306
 Sum of electronic and thermal Free Energies=         -323.058192

                     E (Thermal)             CV                S
                      KCal/Mol        Cal/Mol-Kelvin    Cal/Mol-Kelvin
 Total                  104.414             32.515             86.053
 Electronic               0.000              0.000              0.000
 Translational            0.889              2.981             39.751
 Rotational               0.889              2.981             27.331
 Vibrational            102.637             26.553             18.971
 Vibration     1          0.601              1.960              3.799
 Vibration     2          0.641              1.828              2.060
 Vibration     3          0.669              1.743              1.653
 Vibration     4          0.674              1.729              1.598
 Vibration     5          0.693              1.672              1.413
 Vibration     6          0.707              1.631              1.299
 Vibration     7          0.740              1.539              1.089
 Vibration     8          0.780              1.434              0.903
 Vibration     9          0.810              1.358              0.792
 Vibration    10          0.813              1.351              0.782
 Vibration    11          0.866              1.226              0.631
 Vibration    12          0.875              1.205              0.609
 Vibration    13          0.975              0.999              0.423

 Optimization completed.
    -- Stationary point found.
 Normal termination of Gaussian 09 at Sat Aug 20 19:48:58 2022.

 -----------------------------------------------------------------
 #P Geom=AllCheck Guess=TCheck SCRF=Check CCSD(T,E4T,FrzG4)/GTBas1
 -----------------------------------------------------------------

 Structure from the checkpoint file:  "G4.Frag_878.chk"
 --------
 Frag_878
 --------
 Charge =  0 Multiplicity = 1

 SCF Done:  E(RHF) =  -321.052263694     A.U. after   13 cycles
 E2 =    -0.1021452485D+01 EUMP2 =    -0.32207371617938D+03
 CCSD(T)
 CCSD(T)= -0.32217404652D+03
 CCSD(T)=-322.1740465\RMSD=9.764e-09\PG=C01 [X(C4H11N3)]\\@
 Normal termination of Gaussian 09 at Sat Aug 20 20:06:18 2022.

 ---------------------------------------------------------
 #P Geom=AllCheck Guess=TCheck SCRF=Check MP4=FrzG4/GTBas2
 ---------------------------------------------------------

 Structure from the checkpoint file:  "G4.Frag_878.chk"
 --------
 Frag_878
 --------
 Charge =  0 Multiplicity = 1

 SCF Done:  E(RHF) =  -321.065330371     A.U. after   14 cycles
 E2 =    -0.1039366275D+01 EUMP2 =    -0.32210469664580D+03
 Normal termination of Gaussian 09 at Sat Aug 20 20:27:40 2022.

 ---------------------------------------------------------
 #P Geom=AllCheck Guess=TCheck SCRF=Check MP4=FrzG4/GTBas3
 ---------------------------------------------------------

 Structure from the checkpoint file:  "G4.Frag_878.chk"
 --------
 Frag_878
 --------
 Charge =  0 Multiplicity = 1

 SCF Done:  E(RHF) =  -321.098058292     A.U. after   12 cycles
 E2 =    -0.1251444746D+01 EUMP2 =    -0.32234950303801D+03
 Normal termination of Gaussian 09 at Sun Aug 21 01:45:38 2022.

 -----------------------------------------------------------
 #P Geom=AllCheck Guess=TCheck SCRF=Check MP2=Full/GTLargeXP
 -----------------------------------------------------------

 Structure from the checkpoint file:  "G4.Frag_878.chk"
 --------
 Frag_878
 --------
 Charge =  0 Multiplicity = 1

 SCF Done:  E(RHF) =  -321.179855649     A.U. after   13 cycles
 E2 =    -0.1637025119D+01 EUMP2 =    -0.32281688076808D+03
 Normal termination of Gaussian 09 at Sun Aug 21 01:59:40 2022.
 SCF Done:  E(RHF) =  -321.204145935     A.U. after    9 cycles
 Normal termination of Gaussian 09 at Sun Aug 21 02:11:35 2022.

                         Standard orientation:
 ---------------------------------------------------------------------
 Center     Atomic      Atomic             Coordinates (Angstroms)
 Number     Number       Type             X           Y           Z
 ---------------------------------------------------------------------
      1          6           0        1.548311   -1.283224   -0.011427
      2          6           0        0.941216   -0.104724    0.007513
      3          7           0        1.548578    1.159610   -0.060281
      4          7           0       -0.581558   -0.077341   -0.016423
      5          6           0       -1.052532    0.433760    1.307760
      6          6           0       -1.038683    0.861307   -1.104644
      7          7           0       -1.224122   -1.357023   -0.127775
      8          1           0        0.930141   -2.169606   -0.055117
      9          1           0        2.628484   -1.353470    0.032645
     10          1           0        2.558513    1.085724   -0.053687
     11          1           0        1.258849    1.802750    0.667349
     12          1           0       -0.726452   -0.287654    2.054328
     13          1           0       -2.140182    0.447507    1.268050
     14          1           0       -0.658204    1.432234    1.515983
     15          1           0       -0.656176    0.469821   -2.047651
     16          1           0       -0.669762    1.879567   -0.961042
     17          1           0       -2.125906    0.813412   -1.097936
     18          1           0       -0.989465   -1.639723   -1.086787
 ---------------------------------------------------------------------

 SCF Done:  E(RHF) =  -321.209393265     A.U. after    8 cycles

 The electronic state is 1-A.
 Alpha  occ. eigenvalues --  -15.68175 -15.58306 -15.46268 -11.31121 -11.26740
 Alpha  occ. eigenvalues --  -11.26493 -11.21352  -1.32783  -1.22062  -1.02225
 Alpha  occ. eigenvalues --   -1.00289  -0.98209  -0.88088  -0.76308  -0.72222
 Alpha  occ. eigenvalues --   -0.67808  -0.66008  -0.62838  -0.61964  -0.59037
 Alpha  occ. eigenvalues --   -0.57229  -0.53896  -0.52859  -0.52175  -0.49086
 Alpha  occ. eigenvalues --   -0.38689  -0.34689  -0.29519
 Alpha virt. eigenvalues --    0.02601   0.03819   0.04023   0.04809   0.06229
 Alpha virt. eigenvalues --    0.06474   0.06691   0.07532   0.07600   0.09478
 Alpha virt. eigenvalues --    0.09619   0.10445   0.10546   0.11251   0.12566

 Mulliken charges:
               1
     1  C   -0.506753
     2  C    0.169205
     3  N   -0.725957
     4  N    0.500422
     5  C   -0.489762
     6  C   -0.526997
     7  N   -0.945995
     8  H    0.257538
     9  H    0.176276
    10  H    0.316401
    11  H    0.312874
    12  H    0.225638
    13  H    0.218967
    14  H    0.162777
    15  H    0.199905
    16  H    0.188697
    17  H    0.223888
    18  H    0.242876
 Sum of Mulliken charges =  -0.00000

 Dipole moment (field-independent basis, Debye):
    X=              2.7986    Y=              4.5087    Z=              0.5249  Tot=              5.3325
 Quadrupole moment (field-independent basis, Debye-Ang):
   XX=            -44.1621   YY=            -48.0243   ZZ=            -43.3265
   XY=             -5.3538   XZ=              1.4516   YZ=              3.5501

 Normal termination of Gaussian 09 at Sun Aug 21 07:30:51 2022.
