 Gaussian 09, Revision E.01,
 Gaussian 09:  ES64L-G09RevE.01 30-Nov-2015

 -----
 #P G4
 -----

 --------
 Frag_448
 --------
 Symbolic Z-matrix:
 Charge =  0 Multiplicity = 1

 SCF Done:  E(RB3LYP) =  -323.747043836     A.U. after   14 cycles
 SCF Done:  E(RB3LYP) =  -323.759861459     A.U. after   12 cycles
 SCF Done:  E(RB3LYP) =  -323.760510224     A.U. after   12 cycles
 SCF Done:  E(RB3LYP) =  -323.760751799     A.U. after   11 cycles
 SCF Done:  E(RB3LYP) =  -323.760733766     A.U. after   13 cycles
 SCF Done:  E(RB3LYP) =  -323.760952831     A.U. after   10 cycles
 SCF Done:  E(RB3LYP) =  -323.761395913     A.U. after   12 cycles
 SCF Done:  E(RB3LYP) =  -323.761812483     A.U. after   12 cycles
 SCF Done:  E(RB3LYP) =  -323.761948184     A.U. after   12 cycles
 SCF Done:  E(RB3LYP) =  -323.762210739     A.U. after   12 cycles
 SCF Done:  E(RB3LYP) =  -323.771513220     A.U. after    8 cycles
 SCF Done:  E(RB3LYP) =  -323.771515938     A.U. after    8 cycles
 SCF Done:  E(RB3LYP) =  -323.771516431     A.U. after    8 cycles
 Optimization completed.
    -- Stationary point found.
 Normal termination of Gaussian 09 at Tue Aug 23 01:26:20 2022.

 ----------------------------------------------------------
 #P Geom=AllCheck Guess=TCheck SCRF=Check B3LYP/GTBas3 Freq
 ----------------------------------------------------------

 Structure from the checkpoint file:  "G4.Frag_448.chk"
 --------
 Frag_448
 --------
 Charge =  0 Multiplicity = 1

 SCF Done:  E(RB3LYP) =  -323.771516431     A.U. after    1 cycles

  Exact polarizability:  50.706   2.413  50.786  -0.745  -2.210  36.529
 Approx polarizability:  64.242  -1.151  80.487  -1.406  -4.572  54.828

                      1                      2                      3
                      A                      A                      A
 Frequencies --     65.2060               224.1611               259.2062
 Red. masses --      4.8031                 1.0635                 1.8708
 Frc consts  --      0.0120                 0.0315                 0.0741
 IR Inten    --      5.4887                 1.7902                24.3560

                      4                      5                      6
                      A                      A                      A
 Frequencies --    270.4124               328.8228               392.1570
 Red. masses --      1.5245                 2.8069                 1.8015
 Frc consts  --      0.0657                 0.1788                 0.1632
 IR Inten    --    104.4828                 6.6334                66.9950

                      7                      8                      9
                      A                      A                      A
 Frequencies --    436.0704               509.7515               514.5065
 Red. masses --      1.7317                 4.1109                 3.1239
 Frc consts  --      0.1940                 0.6294                 0.4872
 IR Inten    --     99.0842                 5.8089                29.5137

                     10                     11                     12
                      A                      A                      A
 Frequencies --    662.7463               713.9987               805.2507
 Red. masses --      1.2424                 2.7925                 2.5683
 Frc consts  --      0.3215                 0.8388                 0.9812
 IR Inten    --      0.5566                 2.4353                 5.9263

                     13                     14                     15
                      A                      A                      A
 Frequencies --    913.5239              1048.6338              1078.5906
 Red. masses --      2.1621                 1.6019                 2.0436
 Frc consts  --      1.0631                 1.0378                 1.4008
 IR Inten    --      9.1627                43.2924                 7.3571

                     16                     17                     18
                      A                      A                      A
 Frequencies --   1095.0735              1138.8446              1288.8610
 Red. masses --      1.6939                 2.9311                 1.4215
 Frc consts  --      1.1968                 2.2398                 1.3913
 IR Inten    --     20.5051                57.8147                10.9906

                     19                     20                     21
                      A                      A                      A
 Frequencies --   1316.5718              1367.9256              1396.4615
 Red. masses --      1.4328                 3.0415                 1.2216
 Frc consts  --      1.4633                 3.3532                 1.4036
 IR Inten    --     26.9240                57.4480                 8.4306

                     22                     23                     24
                      A                      A                      A
 Frequencies --   1403.1851              1490.2872              1495.3847
 Red. masses --      1.2222                 1.0535                 1.0560
 Frc consts  --      1.4178                 1.3786                 1.3913
 IR Inten    --     56.3380                 5.0968                 6.1443

                     25                     26                     27
                      A                      A                      A
 Frequencies --   1586.6255              1799.5114              3029.3175
 Red. masses --      1.3051                10.2262                 1.0484
 Frc consts  --      1.9357                19.5108                 5.6686
 IR Inten    --    139.5252               263.9476                 9.9338

                     28                     29                     30
                      A                      A                      A
 Frequencies --   3043.5992              3107.7127              3149.4272
 Red. masses --      1.0774                 1.0939                 1.1010
 Frc consts  --      5.8801                 6.2244                 6.4343
 IR Inten    --     22.1497                24.4287                 5.9318

                     31                     32                     33
                      A                      A                      A
 Frequencies --   3595.5170              3735.2820              3803.8126
 Red. masses --      1.0431                 1.1051                 1.0660
 Frc consts  --      7.9452                 9.0843                 9.0879
 IR Inten    --     34.9609                62.2585                21.0675

 - Thermochemistry -
 -------------------
 Temperature   298.150 Kelvin.  Pressure   1.00000 Atm.
 Atom     1 has atomic number  6 and mass  12.00000

 Molecular mass:    89.04768 amu.
 Principal axes and moments of inertia in atomic units:
                           1         2         3
     Eigenvalues --   366.08720 537.50782 837.89013
           X            0.98537   0.17026   0.00782
           Y           -0.17023   0.98539  -0.00504
           Z           -0.00856   0.00363   0.99996
 This molecule is an asymmetric top.
 Rotational symmetry number  1.
 Rotational temperatures (Kelvin)      0.23659     0.16114     0.10337
 Rotational constants (GHZ):           4.92981     3.35761     2.15391
 Zero-point vibrational energy     281519.8 (Joules/Mol)
                                   67.28485 (Kcal/Mol)
 Warning -- explicit consideration of   9 degrees of freedom as
           vibrations may cause significant error
 Vibrational temperatures:     93.82   322.52   372.94   389.06   473.10
          (Kelvin)            564.23   627.41   733.42   740.26   953.54
                             1027.28  1158.57  1314.36  1508.75  1551.85
                             1575.56  1638.54  1854.38  1894.25  1968.14
                             2009.19  2018.87  2144.19  2151.52  2282.80
                             2589.09  4358.51  4379.05  4471.30  4531.32
                             5173.14  5374.23  5472.83

 Zero-point correction=                           0.107225 (Hartree/Particle)
 Thermal correction to Energy=                    0.114255
 Thermal correction to Enthalpy=                  0.115199
 Thermal correction to Gibbs Free Energy=         0.076621
 Sum of electronic and zero-point Energies=           -323.664291
 Sum of electronic and thermal Energies=              -323.657262
 Sum of electronic and thermal Enthalpies=            -323.656317
 Sum of electronic and thermal Free Energies=         -323.694895

                     E (Thermal)             CV                S
                      KCal/Mol        Cal/Mol-Kelvin    Cal/Mol-Kelvin
 Total                   71.696             25.000             81.194
 Electronic               0.000              0.000              0.000
 Translational            0.889              2.981             39.372
 Rotational               0.889              2.981             26.603
 Vibrational             69.919             19.038             15.220
 Vibration     1          0.597              1.971              4.293
 Vibration     2          0.649              1.804              1.925
 Vibration     3          0.668              1.747              1.667
 Vibration     4          0.674              1.728              1.594
 Vibration     5          0.712              1.618              1.266
 Vibration     6          0.760              1.487              0.992
 Vibration     7          0.797              1.392              0.839
 Vibration     8          0.865              1.228              0.634
 Vibration     9          0.870              1.218              0.623

 Normal termination of Gaussian 09 at Tue Aug 23 01:28:22 2022.

 -----------------------------------------------------------------
 #P Geom=AllCheck Guess=TCheck SCRF=Check CCSD(T,E4T,FrzG4)/GTBas1
 -----------------------------------------------------------------

 Structure from the checkpoint file:  "G4.Frag_448.chk"
 --------
 Frag_448
 --------
 Charge =  0 Multiplicity = 1

 SCF Done:  E(RHF) =  -321.861870454     A.U. after   13 cycles
 E2 =    -0.9041142038D+00 EUMP2 =    -0.32276598465821D+03
 CCSD(T)
 CCSD(T)= -0.32283366111D+03
 4SDTQ=-322.8367939\MP4SDQ=-322.8073045\CCSD=-322.8059413\CCSD(T)=-322.
 Normal termination of Gaussian 09 at Tue Aug 23 01:33:41 2022.

 ---------------------------------------------------------
 #P Geom=AllCheck Guess=TCheck SCRF=Check MP4=FrzG4/GTBas2
 ---------------------------------------------------------

 Structure from the checkpoint file:  "G4.Frag_448.chk"
 --------
 Frag_448
 --------
 Charge =  0 Multiplicity = 1

 SCF Done:  E(RHF) =  -321.873363763     A.U. after   12 cycles
 E2 =    -0.9190908366D+00 EUMP2 =    -0.32279245459920D+03
 Normal termination of Gaussian 09 at Tue Aug 23 01:39:00 2022.

 ---------------------------------------------------------
 #P Geom=AllCheck Guess=TCheck SCRF=Check MP4=FrzG4/GTBas3
 ---------------------------------------------------------

 Structure from the checkpoint file:  "G4.Frag_448.chk"
 --------
 Frag_448
 --------
 Charge =  0 Multiplicity = 1

 SCF Done:  E(RHF) =  -321.903806767     A.U. after   12 cycles
 E2 =    -0.1112277807D+01 EUMP2 =    -0.32301608457421D+03
 Normal termination of Gaussian 09 at Tue Aug 23 03:55:00 2022.

 -----------------------------------------------------------
 #P Geom=AllCheck Guess=TCheck SCRF=Check MP2=Full/GTLargeXP
 -----------------------------------------------------------

 Structure from the checkpoint file:  "G4.Frag_448.chk"
 --------
 Frag_448
 --------
 Charge =  0 Multiplicity = 1

 SCF Done:  E(RHF) =  -321.992123329     A.U. after   12 cycles
 E2 =    -0.1455069547D+01 EUMP2 =    -0.32344719287581D+03
 Normal termination of Gaussian 09 at Tue Aug 23 04:00:17 2022.
 SCF Done:  E(RHF) =  -322.017647821     A.U. after    9 cycles
 Normal termination of Gaussian 09 at Tue Aug 23 04:05:38 2022.

                         Standard orientation:
 ---------------------------------------------------------------------
 Center     Atomic      Atomic             Coordinates (Angstroms)
 Number     Number       Type             X           Y           Z
 ---------------------------------------------------------------------
      1          6           0        1.572432    0.974735    0.297482
      2          6           0        0.672660   -0.044797   -0.393501
      3          8           0        1.057518   -1.394026   -0.131045
      4          6           0       -0.811919    0.223594   -0.070717
      5          7           0       -1.521310   -0.891739    0.244518
      6          8           0       -1.278842    1.346334   -0.110603
      7          1           0        1.218855    1.983573    0.078568
      8          1           0        2.606057    0.864788   -0.039987
      9          1           0        1.542572    0.841247    1.386316
     10          1           0        0.764207    0.071830   -1.480526
     11          1           0        1.296840   -1.451584    0.800628
     12          1           0       -1.088521   -1.792705    0.127757
     13          1           0       -2.519281   -0.814637    0.349220
 ---------------------------------------------------------------------

 SCF Done:  E(RHF) =  -322.023164756     A.U. after    8 cycles

 The electronic state is 1-A.
 Alpha  occ. eigenvalues --  -20.57990 -20.51874 -15.58304 -11.35069 -11.30407
 Alpha  occ. eigenvalues --  -11.23030  -1.39558  -1.37450  -1.21237  -1.03745
 Alpha  occ. eigenvalues --   -0.90100  -0.79568  -0.74276  -0.70060  -0.65910
 Alpha  occ. eigenvalues --   -0.63519  -0.61131  -0.57632  -0.54918  -0.53561
 Alpha  occ. eigenvalues --   -0.51481  -0.49636  -0.42015  -0.41177
 Alpha virt. eigenvalues --    0.03591   0.04098   0.04774   0.05257   0.07002
 Alpha virt. eigenvalues --    0.07316   0.07669   0.07789   0.08895   0.10300
 Alpha virt. eigenvalues --    0.11201   0.12135   0.12737   0.14154   0.15033

 Mulliken charges:
               1
     1  C   -0.549966
     2  C    0.135953
     3  O   -0.600869
     4  C    0.522197
     5  N   -0.732756
     6  O   -0.617176
     7  H    0.224329
     8  H    0.178228
     9  H    0.157675
    10  H    0.191851
    11  H    0.372587
    12  H    0.363174
    13  H    0.354772
 Sum of Mulliken charges =  -0.00000

 Dipole moment (field-independent basis, Debye):
    X=              1.0686    Y=             -2.5709    Z=              1.0651  Tot=              2.9809
 Quadrupole moment (field-independent basis, Debye-Ang):
   XX=            -34.3998   YY=            -40.2551   ZZ=            -35.0375
   XY=              7.5488   XZ=              1.0324   YZ=             -2.1811

 Normal termination of Gaussian 09 at Tue Aug 23 06:31:46 2022.
