 Gaussian 09, Revision E.01,
 Gaussian 09:  ES64L-G09RevE.01 30-Nov-2015

 -----
 #P G4
 -----

 --------
 Frag_513
 --------
 Symbolic Z-matrix:
 Charge =  0 Multiplicity = 1

 SCF Done:  E(RB3LYP) =  -305.028458368     A.U. after   12 cycles
 SCF Done:  E(RB3LYP) =  -305.035425298     A.U. after   11 cycles
 SCF Done:  E(RB3LYP) =  -305.036823924     A.U. after   12 cycles
 SCF Done:  E(RB3LYP) =  -305.037251104     A.U. after   11 cycles
 SCF Done:  E(RB3LYP) =  -305.037404614     A.U. after   10 cycles
 SCF Done:  E(RB3LYP) =  -305.037996340     A.U. after   11 cycles
 SCF Done:  E(RB3LYP) =  -305.003389135     A.U. after   12 cycles
 SCF Done:  E(RB3LYP) =  -305.038146586     A.U. after    9 cycles
 SCF Done:  E(RB3LYP) =  -305.041624253     A.U. after   12 cycles
 SCF Done:  E(RB3LYP) =  -305.029128268     A.U. after   12 cycles
 SCF Done:  E(RB3LYP) =  -305.045806763     A.U. after    9 cycles
 SCF Done:  E(RB3LYP) =  -305.045807697     A.U. after    7 cycles
 SCF Done:  E(RB3LYP) =  -305.045807838     A.U. after    6 cycles
 Optimization completed.
    -- Stationary point found.
 Normal termination of Gaussian 09 at Fri Aug 26 12:00:10 2022.

 ----------------------------------------------------------
 #P Geom=AllCheck Guess=TCheck SCRF=Check B3LYP/GTBas3 Freq
 ----------------------------------------------------------

 Structure from the checkpoint file:  "G4.Frag_513.chk"
 --------
 Frag_513
 --------
 Charge =  0 Multiplicity = 1

 SCF Done:  E(RB3LYP) =  -305.045807838     A.U. after    1 cycles

  Exact polarizability:  57.139   0.685  54.049  -0.676  -2.793  49.173
 Approx polarizability:  74.262  -0.569  75.876  -3.229  -4.255  72.530

                      1                      2                      3
                      A                      A                      A
 Frequencies --    103.4259               238.9994               260.8280
 Red. masses --      2.9987                 1.2232                 1.8906
 Frc consts  --      0.0189                 0.0412                 0.0758
 IR Inten    --      0.8425                 0.8360                 4.3505

                      4                      5                      6
                      A                      A                      A
 Frequencies --    267.9040               306.7764               350.3357
 Red. masses --      1.0860                 2.6383                 1.1540
 Frc consts  --      0.0459                 0.1463                 0.0835
 IR Inten    --      1.3095                 6.1333                 7.5150

                      7                      8                      9
                      A                      A                      A
 Frequencies --    384.4297               439.3554               490.2771
 Red. masses --      2.6297                 2.4850                 1.6740
 Frc consts  --      0.2290                 0.2826                 0.2371
 IR Inten    --      4.5386                 1.8508                26.3062

                     10                     11                     12
                      A                      A                      A
 Frequencies --    511.9173               607.7319               767.0780
 Red. masses --      1.7654                 2.7049                 2.9926
 Frc consts  --      0.2726                 0.5886                 1.0375
 IR Inten    --     90.9967                 4.4732                15.3114

                     13                     14                     15
                      A                      A                      A
 Frequencies --    876.3132               929.7738              1038.9384
 Red. masses --      2.6003                 1.8872                 1.4814
 Frc consts  --      1.1765                 0.9612                 0.9421
 IR Inten    --     32.3468                54.8365                28.7500

                     16                     17                     18
                      A                      A                      A
 Frequencies --   1050.2490              1087.8966              1128.1437
 Red. masses --      1.6145                 2.1490                 1.7884
 Frc consts  --      1.0493                 1.4985                 1.3410
 IR Inten    --     24.2591                21.9188               110.5354

                     19                     20                     21
                      A                      A                      A
 Frequencies --   1155.2874              1168.8861              1278.1566
 Red. masses --      1.5889                 3.5849                 2.1753
 Frc consts  --      1.2495                 2.8858                 2.0938
 IR Inten    --     43.9819                21.6845                 3.1101

                     22                     23                     24
                      A                      A                      A
 Frequencies --   1315.5650              1338.0367              1372.7556
 Red. masses --      1.3365                 1.6164                 1.2260
 Frc consts  --      1.3628                 1.7051                 1.3612
 IR Inten    --     10.0024                 7.0445                 9.9554

                     25                     26                     27
                      A                      A                      A
 Frequencies --   1394.8472              1431.9303              1452.9941
 Red. masses --      1.2836                 1.1929                 1.1691
 Frc consts  --      1.4714                 1.4412                 1.4542
 IR Inten    --     24.7892                84.5212                14.7706

                     28                     29                     30
                      A                      A                      A
 Frequencies --   1481.8249              1491.3199              1494.9082
 Red. masses --      1.0570                 1.0548                 1.0652
 Frc consts  --      1.3674                 1.3822                 1.4025
 IR Inten    --     14.8146                11.3549                 2.8993

                     31                     32                     33
                      A                      A                      A
 Frequencies --   1510.4071              1670.8572              2933.3124
 Red. masses --      1.0576                 1.0824                 1.0584
 Frc consts  --      1.4215                 1.7803                 5.3658
 IR Inten    --      1.4796                19.8955                65.0909

                     34                     35                     36
                      A                      A                      A
 Frequencies --   3036.3061              3036.8650              3054.9687
 Red. masses --      1.0371                 1.0844                 1.0730
 Frc consts  --      5.6333                 5.8921                 5.9003
 IR Inten    --     12.7591                25.4805                45.3535

                     37                     38                     39
                      A                      A                      A
 Frequencies --   3100.8838              3107.4940              3122.6969
 Red. masses --      1.1022                 1.1010                 1.1007
 Frc consts  --      6.2444                 6.2639                 6.3240
 IR Inten    --     18.7617                37.4237                21.8540

                     40                     41                     42
                      A                      A                      A
 Frequencies --   3384.1345              3537.3910              3725.8281
 Red. masses --      1.0569                 1.0841                 1.0640
 Frc consts  --      7.1312                 7.9927                 8.7025
 IR Inten    --     11.6336                 1.4082                52.9542

 - Thermochemistry -
 -------------------
 Temperature   298.150 Kelvin.  Pressure   1.00000 Atm.
 Atom     1 has atomic number  6 and mass  12.00000

 Molecular mass:    90.07931 amu.
 Principal axes and moments of inertia in atomic units:
                           1         2         3
     Eigenvalues --   383.91139 615.04148 739.58554
           X            0.99940   0.02570   0.02340
           Y           -0.02513   0.99939  -0.02415
           Z           -0.02400   0.02355   0.99943
 This molecule is an asymmetric top.
 Rotational symmetry number  1.
 Rotational temperatures (Kelvin)      0.22561     0.14083     0.11711
 Rotational constants (GHZ):           4.70093     2.93434     2.44021
 Zero-point vibrational energy     373462.4 (Joules/Mol)
                                   89.25964 (Kcal/Mol)
 Warning -- explicit consideration of  11 degrees of freedom as
           vibrations may cause significant error
 Vibrational temperatures:    148.81   343.87   375.27   385.45   441.38
          (Kelvin)            504.05   553.11   632.13   705.40   736.53
                              874.39  1103.65  1260.82  1337.74  1494.80
                             1511.07  1565.24  1623.15  1662.20  1681.76
                             1838.98  1892.80  1925.13  1975.09  2006.87
                             2060.23  2090.53  2132.01  2145.67  2150.84
                             2173.14  2403.99  4220.38  4368.56  4369.37
                             4395.41  4461.47  4470.99  4492.86  4869.01
                             5089.51  5360.63

 Zero-point correction=                           0.142244 (Hartree/Particle)
 Thermal correction to Energy=                    0.149642
 Thermal correction to Enthalpy=                  0.150586
 Thermal correction to Gibbs Free Energy=         0.111738
 Sum of electronic and zero-point Energies=           -304.903564
 Sum of electronic and thermal Energies=              -304.896166
 Sum of electronic and thermal Enthalpies=            -304.895222
 Sum of electronic and thermal Free Energies=         -304.934070

                     E (Thermal)             CV                S
                      KCal/Mol        Cal/Mol-Kelvin    Cal/Mol-Kelvin
 Total                   93.902             27.355             81.763
 Electronic               0.000              0.000              0.000
 Translational            0.889              2.981             39.407
 Rotational               0.889              2.981             26.660
 Vibrational             92.124             21.394             15.697
 Vibration     1          0.605              1.946              3.389
 Vibration     2          0.657              1.781              1.810
 Vibration     3          0.669              1.744              1.656
 Vibration     4          0.673              1.732              1.610
 Vibration     5          0.697              1.661              1.380
 Vibration     6          0.727              1.575              1.165
 Vibration     7          0.753              1.503              1.022
 Vibration     8          0.799              1.384              0.829
 Vibration     9          0.846              1.272              0.683
 Vibration    10          0.867              1.224              0.629
 Vibration    11          0.967              1.015              0.437

 Optimization completed.
    -- Stationary point found.
 Normal termination of Gaussian 09 at Fri Aug 26 12:00:48 2022.

 -----------------------------------------------------------------
 #P Geom=AllCheck Guess=TCheck SCRF=Check CCSD(T,E4T,FrzG4)/GTBas1
 -----------------------------------------------------------------

 Structure from the checkpoint file:  "G4.Frag_513.chk"
 --------
 Frag_513
 --------
 Charge =  0 Multiplicity = 1

 SCF Done:  E(RHF) =  -303.124654583     A.U. after   12 cycles
 E2 =    -0.9038937026D+00 EUMP2 =    -0.30402854828551D+03
 CCSD(T)
 CCSD(T)= -0.30411205243D+03
 4SDTQ=-304.1111924\MP4SDQ=-304.0846976\CCSD=-304.0855462\CCSD(T)=-304.
 Normal termination of Gaussian 09 at Fri Aug 26 12:03:24 2022.

 ---------------------------------------------------------
 #P Geom=AllCheck Guess=TCheck SCRF=Check MP4=FrzG4/GTBas2
 ---------------------------------------------------------

 Structure from the checkpoint file:  "G4.Frag_513.chk"
 --------
 Frag_513
 --------
 Charge =  0 Multiplicity = 1

 SCF Done:  E(RHF) =  -303.134485303     A.U. after   12 cycles
 E2 =    -0.9187065085D+00 EUMP2 =    -0.30405319181098D+03
 Normal termination of Gaussian 09 at Fri Aug 26 12:04:15 2022.

 ---------------------------------------------------------
 #P Geom=AllCheck Guess=TCheck SCRF=Check MP4=FrzG4/GTBas3
 ---------------------------------------------------------

 Structure from the checkpoint file:  "G4.Frag_513.chk"
 --------
 Frag_513
 --------
 Charge =  0 Multiplicity = 1

 SCF Done:  E(RHF) =  -303.167318471     A.U. after   11 cycles
 E2 =    -0.1120762579D+01 EUMP2 =    -0.30428808104927D+03
 Normal termination of Gaussian 09 at Fri Aug 26 12:09:00 2022.

 -----------------------------------------------------------
 #P Geom=AllCheck Guess=TCheck SCRF=Check MP2=Full/GTLargeXP
 -----------------------------------------------------------

 Structure from the checkpoint file:  "G4.Frag_513.chk"
 --------
 Frag_513
 --------
 Charge =  0 Multiplicity = 1

 SCF Done:  E(RHF) =  -303.246276416     A.U. after   11 cycles
 E2 =    -0.1461508993D+01 EUMP2 =    -0.30470778540853D+03
 Normal termination of Gaussian 09 at Fri Aug 26 12:11:01 2022.
 SCF Done:  E(RHF) =  -303.270164251     A.U. after    8 cycles
 Normal termination of Gaussian 09 at Fri Aug 26 12:13:19 2022.

                         Standard orientation:
 ---------------------------------------------------------------------
 Center     Atomic      Atomic             Coordinates (Angstroms)
 Number     Number       Type             X           Y           Z
 ---------------------------------------------------------------------
      1          6           0        1.110870    1.151766    0.726453
      2          6           0        0.694089    0.246331   -0.444040
      3          8           0        1.580949   -0.831865   -0.574967
      4          7           0       -0.680769   -0.275867   -0.361577
      5          6           0       -1.725962    0.729713   -0.405273
      6          7           0       -0.778838   -1.156890    0.754501
      7          1           0        0.476597    2.041240    0.804385
      8          1           0        2.142932    1.478986    0.577775
      9          1           0        1.065024    0.603361    1.672977
     10          1           0        0.743081    0.816029   -1.380114
     11          1           0        1.284698   -1.467031    0.093855
     12          1           0       -1.556229    1.394477   -1.258456
     13          1           0       -1.785579    1.351673    0.507480
     14          1           0       -2.696629    0.241754   -0.543767
     15          1           0       -1.120343   -0.666898    1.585637
     16          1           0       -1.457878   -1.876220    0.526654
 ---------------------------------------------------------------------

 SCF Done:  E(RHF) =  -303.275463567     A.U. after    8 cycles

 The electronic state is 1-A.
 Alpha  occ. eigenvalues --  -20.53779 -15.58210 -15.57797 -11.30210 -11.25508
 Alpha  occ. eigenvalues --  -11.21223  -1.36713  -1.27967  -1.07804  -0.99089
 Alpha  occ. eigenvalues --   -0.91149  -0.80635  -0.70457  -0.67419  -0.66575
 Alpha  occ. eigenvalues --   -0.60835  -0.60214  -0.57739  -0.56195  -0.54050
 Alpha  occ. eigenvalues --   -0.52281  -0.48779  -0.44821  -0.42842  -0.37235
 Alpha virt. eigenvalues --    0.03196   0.04182   0.04608   0.05176   0.06731
 Alpha virt. eigenvalues --    0.07104   0.07402   0.07572   0.07940   0.10218
 Alpha virt. eigenvalues --    0.10737   0.11514   0.12006   0.13523   0.14607

 Mulliken charges:
               1
     1  C   -0.571761
     2  C    0.226219
     3  O   -0.618718
     4  N    0.009517
     5  C   -0.486090
     6  N   -0.727162
     7  H    0.165480
     8  H    0.186242
     9  H    0.168460
    10  H    0.161971
    11  H    0.386607
    12  H    0.176005
    13  H    0.140935
    14  H    0.167554
    15  H    0.286876
    16  H    0.327865
 Sum of Mulliken charges =  -0.00000

 Dipole moment (field-independent basis, Debye):
    X=             -2.7177    Y=              1.1959    Z=              1.7075  Tot=              3.4251
 Quadrupole moment (field-independent basis, Debye-Ang):
   XX=            -39.3098   YY=            -36.9960   ZZ=            -38.9937
   XY=              2.7111   XZ=              0.5430   YZ=             -2.9752

 Normal termination of Gaussian 09 at Fri Aug 26 12:22:01 2022.
