 Gaussian 09, Revision E.01,
 Gaussian 09:  ES64L-G09RevE.01 30-Nov-2015

 -----
 #P G4
 -----

 --------
 Frag_801
 --------
 Symbolic Z-matrix:
 Charge =  0 Multiplicity = 1

 SCF Done:  E(RB3LYP) =  -268.288222283     A.U. after   13 cycles
 SCF Done:  E(RB3LYP) =  -268.344397108     A.U. after   12 cycles
 SCF Done:  E(RB3LYP) =  -268.354736683     A.U. after   12 cycles
 SCF Done:  E(RB3LYP) =  -268.355972617     A.U. after   11 cycles
 SCF Done:  E(RB3LYP) =  -268.356332869     A.U. after   12 cycles
 SCF Done:  E(RB3LYP) =  -268.349763103     A.U. after   14 cycles
 SCF Done:  E(RB3LYP) =  -268.358084803     A.U. after   13 cycles
 SCF Done:  E(RB3LYP) =  -268.357420848     A.U. after   14 cycles
 SCF Done:  E(RB3LYP) =  -268.358504796     A.U. after   10 cycles
 SCF Done:  E(RB3LYP) =  -268.359152593     A.U. after   11 cycles
 SCF Done:  E(RB3LYP) =  -268.361744925     A.U. after    8 cycles
 SCF Done:  E(RB3LYP) =  -268.361745224     A.U. after    8 cycles
 SCF Done:  E(RB3LYP) =  -268.361745296     A.U. after    7 cycles
 Optimization completed.
    -- Stationary point found.
 Normal termination of Gaussian 09 at Tue Aug 30 10:16:51 2022.

 ----------------------------------------------------------
 #P Geom=AllCheck Guess=TCheck SCRF=Check B3LYP/GTBas3 Freq
 ----------------------------------------------------------

 Structure from the checkpoint file:  "G4.Frag_801.chk"
 --------
 Frag_801
 --------
 Charge =  0 Multiplicity = 1

 SCF Done:  E(RB3LYP) =  -268.361745296     A.U. after    1 cycles

  Exact polarizability:  49.769   3.718  39.763  -3.718  -1.673  31.675
 Approx polarizability:  70.610   9.996  58.047  -7.533  -3.040  47.669

                      1                      2                      3
                      A                      A                      A
 Frequencies --    112.1202               243.7797               288.2704
 Red. masses --      2.3773                 1.1833                 3.1503
 Frc consts  --      0.0176                 0.0414                 0.1542
 IR Inten    --      2.3077                42.4379                 0.8121

                      4                      5                      6
                      A                      A                      A
 Frequencies --    374.4463               443.1480               523.3531
 Red. masses --      1.2988                 1.5370                 4.3524
 Frc consts  --      0.1073                 0.1778                 0.7024
 IR Inten    --     64.2243                75.2379                30.6960

                      7                      8                      9
                      A                      A                      A
 Frequencies --    579.6656               718.6099               885.4844
 Red. masses --      2.3531                 2.2523                 2.6919
 Frc consts  --      0.4659                 0.6853                 1.2436
 IR Inten    --     10.1434                11.3447                31.6950

                     10                     11                     12
                      A                      A                      A
 Frequencies --    975.0022              1005.6485              1045.4325
 Red. masses --      1.3755                 1.8882                 1.3003
 Frc consts  --      0.7704                 1.1251                 0.8373
 IR Inten    --     21.7262                60.4700                62.2569

                     13                     14                     15
                      A                      A                      A
 Frequencies --   1063.8396              1130.4744              1227.5882
 Red. masses --      2.6007                 1.9673                 1.2406
 Frc consts  --      1.7342                 1.4813                 1.1015
 IR Inten    --     77.5636               152.7260                24.2315

                     16                     17                     18
                      A                      A                      A
 Frequencies --   1289.5152              1313.1996              1416.2989
 Red. masses --      1.5449                 1.2748                 1.1214
 Frc consts  --      1.5136                 1.2952                 1.3253
 IR Inten    --      4.2175                 0.8579                31.3735

                     19                     20                     21
                      A                      A                      A
 Frequencies --   1434.3847              1449.9641              1711.2446
 Red. masses --      1.1888                 1.3443                 5.0398
 Frc consts  --      1.4411                 1.6651                 8.6954
 IR Inten    --     23.8790                62.9264                 0.7189

                     22                     23                     24
                      A                      A                      A
 Frequencies --   3057.0355              3148.6535              3162.0059
 Red. masses --      1.0845                 1.0621                 1.0883
 Frc consts  --      5.9715                 6.2040                 6.4113
 IR Inten    --     23.6189                 8.2917                 5.0310

                     25                     26                     27
                      A                      A                      A
 Frequencies --   3237.1514              3785.0999              3790.4966
 Red. masses --      1.1150                 1.0654                 1.0661
 Frc consts  --      6.8840                 8.9931                 9.0250
 IR Inten    --      7.5906                10.6825                14.1054

 - Thermochemistry -
 -------------------
 Temperature   298.150 Kelvin.  Pressure   1.00000 Atm.
 Atom     1 has atomic number  6 and mass  12.00000

 Molecular mass:    74.03678 amu.
 Principal axes and moments of inertia in atomic units:
                           1         2         3
     Eigenvalues --   210.91302 434.48033 589.64460
           X            0.99998  -0.00081  -0.00687
           Y            0.00068   0.99983  -0.01833
           Z            0.00689   0.01833   0.99981
 This molecule is an asymmetric top.
 Rotational symmetry number  1.
 Rotational temperatures (Kelvin)      0.41066     0.19935     0.14689
 Rotational constants (GHZ):           8.55680     4.15379     3.06073
 Zero-point vibrational energy     235735.6 (Joules/Mol)
                                   56.34216 (Kcal/Mol)
 Warning -- explicit consideration of   7 degrees of freedom as
           vibrations may cause significant error
 Vibrational temperatures:    161.32   350.74   414.76   538.74   637.59
          (Kelvin)            752.99   834.01  1033.92  1274.01  1402.81
                             1446.90  1504.14  1530.63  1626.50  1766.22
                             1855.32  1889.40  2037.74  2063.76  2086.17
                             2462.10  4398.39  4530.20  4549.42  4657.53
                             5445.91  5453.67

 Zero-point correction=                           0.089787 (Hartree/Particle)
 Thermal correction to Energy=                    0.095625
 Thermal correction to Enthalpy=                  0.096569
 Thermal correction to Gibbs Free Energy=         0.061053
 Sum of electronic and zero-point Energies=           -268.271958
 Sum of electronic and thermal Energies=              -268.266121
 Sum of electronic and thermal Enthalpies=            -268.265176
 Sum of electronic and thermal Free Energies=         -268.300692

                     E (Thermal)             CV                S
                      KCal/Mol        Cal/Mol-Kelvin    Cal/Mol-Kelvin
 Total                   60.005             20.333             74.749
 Electronic               0.000              0.000              0.000
 Translational            0.889              2.981             38.822
 Rotational               0.889              2.981             25.494
 Vibrational             58.228             14.372             10.433
 Vibration     1          0.607              1.939              3.232
 Vibration     2          0.659              1.773              1.775
 Vibration     3          0.685              1.696              1.484
 Vibration     4          0.746              1.525              1.062
 Vibration     5          0.803              1.376              0.817
 Vibration     6          0.878              1.198              0.602
 Vibration     7          0.936              1.075              0.486

 Optimization completed.
    -- Stationary point found.
 Normal termination of Gaussian 09 at Tue Aug 30 10:17:11 2022.

 -----------------------------------------------------------------
 #P Geom=AllCheck Guess=TCheck SCRF=Check CCSD(T,E4T,FrzG4)/GTBas1
 -----------------------------------------------------------------

 Structure from the checkpoint file:  "G4.Frag_801.chk"
 --------
 Frag_801
 --------
 Charge =  0 Multiplicity = 1

 SCF Done:  E(RHF) =  -266.776542756     A.U. after   12 cycles
 E2 =    -0.7395633860D+00 EUMP2 =    -0.26751610614222D+03
 CCSD(T)
 CCSD(T)= -0.26757753908D+03
 3\MP4SDQ=-267.5547948\CCSD=-267.555232\CCSD(T)=-267.5775391\RMSD=6.098
 Normal termination of Gaussian 09 at Tue Aug 30 10:18:03 2022.

 ---------------------------------------------------------
 #P Geom=AllCheck Guess=TCheck SCRF=Check MP4=FrzG4/GTBas2
 ---------------------------------------------------------

 Structure from the checkpoint file:  "G4.Frag_801.chk"
 --------
 Frag_801
 --------
 Charge =  0 Multiplicity = 1

 SCF Done:  E(RHF) =  -266.787469122     A.U. after   12 cycles
 E2 =    -0.7519129589D+00 EUMP2 =    -0.26753938208066D+03
 Normal termination of Gaussian 09 at Tue Aug 30 10:18:19 2022.

 ---------------------------------------------------------
 #P Geom=AllCheck Guess=TCheck SCRF=Check MP4=FrzG4/GTBas3
 ---------------------------------------------------------

 Structure from the checkpoint file:  "G4.Frag_801.chk"
 --------
 Frag_801
 --------
 Charge =  0 Multiplicity = 1

 SCF Done:  E(RHF) =  -266.814305602     A.U. after   11 cycles
 E2 =    -0.9144543260D+00 EUMP2 =    -0.26772875992757D+03
 Normal termination of Gaussian 09 at Tue Aug 30 10:19:33 2022.

 -----------------------------------------------------------
 #P Geom=AllCheck Guess=TCheck SCRF=Check MP2=Full/GTLargeXP
 -----------------------------------------------------------

 Structure from the checkpoint file:  "G4.Frag_801.chk"
 --------
 Frag_801
 --------
 Charge =  0 Multiplicity = 1

 SCF Done:  E(RHF) =  -266.889735098     A.U. after   11 cycles
 E2 =    -0.1199629490D+01 EUMP2 =    -0.26808936458792D+03
 Normal termination of Gaussian 09 at Tue Aug 30 10:20:20 2022.
 SCF Done:  E(RHF) =  -266.911853673     A.U. after    9 cycles
 Normal termination of Gaussian 09 at Tue Aug 30 10:21:15 2022.

                         Standard orientation:
 ---------------------------------------------------------------------
 Center     Atomic      Atomic             Coordinates (Angstroms)
 Number     Number       Type             X           Y           Z
 ---------------------------------------------------------------------
      1          6           0        1.932546   -0.016821   -0.152026
      2          6           0        0.817105   -0.654985    0.185062
      3          6           0       -0.526138    0.005369    0.391546
      4          8           0       -1.543709   -0.755339   -0.230117
      5          8           0       -0.543688    1.356884    0.011189
      6          1           0        2.867167   -0.544571   -0.307965
      7          1           0        1.952337    1.062593   -0.262090
      8          1           0        0.811835   -1.733582    0.327926
      9          1           0       -0.793621    0.013448    1.454406
     10          1           0       -1.228549   -1.022149   -1.101611
     11          1           0       -0.251069    1.410519   -0.906734
 ---------------------------------------------------------------------

 SCF Done:  E(RHF) =  -266.916649437     A.U. after    8 cycles

 The electronic state is 1-A.
 Alpha  occ. eigenvalues --  -20.56829 -20.56746 -11.34397 -11.24706 -11.24320
 Alpha  occ. eigenvalues --   -1.41414  -1.34062  -1.06787  -0.92182  -0.79908
 Alpha  occ. eigenvalues --   -0.71496  -0.69796  -0.65707  -0.63397  -0.56483
 Alpha  occ. eigenvalues --   -0.54871  -0.53124  -0.48415  -0.47008  -0.39011
 Alpha virt. eigenvalues --    0.03535   0.04582   0.05152   0.05360   0.07102
 Alpha virt. eigenvalues --    0.07221   0.07554   0.08270   0.08880   0.10558
 Alpha virt. eigenvalues --    0.13156   0.13993   0.14482   0.15323   0.15943

 Mulliken charges:
               1
     1  C   -0.404849
     2  C   -0.265169
     3  C    0.289656
     4  O   -0.558345
     5  O   -0.569834
     6  H    0.201985
     7  H    0.202188
     8  H    0.221332
     9  H    0.180743
    10  H    0.355119
    11  H    0.347175
 Sum of Mulliken charges =  -0.00000

 Dipole moment (field-independent basis, Debye):
    X=              2.2381    Y=             -0.9244    Z=             -1.5550  Tot=              2.8778
 Quadrupole moment (field-independent basis, Debye-Ang):
   XX=            -33.6762   YY=            -31.5911   ZZ=            -27.5373
   XY=              0.3091   XZ=              0.0894   YZ=             -1.1699

 Normal termination of Gaussian 09 at Tue Aug 30 10:26:50 2022.
