 Gaussian 09, Revision E.01,
 Gaussian 09:  ES64L-G09RevE.01 30-Nov-2015

 -----
 #P G4
 -----

 --------
 Frag_912
 --------
 Symbolic Z-matrix:
 Charge =  0 Multiplicity = 1

 SCF Done:  E(RB3LYP) =  -285.561789330     A.U. after   12 cycles
 SCF Done:  E(RB3LYP) =  -285.568526364     A.U. after   11 cycles
 SCF Done:  E(RB3LYP) =  -285.569411390     A.U. after   10 cycles
 SCF Done:  E(RB3LYP) =  -285.569609411     A.U. after   10 cycles
 SCF Done:  E(RB3LYP) =  -285.569679192     A.U. after   10 cycles
 SCF Done:  E(RB3LYP) =  -285.569751879     A.U. after   10 cycles
 SCF Done:  E(RB3LYP) =  -285.569872151     A.U. after   11 cycles
 SCF Done:  E(RB3LYP) =  -285.570085951     A.U. after   11 cycles
 SCF Done:  E(RB3LYP) =  -285.570732146     A.U. after   13 cycles
 SCF Done:  E(RB3LYP) =  -285.570850314     A.U. after   11 cycles
 SCF Done:  E(RB3LYP) =  -285.571224586     A.U. after   10 cycles
 SCF Done:  E(RB3LYP) =  -285.571226794     A.U. after    8 cycles
 SCF Done:  E(RB3LYP) =  -285.571227214     A.U. after    7 cycles
 Optimization completed.
    -- Stationary point found.
 Normal termination of Gaussian 09 at Sun Aug 21 16:13:40 2022.

 ----------------------------------------------------------
 #P Geom=AllCheck Guess=TCheck SCRF=Check B3LYP/GTBas3 Freq
 ----------------------------------------------------------

 Structure from the checkpoint file:  "G4.Frag_912.chk"
 --------
 Frag_912
 --------
 Charge =  0 Multiplicity = 1

 SCF Done:  E(RB3LYP) =  -285.571227214     A.U. after    1 cycles

  Exact polarizability:  43.431  -1.905  42.061  -1.576   1.194  33.861
 Approx polarizability:  58.229  -5.238  55.578  -0.379   1.735  50.564

                      1                      2                      3
                      A                      A                      A
 Frequencies --    124.6110               238.7557               282.9246
 Red. masses --      2.4604                 1.1113                 2.8122
 Frc consts  --      0.0225                 0.0373                 0.1326
 IR Inten    --      3.0498                39.4231                12.5890

                      4                      5                      6
                      A                      A                      A
 Frequencies --    309.8393               318.9563               408.4599
 Red. masses --      1.2944                 1.0934                 2.4723
 Frc consts  --      0.0732                 0.0655                 0.2430
 IR Inten    --     18.0009               129.6986                 5.2021

                      7                      8                      9
                      A                      A                      A
 Frequencies --    435.2009               525.3283               847.8055
 Red. masses --      2.7986                 5.1036                 4.5411
 Frc consts  --      0.3123                 0.8298                 1.9231
 IR Inten    --      8.9690                 3.6257                28.4327

                     10                     11                     12
                      A                      A                      A
 Frequencies --    967.6968              1022.2796              1111.9066
 Red. masses --      3.7185                 1.4254                 4.2957
 Frc consts  --      2.0516                 0.8777                 3.1291
 IR Inten    --     22.9925                69.3729               101.1418

                     13                     14                     15
                      A                      A                      A
 Frequencies --   1122.0882              1141.9984              1235.5937
 Red. masses --      2.2710                 1.3223                 3.1220
 Frc consts  --      1.6847                 1.0160                 2.8082
 IR Inten    --      7.7940                 8.0476                15.5930

                     16                     17                     18
                      A                      A                      A
 Frequencies --   1255.5588              1372.3729              1394.0204
 Red. masses --      1.1649                 1.2840                 1.2141
 Frc consts  --      1.0819                 1.4248                 1.3901
 IR Inten    --     52.3694                16.2435                34.7803

                     19                     20                     21
                      A                      A                      A
 Frequencies --   1412.0966              1440.9992              1487.0208
 Red. masses --      1.1662                 1.2327                 1.0491
 Frc consts  --      1.3701                 1.5081                 1.3668
 IR Inten    --     17.3120                 5.4883                 8.1992

                     22                     23                     24
                      A                      A                      A
 Frequencies --   1497.0562              1515.1435              2934.4325
 Red. masses --      1.0560                 1.0872                 1.0710
 Frc consts  --      1.3944                 1.4706                 5.4334
 IR Inten    --      3.2245                 2.0514                68.1538

                     25                     26                     27
                      A                      A                      A
 Frequencies --   2963.4362              3089.2568              3094.0073
 Red. masses --      1.0546                 1.0774                 1.0922
 Frc consts  --      5.4567                 6.0583                 6.1604
 IR Inten    --     62.9948                24.4618                30.4070

                     28                     29                     30
                      A                      A                      A
 Frequencies --   3130.7713              3803.1720              3840.8599
 Red. masses --      1.1026                 1.0682                 1.0666
 Frc consts  --      6.3673                 9.1029                 9.2708
 IR Inten    --     17.0601                43.9366                25.4069

 - Thermochemistry -
 -------------------
 Temperature   298.150 Kelvin.  Pressure   1.00000 Atm.
 Atom     1 has atomic number  6 and mass  12.00000

 Molecular mass:    77.04768 amu.
 Principal axes and moments of inertia in atomic units:
                           1         2         3
     Eigenvalues --   207.73002 470.40740 624.25506
           X            0.99959   0.01839  -0.02187
           Y           -0.01792   0.99961   0.02144
           Z            0.02226  -0.02104   0.99953
 This molecule is an asymmetric top.
 Rotational symmetry number  1.
 Rotational temperatures (Kelvin)      0.41695     0.18413     0.13875
 Rotational constants (GHZ):           8.68792     3.83655     2.89103
 Zero-point vibrational energy     265114.3 (Joules/Mol)
                                   63.36384 (Kcal/Mol)
 Warning -- explicit consideration of   8 degrees of freedom as
           vibrations may cause significant error
 Vibrational temperatures:    179.29   343.52   407.06   445.79   458.91
          (Kelvin)            587.68   626.16   755.83  1219.80  1392.30
                             1470.83  1599.78  1614.43  1643.08  1777.74
                             1806.47  1974.54  2005.68  2031.69  2073.27
                             2139.49  2153.93  2179.95  4221.99  4263.72
                             4444.75  4451.58  4504.48  5471.91  5526.13

 Zero-point correction=                           0.100977 (Hartree/Particle)
 Thermal correction to Energy=                    0.107312
 Thermal correction to Enthalpy=                  0.108256
 Thermal correction to Gibbs Free Energy=         0.071829
 Sum of electronic and zero-point Energies=           -285.470251
 Sum of electronic and thermal Energies=              -285.463915
 Sum of electronic and thermal Enthalpies=            -285.462971
 Sum of electronic and thermal Free Energies=         -285.499399

                     E (Thermal)             CV                S
                      KCal/Mol        Cal/Mol-Kelvin    Cal/Mol-Kelvin
 Total                   67.339             21.826             76.669
 Electronic               0.000              0.000              0.000
 Translational            0.889              2.981             38.941
 Rotational               0.889              2.981             25.615
 Vibrational             65.562             15.864             12.113
 Vibration     1          0.610              1.928              3.028
 Vibration     2          0.657              1.781              1.812
 Vibration     3          0.682              1.705              1.516
 Vibration     4          0.699              1.655              1.363
 Vibration     5          0.705              1.637              1.315
 Vibration     6          0.773              1.452              0.932
 Vibration     7          0.796              1.393              0.842
 Vibration     8          0.880              1.194              0.598

 Optimization completed.
    -- Stationary point found.
 Normal termination of Gaussian 09 at Sun Aug 21 16:15:08 2022.

 -----------------------------------------------------------------
 #P Geom=AllCheck Guess=TCheck SCRF=Check CCSD(T,E4T,FrzG4)/GTBas1
 -----------------------------------------------------------------

 Structure from the checkpoint file:  "G4.Frag_912.chk"
 --------
 Frag_912
 --------
 Charge =  0 Multiplicity = 1

 SCF Done:  E(RHF) =  -283.892240039     A.U. after   13 cycles
 E2 =    -0.7854657511D+00 EUMP2 =    -0.28467770579009D+03
 CCSD(T)
 CCSD(T)= -0.28474068706D+03
 284.719175\CCSD(T)=-284.7406871\RMSD=2.313e-09\PG=C01 [X(C2H7N1O2)]\\@
 Normal termination of Gaussian 09 at Sun Aug 21 16:17:12 2022.

 ---------------------------------------------------------
 #P Geom=AllCheck Guess=TCheck SCRF=Check MP4=FrzG4/GTBas2
 ---------------------------------------------------------

 Structure from the checkpoint file:  "G4.Frag_912.chk"
 --------
 Frag_912
 --------
 Charge =  0 Multiplicity = 1

 SCF Done:  E(RHF) =  -283.902665222     A.U. after   12 cycles
 E2 =    -0.8003824481D+00 EUMP2 =    -0.28470304767036D+03
 Normal termination of Gaussian 09 at Sun Aug 21 16:19:46 2022.

 ---------------------------------------------------------
 #P Geom=AllCheck Guess=TCheck SCRF=Check MP4=FrzG4/GTBas3
 ---------------------------------------------------------

 Structure from the checkpoint file:  "G4.Frag_912.chk"
 --------
 Frag_912
 --------
 Charge =  0 Multiplicity = 1

 SCF Done:  E(RHF) =  -283.931225109     A.U. after   12 cycles
 E2 =    -0.9755723349D+00 EUMP2 =    -0.28490679744427D+03
 Normal termination of Gaussian 09 at Sun Aug 21 17:08:30 2022.

 -----------------------------------------------------------
 #P Geom=AllCheck Guess=TCheck SCRF=Check MP2=Full/GTLargeXP
 -----------------------------------------------------------

 Structure from the checkpoint file:  "G4.Frag_912.chk"
 --------
 Frag_912
 --------
 Charge =  0 Multiplicity = 1

 SCF Done:  E(RHF) =  -284.011866655     A.U. after   12 cycles
 E2 =    -0.1270414293D+01 EUMP2 =    -0.28528228094822D+03
 Normal termination of Gaussian 09 at Sun Aug 21 17:11:18 2022.
 SCF Done:  E(RHF) =  -284.035243111     A.U. after    9 cycles
 Normal termination of Gaussian 09 at Sun Aug 21 17:14:39 2022.

                         Standard orientation:
 ---------------------------------------------------------------------
 Center     Atomic      Atomic             Coordinates (Angstroms)
 Number     Number       Type             X           Y           Z
 ---------------------------------------------------------------------
      1          6           0        0.631834    1.350898    0.078049
      2          7           0        0.440378   -0.015139   -0.387530
      3          8           0        1.555957   -0.777369    0.121931
      4          6           0       -0.735673   -0.648842    0.224966
      5          8           0       -1.922208   -0.028504   -0.194133
      6          1           0        0.714106    1.419324    1.176424
      7          1           0        1.543365    1.755258   -0.366772
      8          1           0       -0.214926    1.951866   -0.264809
      9          1           0        1.943619   -1.143666   -0.680523
     10          1           0       -0.642036   -0.653368    1.326633
     11          1           0       -0.755346   -1.683608   -0.126177
     12          1           0       -2.118382    0.694819    0.407462
 ---------------------------------------------------------------------

 SCF Done:  E(RHF) =  -284.040433956     A.U. after    8 cycles

 The electronic state is 1-A.
 Alpha  occ. eigenvalues --  -20.58704 -20.56964 -15.61082 -11.30834 -11.25106
 Alpha  occ. eigenvalues --   -1.41123  -1.37563  -1.13886  -0.95701  -0.83611
 Alpha  occ. eigenvalues --   -0.72977  -0.69508  -0.65607  -0.65160  -0.58014
 Alpha  occ. eigenvalues --   -0.57133  -0.54603  -0.51667  -0.50406  -0.46052
 Alpha  occ. eigenvalues --   -0.39268
 Alpha virt. eigenvalues --    0.03853   0.04458   0.05177   0.05486   0.06999
 Alpha virt. eigenvalues --    0.07455   0.07810   0.09736   0.11165   0.13273
 Alpha virt. eigenvalues --    0.14036   0.15163   0.15327   0.15700   0.16808

 Mulliken charges:
               1
     1  C   -0.461582
     2  N    0.045436
     3  O   -0.575358
     4  C   -0.027744
     5  O   -0.566606
     6  H    0.161400
     7  H    0.170831
     8  H    0.182582
     9  H    0.403161
    10  H    0.140759
    11  H    0.159768
    12  H    0.367352
 Sum of Mulliken charges =  -0.00000

 Dipole moment (field-independent basis, Debye):
    X=              0.3523    Y=              0.9073    Z=              0.8043  Tot=              1.2626
 Quadrupole moment (field-independent basis, Debye-Ang):
   XX=            -32.5035   YY=            -27.5404   ZZ=            -31.7060
   XY=             -2.2693   XZ=             -5.8230   YZ=              2.3887

 Normal termination of Gaussian 09 at Sun Aug 21 18:44:50 2022.
