 Gaussian 09, Revision E.01,
 Gaussian 09:  ES64L-G09RevE.01 30-Nov-2015

 -----
 #P G4
 -----

 --------
 Frag_500
 --------
 Symbolic Z-matrix:
 Charge =  0 Multiplicity = 1

 SCF Done:  E(RB3LYP) =  -382.935759444     A.U. after   14 cycles
 SCF Done:  E(RB3LYP) =  -382.955186886     A.U. after   13 cycles
 SCF Done:  E(RB3LYP) =  -382.957901059     A.U. after   12 cycles
 SCF Done:  E(RB3LYP) =  -382.958172936     A.U. after   11 cycles
 SCF Done:  E(RB3LYP) =  -382.958747191     A.U. after   12 cycles
 SCF Done:  E(RB3LYP) =  -382.959161989     A.U. after   11 cycles
 SCF Done:  E(RB3LYP) =  -382.959304154     A.U. after   11 cycles
 SCF Done:  E(RB3LYP) =  -382.959340522     A.U. after   10 cycles
 SCF Done:  E(RB3LYP) =  -382.959354198     A.U. after    9 cycles
 SCF Done:  E(RB3LYP) =  -382.959376730     A.U. after   10 cycles
 SCF Done:  E(RB3LYP) =  -382.959942038     A.U. after    8 cycles
 SCF Done:  E(RB3LYP) =  -382.959942880     A.U. after    8 cycles
 SCF Done:  E(RB3LYP) =  -382.959942757     A.U. after    7 cycles
 Optimization completed.
    -- Stationary point found.
 Normal termination of Gaussian 09 at Tue Aug 23 20:57:27 2022.

 ----------------------------------------------------------
 #P Geom=AllCheck Guess=TCheck SCRF=Check B3LYP/GTBas3 Freq
 ----------------------------------------------------------

 Structure from the checkpoint file:  "G4.Frag_500.chk"
 --------
 Frag_500
 --------
 Charge =  0 Multiplicity = 1

 SCF Done:  E(RB3LYP) =  -382.959942757     A.U. after    1 cycles

  Exact polarizability:  53.834  -0.273  55.113  -0.432  -0.631  48.946
 Approx polarizability:  74.044   2.982  88.595  -0.679  -1.640  67.011

                      1                      2                      3
                      A                      A                      A
 Frequencies --     59.9620               215.4820               239.8740
 Red. masses --      5.3918                 1.2712                 2.0198
 Frc consts  --      0.0114                 0.0348                 0.0685
 IR Inten    --      4.3148                 2.0156                 3.3546

                      4                      5                      6
                      A                      A                      A
 Frequencies --    253.0857               290.8176               335.1644
 Red. masses --      1.2174                 2.3908                 1.6454
 Frc consts  --      0.0459                 0.1191                 0.1089
 IR Inten    --      3.9121                 7.7792                34.0692

                      7                      8                      9
                      A                      A                      A
 Frequencies --    337.1625               385.3785               423.8935
 Red. masses --      1.7934                 3.1761                 2.9740
 Frc consts  --      0.1201                 0.2779                 0.3149
 IR Inten    --     57.9838                 1.0198                10.7268

                     10                     11                     12
                      A                      A                      A
 Frequencies --    536.2297               584.0139               749.1948
 Red. masses --      5.4738                 3.5394                 5.8190
 Frc consts  --      0.9274                 0.7113                 1.9244
 IR Inten    --      0.3554                 3.5318                16.3553

                     13                     14                     15
                      A                      A                      A
 Frequencies --    763.5062               803.1099               871.1310
 Red. masses --      6.0130                 1.1043                 2.7066
 Frc consts  --      2.0652                 0.4197                 1.2102
 IR Inten    --     10.4045                55.2716                 3.8859

                     16                     17                     18
                      A                      A                      A
 Frequencies --    945.5303               977.9767              1019.5248
 Red. masses --      1.4907                 2.1868                 1.3211
 Frc consts  --      0.7852                 1.2323                 0.8091
 IR Inten    --      2.1621                34.1555                 6.0122

                     19                     20                     21
                      A                      A                      A
 Frequencies --   1116.1806              1171.7479              1218.5077
 Red. masses --      1.7400                 2.9790                 2.7889
 Frc consts  --      1.2772                 2.4099                 2.4397
 IR Inten    --     42.8057                28.8339                66.5563

                     22                     23                     24
                      A                      A                      A
 Frequencies --   1255.4159              1352.1031              1394.7292
 Red. masses --      2.3051                 1.6159                 1.3071
 Frc consts  --      2.1405                 1.7405                 1.4981
 IR Inten    --     17.4206                35.0528                18.2982

                     25                     26                     27
                      A                      A                      A
 Frequencies --   1400.0618              1414.3586              1478.6631
 Red. masses --      1.5699                 1.3080                 1.0484
 Frc consts  --      1.8130                 1.5416                 1.3506
 IR Inten    --    279.2936               111.3951                 0.3406

                     28                     29                     30
                      A                      A                      A
 Frequencies --   1483.2736              1497.0233              1506.5667
 Red. masses --      1.0514                 1.0610                 1.0630
 Frc consts  --      1.3629                 1.4010                 1.4215
 IR Inten    --      2.5319                 9.0976                10.5577

                     31                     32                     33
                      A                      A                      A
 Frequencies --   1866.9678              3032.0091              3048.8786
 Red. masses --      9.8465                 1.0407                 1.0346
 Frc consts  --     20.2211                 5.6368                 5.6665
 IR Inten    --    219.9485                18.2949                 9.1999

                     34                     35                     36
                      A                      A                      A
 Frequencies --   3103.0599              3122.1628              3140.7776
 Red. masses --      1.0975                 1.1026                 1.1021
 Frc consts  --      6.2264                 6.3326                 6.4053
 IR Inten    --     19.3915                17.3608                 3.9822

                     37                     38                     39
                      A                      A                      A
 Frequencies --   3148.0372              3617.6169              3812.3253
 Red. masses --      1.0999                 1.0640                 1.0663
 Frc consts  --      6.4220                 8.2040                 9.1309
 IR Inten    --      8.4045               139.5592                28.8704

 - Thermochemistry -
 -------------------
 Temperature   298.150 Kelvin.  Pressure   1.00000 Atm.
 Atom     1 has atomic number  6 and mass  12.00000

 Molecular mass:   104.04734 amu.
 Principal axes and moments of inertia in atomic units:
                           1         2         3
     Eigenvalues --   534.87359 744.60676 884.32635
           X            0.99581  -0.09136  -0.00297
           Y            0.09137   0.99581   0.00452
           Z            0.00255  -0.00477   0.99999
 This molecule is an asymmetric top.
 Rotational symmetry number  1.
 Warning -- assumption of classical behavior for rotation
           may cause significant error
 Rotational temperatures (Kelvin)      0.16193     0.11632     0.09794
 Rotational constants (GHZ):           3.37415     2.42375     2.04081
 Zero-point vibrational energy     322821.3 (Joules/Mol)
                                   77.15614 (Kcal/Mol)
 Warning -- explicit consideration of  11 degrees of freedom as
           vibrations may cause significant error
 Vibrational temperatures:     86.27   310.03   345.12   364.13   418.42
          (Kelvin)            482.23   485.10   554.47   609.89   771.51
                              840.26  1077.92  1098.51  1155.49  1253.36
                             1360.41  1407.09  1466.87  1605.93  1685.88
                             1753.16  1806.26  1945.37  2006.70  2014.37
                             2034.94  2127.46  2134.10  2153.88  2167.61
                             2686.15  4362.38  4386.65  4464.61  4492.09
                             4518.87  4529.32  5204.94  5485.08

 Zero-point correction=                           0.122956 (Hartree/Particle)
 Thermal correction to Energy=                    0.130852
 Thermal correction to Enthalpy=                  0.131796
 Thermal correction to Gibbs Free Energy=         0.091172
 Sum of electronic and zero-point Energies=           -382.836987
 Sum of electronic and thermal Energies=              -382.829091
 Sum of electronic and thermal Enthalpies=            -382.828147
 Sum of electronic and thermal Free Energies=         -382.868771

                     E (Thermal)             CV                S
                      KCal/Mol        Cal/Mol-Kelvin    Cal/Mol-Kelvin
 Total                   82.111             28.802             85.500
 Electronic               0.000              0.000              0.000
 Translational            0.889              2.981             39.836
 Rotational               0.889              2.981             27.357
 Vibrational             80.333             22.840             18.307
 Vibration     1          0.597              1.973              4.458
 Vibration     2          0.645              1.817              1.997
 Vibration     3          0.657              1.779              1.804
 Vibration     4          0.664              1.758              1.709
 Vibration     5          0.687              1.691              1.469
 Vibration     6          0.716              1.605              1.235
 Vibration     7          0.718              1.601              1.226
 Vibration     8          0.754              1.501              1.018
 Vibration     9          0.786              1.418              0.879
 Vibration    10          0.891              1.170              0.573
 Vibration    11          0.941              1.066              0.478

 Optimization completed.
    -- Stationary point found.
 Normal termination of Gaussian 09 at Tue Aug 23 21:01:23 2022.

 -----------------------------------------------------------------
 #P Geom=AllCheck Guess=TCheck SCRF=Check CCSD(T,E4T,FrzG4)/GTBas1
 -----------------------------------------------------------------

 Structure from the checkpoint file:  "G4.Frag_500.chk"
 --------
 Frag_500
 --------
 Charge =  0 Multiplicity = 1

 SCF Done:  E(RHF) =  -380.725272177     A.U. after   13 cycles
 E2 =    -0.1056388001D+01 EUMP2 =    -0.38178166017776D+03
 CCSD(T)
 CCSD(T)= -0.38185889040D+03
 81.8258534\CCSD(T)=-381.8588904\RMSD=5.187e-09\PG=C01 [X(C4H8O3)]\\@
 Normal termination of Gaussian 09 at Tue Aug 23 21:15:04 2022.

 ---------------------------------------------------------
 #P Geom=AllCheck Guess=TCheck SCRF=Check MP4=FrzG4/GTBas2
 ---------------------------------------------------------

 Structure from the checkpoint file:  "G4.Frag_500.chk"
 --------
 Frag_500
 --------
 Charge =  0 Multiplicity = 1

 SCF Done:  E(RHF) =  -380.736657877     A.U. after   12 cycles
 E2 =    -0.1073261965D+01 EUMP2 =    -0.38180991984149D+03
 Normal termination of Gaussian 09 at Tue Aug 23 21:33:01 2022.

 ---------------------------------------------------------
 #P Geom=AllCheck Guess=TCheck SCRF=Check MP4=FrzG4/GTBas3
 ---------------------------------------------------------

 Structure from the checkpoint file:  "G4.Frag_500.chk"
 --------
 Frag_500
 --------
 Charge =  0 Multiplicity = 1

 SCF Done:  E(RHF) =  -380.774419122     A.U. after   12 cycles
 E2 =    -0.1304691486D+01 EUMP2 =    -0.38207911060747D+03
 Normal termination of Gaussian 09 at Wed Aug 24 01:30:06 2022.

 -----------------------------------------------------------
 #P Geom=AllCheck Guess=TCheck SCRF=Check MP2=Full/GTLargeXP
 -----------------------------------------------------------

 Structure from the checkpoint file:  "G4.Frag_500.chk"
 --------
 Frag_500
 --------
 Charge =  0 Multiplicity = 1

 SCF Done:  E(RHF) =  -380.876623515     A.U. after   12 cycles
 E2 =    -0.1705119135D+01 EUMP2 =    -0.38258174264951D+03
 Normal termination of Gaussian 09 at Wed Aug 24 01:40:18 2022.
 SCF Done:  E(RHF) =  -380.907041922     A.U. after    9 cycles
 Normal termination of Gaussian 09 at Wed Aug 24 01:49:26 2022.

                         Standard orientation:
 ---------------------------------------------------------------------
 Center     Atomic      Atomic             Coordinates (Angstroms)
 Number     Number       Type             X           Y           Z
 ---------------------------------------------------------------------
      1          6           0       -1.062934    0.261051   -1.415304
      2          6           0       -0.554779   -0.039185   -0.001636
      3          6           0       -1.223674    0.846741    1.048186
      4          8           0       -0.819224   -1.435439    0.244699
      5          6           0        0.976546    0.196791    0.018052
      6          8           0        1.469902    1.291866   -0.014891
      7          8           0        1.703442   -0.930398    0.044808
      8          1           0       -0.621236   -0.434712   -2.134284
      9          1           0       -0.789973    1.278744   -1.702054
     10          1           0       -2.150071    0.151292   -1.451540
     11          1           0       -0.945344    1.888921    0.883877
     12          1           0       -2.311604    0.748700    0.991965
     13          1           0       -0.895607    0.575036    2.058893
     14          1           0       -0.985896   -1.549088    1.186774
     15          1           0        1.055809   -1.659511    0.073646
 ---------------------------------------------------------------------

 SCF Done:  E(RHF) =  -380.913635519     A.U. after    8 cycles

 The electronic state is 1-A.
 Alpha  occ. eigenvalues --  -20.60443 -20.59714 -20.54082 -11.38011 -11.32685
 Alpha  occ. eigenvalues --  -11.24427 -11.23732  -1.46369  -1.39953  -1.36331
 Alpha  occ. eigenvalues --   -1.08267  -0.96831  -0.88545  -0.80988  -0.75395
 Alpha  occ. eigenvalues --   -0.69958  -0.66479  -0.64248  -0.62131  -0.61372
 Alpha  occ. eigenvalues --   -0.56913  -0.56587  -0.54949  -0.53818  -0.52854
 Alpha  occ. eigenvalues --   -0.50899  -0.47380  -0.43098
 Alpha virt. eigenvalues --    0.02893   0.03835   0.04289   0.05045   0.06398
 Alpha virt. eigenvalues --    0.06828   0.07160   0.07298   0.07457   0.09805
 Alpha virt. eigenvalues --    0.10256   0.10475   0.10935   0.13325   0.14105

 Mulliken charges:
               1
     1  C   -0.552937
     2  C    0.351575
     3  C   -0.597949
     4  O   -0.627466
     5  C    0.553024
     6  O   -0.539487
     7  O   -0.552576
     8  H    0.186044
     9  H    0.207776
    10  H    0.176925
    11  H    0.226222
    12  H    0.184326
    13  H    0.175097
    14  H    0.388881
    15  H    0.420544
 Sum of Mulliken charges =  -0.00000

 Dipole moment (field-independent basis, Debye):
    X=             -3.8450    Y=             -1.6718    Z=              1.1860  Tot=              4.3573
 Quadrupole moment (field-independent basis, Debye-Ang):
   XX=            -49.0131   YY=            -44.4458   ZZ=            -38.1682
   XY=             -4.4672   XZ=             -1.3556   YZ=             -2.1538

 Normal termination of Gaussian 09 at Wed Aug 24 05:56:57 2022.
