 Gaussian 09, Revision E.01,
 Gaussian 09:  ES64L-G09RevE.01 30-Nov-2015

 -----
 #P G4
 -----

 ---------
 Frag_1062
 ---------
 Symbolic Z-matrix:
 Charge =  0 Multiplicity = 1

 SCF Done:  E(RB3LYP) =  -244.564996975     A.U. after   16 cycles
 SCF Done:  E(RB3LYP) =  -244.587286734     A.U. after   13 cycles
 SCF Done:  E(RB3LYP) =  -244.589570300     A.U. after   12 cycles
 SCF Done:  E(RB3LYP) =  -244.589668782     A.U. after   11 cycles
 SCF Done:  E(RB3LYP) =  -244.589721449     A.U. after   11 cycles
 SCF Done:  E(RB3LYP) =  -244.589735743     A.U. after    8 cycles
 SCF Done:  E(RB3LYP) =  -244.589738667     A.U. after    8 cycles
 SCF Done:  E(RB3LYP) =  -244.589738583     A.U. after    8 cycles
 Optimization completed.
    -- Stationary point found.
 Normal termination of Gaussian 09 at Fri Aug 26 11:31:13 2022.

 ----------------------------------------------------------
 #P Geom=AllCheck Guess=TCheck SCRF=Check B3LYP/GTBas3 Freq
 ----------------------------------------------------------

 Structure from the checkpoint file:  "G4.Frag_1062.chk"
 ---------
 Frag_1062
 ---------
 Charge =  0 Multiplicity = 1

 SCF Done:  E(RB3LYP) =  -244.589738583     A.U. after    1 cycles

  Exact polarizability:  65.027   4.085  44.816  -0.006  -0.002  31.262
 Approx polarizability:  98.909   9.948  66.200  -0.017  -0.003  46.988

                      1                      2                      3
                      A                      A                      A
 Frequencies --     51.9435               168.6041               218.9341
 Red. masses --      1.7277                 1.4544                 1.1196
 Frc consts  --      0.0027                 0.0244                 0.0316
 IR Inten    --      8.1480                 7.8644                 4.9528

                      4                      5                      6
                      A                      A                      A
 Frequencies --    340.0182               500.1548               550.3446
 Red. masses --      2.8574                 2.7806                 3.9290
 Frc consts  --      0.1946                 0.4098                 0.7011
 IR Inten    --     12.5470                 2.6506                20.0159

                      7                      8                      9
                      A                      A                      A
 Frequencies --    555.5787               727.7247               748.2303
 Red. masses --      2.5922                 1.1310                 5.4861
 Frc consts  --      0.4714                 0.3529                 1.8096
 IR Inten    --     15.5195                41.2973                11.7396

                     10                     11                     12
                      A                      A                      A
 Frequencies --    880.0696               996.3239              1035.4227
 Red. masses --      7.0826                 1.4000                 1.5784
 Frc consts  --      3.2321                 0.8188                 0.9970
 IR Inten    --      8.9269                23.4017                11.0381

                     13                     14                     15
                      A                      A                      A
 Frequencies --   1047.0417              1098.5295              1179.2076
 Red. masses --      1.2740                 1.4099                 1.5252
 Frc consts  --      0.8229                 1.0025                 1.2496
 IR Inten    --      4.1627                22.9924               213.6913

                     16                     17                     18
                      A                      A                      A
 Frequencies --   1378.1946              1412.9951              1475.9255
 Red. masses --      1.3009                 2.2232                 1.1159
 Frc consts  --      1.4558                 2.6153                 1.4323
 IR Inten    --      5.0901                57.3584                29.2682

                     19                     20                     21
                      A                      A                      A
 Frequencies --   1482.7706              1495.0093              1638.2854
 Red. masses --      1.2694                 1.0464                 1.0582
 Frc consts  --      1.6443                 1.3779                 1.6734
 IR Inten    --      3.1000                 3.0022                34.4946

                     22                     23                     24
                      A                      A                      A
 Frequencies --   1645.6634              1658.1441              2987.9783
 Red. masses --      1.1940                 3.5389                 1.0433
 Frc consts  --      1.9051                 5.7327                 5.4882
 IR Inten    --    183.9804               158.2903                32.1259

                     25                     26                     27
                      A                      A                      A
 Frequencies --   3034.5928              3130.5229              3235.5511
 Red. masses --      1.0986                 1.0933                 1.0340
 Frc consts  --      5.9607                 6.3126                 6.3777
 IR Inten    --     36.8058                11.8720                78.9778

                     28                     29                     30
                      A                      A                      A
 Frequencies --   3256.0578              3492.5233              3524.3225
 Red. masses --      1.0949                 1.0748                 1.0796
 Frc consts  --      6.8395                 7.7244                 7.9007
 IR Inten    --      0.8620                 3.4832                65.8127

 - Thermochemistry -
 -------------------
 Temperature   298.150 Kelvin.  Pressure   1.00000 Atm.
 Atom     1 has atomic number  6 and mass  12.00000

 Molecular mass:    73.06400 amu.
 Principal axes and moments of inertia in atomic units:
                           1         2         3
     Eigenvalues --   202.20683 429.50700 610.63682
           X            0.99960  -0.02811  -0.00000
           Y            0.02811   0.99960  -0.00001
           Z            0.00000   0.00001   1.00000
 This molecule is an asymmetric top.
 Rotational symmetry number  1.
 Rotational temperatures (Kelvin)      0.42834     0.20166     0.14184
 Rotational constants (GHZ):           8.92522     4.20189     2.95551
 Zero-point vibrational energy     268840.8 (Joules/Mol)
                                   64.25448 (Kcal/Mol)
 Warning -- explicit consideration of   7 degrees of freedom as
           vibrations may cause significant error
 Vibrational temperatures:     74.74   242.58   315.00   489.21   719.61
          (Kelvin)            791.82   799.35  1047.03  1076.54  1266.22
                             1433.49  1489.74  1506.46  1580.54  1696.61
                             1982.91  2032.98  2123.52  2133.37  2150.98
                             2357.12  2367.74  2385.70  4299.03  4366.10
                             4504.12  4655.23  4684.74  5024.96  5070.71

 Zero-point correction=                           0.102396 (Hartree/Particle)
 Thermal correction to Energy=                    0.108612
 Thermal correction to Enthalpy=                  0.109556
 Thermal correction to Gibbs Free Energy=         0.072734
 Sum of electronic and zero-point Energies=           -244.487343
 Sum of electronic and thermal Energies=              -244.481127
 Sum of electronic and thermal Enthalpies=            -244.480182
 Sum of electronic and thermal Free Energies=         -244.517005

                     E (Thermal)             CV                S
                      KCal/Mol        Cal/Mol-Kelvin    Cal/Mol-Kelvin
 Total                   68.155             20.924             77.499
 Electronic               0.000              0.000              0.000
 Translational            0.889              2.981             38.783
 Rotational               0.889              2.981             25.476
 Vibrational             66.378             14.963             13.241
 Vibration     1          0.596              1.977              4.742
 Vibration     2          0.625              1.881              2.451
 Vibration     3          0.647              1.812              1.968
 Vibration     4          0.720              1.596              1.212
 Vibration     5          0.856              1.250              0.658
 Vibration     6          0.906              1.139              0.543
 Vibration     7          0.911              1.127              0.533

 Optimization completed.
    -- Stationary point found.
 Normal termination of Gaussian 09 at Fri Aug 26 11:31:34 2022.

 -----------------------------------------------------------------
 #P Geom=AllCheck Guess=TCheck SCRF=Check CCSD(T,E4T,FrzG4)/GTBas1
 -----------------------------------------------------------------

 Structure from the checkpoint file:  "G4.Frag_1062.chk"
 ---------
 Frag_1062
 ---------
 Charge =  0 Multiplicity = 1

 SCF Done:  E(RHF) =  -243.026171878     A.U. after   13 cycles
 E2 =    -0.7514030279D+00 EUMP2 =    -0.24377757490592D+03
 CCSD(T)
 CCSD(T)= -0.24384578486D+03
 \CCSD=-243.8194949\CCSD(T)=-243.8457849\RMSD=7.758e-09\PG=C01 [X(C2H7N
 Normal termination of Gaussian 09 at Fri Aug 26 11:32:31 2022.

 ---------------------------------------------------------
 #P Geom=AllCheck Guess=TCheck SCRF=Check MP4=FrzG4/GTBas2
 ---------------------------------------------------------

 Structure from the checkpoint file:  "G4.Frag_1062.chk"
 ---------
 Frag_1062
 ---------
 Charge =  0 Multiplicity = 1

 SCF Done:  E(RHF) =  -243.038601048     A.U. after   13 cycles
 E2 =    -0.7638679178D+00 EUMP2 =    -0.24380246896599D+03
 Normal termination of Gaussian 09 at Fri Aug 26 11:32:47 2022.

 ---------------------------------------------------------
 #P Geom=AllCheck Guess=TCheck SCRF=Check MP4=FrzG4/GTBas3
 ---------------------------------------------------------

 Structure from the checkpoint file:  "G4.Frag_1062.chk"
 ---------
 Frag_1062
 ---------
 Charge =  0 Multiplicity = 1

 SCF Done:  E(RHF) =  -243.062789708     A.U. after   12 cycles
 E2 =    -0.9122102883D+00 EUMP2 =    -0.24397499999683D+03
 Normal termination of Gaussian 09 at Fri Aug 26 11:34:13 2022.

 -----------------------------------------------------------
 #P Geom=AllCheck Guess=TCheck SCRF=Check MP2=Full/GTLargeXP
 -----------------------------------------------------------

 Structure from the checkpoint file:  "G4.Frag_1062.chk"
 ---------
 Frag_1062
 ---------
 Charge =  0 Multiplicity = 1

 SCF Done:  E(RHF) =  -243.130628281     A.U. after   13 cycles
 E2 =    -0.1191659931D+01 EUMP2 =    -0.24432228821199D+03
 Normal termination of Gaussian 09 at Fri Aug 26 11:35:06 2022.
 SCF Done:  E(RHF) =  -243.149108027     A.U. after    9 cycles
 Normal termination of Gaussian 09 at Fri Aug 26 11:36:09 2022.

                         Standard orientation:
 ---------------------------------------------------------------------
 Center     Atomic      Atomic             Coordinates (Angstroms)
 Number     Number       Type             X           Y           Z
 ---------------------------------------------------------------------
      1          6           0       -0.518682    1.350326   -0.000120
      2          6           0       -0.582909   -0.182592   -0.000729
      3          7           0       -1.701483   -0.826535    0.000439
      4          7           0        0.577818   -0.916000   -0.000561
      5          7           0        1.749267   -0.049629    0.000383
      6          1           0       -1.526834    1.766338    0.000683
      7          1           0       -0.005101    1.755024    0.884512
      8          1           0       -0.006228    1.755751   -0.885067
      9          1           0       -2.479067   -0.170312    0.001298
     10          1           0        1.854715    0.562812   -0.824666
     11          1           0        2.538863   -0.692965    0.000457
     12          1           0        1.853982    0.562097    0.826058
 ---------------------------------------------------------------------

 SCF Done:  E(RHF) =  -243.153294266     A.U. after    8 cycles

 The electronic state is 1-A.
 Alpha  occ. eigenvalues --  -15.71263 -15.52749 -15.47427 -11.27949 -11.23999
 Alpha  occ. eigenvalues --   -1.34100  -1.17776  -1.03930  -0.97580  -0.78904
 Alpha  occ. eigenvalues --   -0.76688  -0.72167  -0.63522  -0.58758  -0.58327
 Alpha  occ. eigenvalues --   -0.56334  -0.45166  -0.43032  -0.36964  -0.29819
 Alpha virt. eigenvalues --    0.01189   0.03337   0.04961   0.05704   0.07526
 Alpha virt. eigenvalues --    0.07545   0.07708   0.08631   0.09244   0.10286
 Alpha virt. eigenvalues --    0.13220   0.14021   0.15029   0.15347   0.15609

 Mulliken charges:
               1
     1  C   -0.574239
     2  C    0.382672
     3  N   -0.726091
     4  N   -0.481519
     5  N   -0.448667
     6  H    0.191403
     7  H    0.166034
     8  H    0.166131
     9  H    0.250274
    10  H    0.349541
    11  H    0.374955
    12  H    0.349506
 Sum of Mulliken charges =  -0.00000

 Dipole moment (field-independent basis, Debye):
    X=              6.4779    Y=              5.9582    Z=              0.0030  Tot=              8.8013
 Quadrupole moment (field-independent basis, Debye-Ang):
   XX=            -21.7917   YY=            -37.9585   ZZ=            -31.8096
   XY=             -3.8965   XZ=              0.0026   YZ=             -0.0009

 Normal termination of Gaussian 09 at Fri Aug 26 11:42:27 2022.
