 Gaussian 09, Revision E.01,
 Gaussian 09:  ES64L-G09RevE.01 30-Nov-2015

 -----
 #P G4
 -----

 --------
 Frag_819
 --------
 Symbolic Z-matrix:
 Charge =  0 Multiplicity = 1

 SCF Done:  E(RB3LYP) =  -264.985511319     A.U. after   13 cycles
 SCF Done:  E(RB3LYP) =  -265.019194594     A.U. after   11 cycles
 SCF Done:  E(RB3LYP) =  -265.025192862     A.U. after   11 cycles
 SCF Done:  E(RB3LYP) =  -265.025333356     A.U. after    8 cycles
 SCF Done:  E(RB3LYP) =  -265.025337154     A.U. after    8 cycles
 Optimization completed.
    -- Stationary point found.
 Normal termination of Gaussian 09 at Fri Aug 26 15:13:06 2022.

 ----------------------------------------------------------
 #P Geom=AllCheck Guess=TCheck SCRF=Check B3LYP/GTBas3 Freq
 ----------------------------------------------------------

 Structure from the checkpoint file:  "G4.Frag_819.chk"
 --------
 Frag_819
 --------
 Charge =  0 Multiplicity = 1

 SCF Done:  E(RB3LYP) =  -265.025337154     A.U. after    1 cycles

  Exact polarizability:  26.252  -0.000  23.064   0.000  -0.000  13.445
 Approx polarizability:  35.006  -0.000  39.490   0.000  -0.002  19.002

                      1                      2                      3
                      A                      A                      A
 Frequencies --    533.0723               545.9397               598.4617
 Red. masses --      1.1774                 4.7637                 4.8289
 Frc consts  --      0.1971                 0.8365                 1.0190
 IR Inten    --      0.0000                 6.8998                49.2605

                      4                      5                      6
                      A                      A                      A
 Frequencies --    607.2863               802.4696               985.4969
 Red. masses --      1.0568                10.5623                 6.2141
 Frc consts  --      0.2296                 4.0074                 3.5558
 IR Inten    --    195.0709                56.3503                11.5276

                      7                      8                      9
                      A                      A                      A
 Frequencies --   1159.5972              1301.2000              1480.6472
 Red. masses --      1.8954                 1.3512                 2.8746
 Frc consts  --      1.5017                 1.3479                 3.7130
 IR Inten    --    420.1240                35.6256               114.1921

                     10                     11                     12
                      A                      A                      A
 Frequencies --   1863.4350              3804.1391              3807.6249
 Red. masses --      9.1583                 1.0639                 1.0656
 Frc consts  --     18.7368                 9.0715                 9.1021
 IR Inten    --    443.3244               152.9581                13.2143

 - Thermochemistry -
 -------------------
 Temperature   298.150 Kelvin.  Pressure   1.00000 Atm.
 Atom     1 has atomic number  8 and mass  15.99491

 Molecular mass:    62.00039 amu.
 Principal axes and moments of inertia in atomic units:
                           1         2         3
     Eigenvalues --   150.95422 159.48411 310.43832
           X            1.00000   0.00000   0.00000
           Y           -0.00000   1.00000   0.00000
           Z           -0.00000  -0.00000   1.00000
 This molecule is an asymmetric top.
 Rotational symmetry number  1.
 Rotational temperatures (Kelvin)      0.57378     0.54309     0.27900
 Rotational constants (GHZ):          11.95555    11.31612     5.81353
 Zero-point vibrational energy     104609.7 (Joules/Mol)
                                   25.00231 (Kcal/Mol)
 Warning -- explicit consideration of   4 degrees of freedom as
           vibrations may cause significant error
 Vibrational temperatures:    766.97   785.48   861.05   873.75  1154.57
          (Kelvin)           1417.91  1668.40  1872.13  2130.32  2681.06
                             5473.30  5478.32

 Zero-point correction=                           0.039844 (Hartree/Particle)
 Thermal correction to Energy=                    0.043540
 Thermal correction to Enthalpy=                  0.044484
 Thermal correction to Gibbs Free Energy=         0.013962
 Sum of electronic and zero-point Energies=           -264.985493
 Sum of electronic and thermal Energies=              -264.981797
 Sum of electronic and thermal Enthalpies=            -264.980853
 Sum of electronic and thermal Free Energies=         -265.011376

                     E (Thermal)             CV                S
                      KCal/Mol        Cal/Mol-Kelvin    Cal/Mol-Kelvin
 Total                   27.322             11.859             64.240
 Electronic               0.000              0.000              0.000
 Translational            0.889              2.981             38.293
 Rotational               0.889              2.981             23.529
 Vibrational             25.544              5.897              2.418
 Vibration     1          0.888              1.177              0.580
 Vibration     2          0.901              1.149              0.553
 Vibration     3          0.956              1.035              0.452
 Vibration     4          0.966              1.016              0.437

 Optimization completed.
    -- Stationary point found.
 Normal termination of Gaussian 09 at Fri Aug 26 15:13:16 2022.

 -----------------------------------------------------------------
 #P Geom=AllCheck Guess=TCheck SCRF=Check CCSD(T,E4T,FrzG4)/GTBas1
 -----------------------------------------------------------------

 Structure from the checkpoint file:  "G4.Frag_819.chk"
 --------
 Frag_819
 --------
 Charge =  0 Multiplicity = 1

 SCF Done:  E(RHF) =  -263.644865038     A.U. after   12 cycles
 E2 =    -0.6540570973D+00 EUMP2 =    -0.26429892213534D+03
 CCSD(T)
 CCSD(T)= -0.26432736733D+03
 4.3109201\CCSD=-264.3092808\CCSD(T)=-264.3273673\RMSD=6.510e-09\PG=C01
 Normal termination of Gaussian 09 at Fri Aug 26 15:13:32 2022.

 ---------------------------------------------------------
 #P Geom=AllCheck Guess=TCheck SCRF=Check MP4=FrzG4/GTBas2
 ---------------------------------------------------------

 Structure from the checkpoint file:  "G4.Frag_819.chk"
 --------
 Frag_819
 --------
 Charge =  0 Multiplicity = 1

 SCF Done:  E(RHF) =  -263.653174595     A.U. after   11 cycles
 E2 =    -0.6650506682D+00 EUMP2 =    -0.26431822526310D+03
 Normal termination of Gaussian 09 at Fri Aug 26 15:13:38 2022.

 ---------------------------------------------------------
 #P Geom=AllCheck Guess=TCheck SCRF=Check MP4=FrzG4/GTBas3
 ---------------------------------------------------------

 Structure from the checkpoint file:  "G4.Frag_819.chk"
 --------
 Frag_819
 --------
 Charge =  0 Multiplicity = 1

 SCF Done:  E(RHF) =  -263.680097123     A.U. after   11 cycles
 E2 =    -0.8047905589D+00 EUMP2 =    -0.26448488768190D+03
 Normal termination of Gaussian 09 at Fri Aug 26 15:13:56 2022.

 -----------------------------------------------------------
 #P Geom=AllCheck Guess=TCheck SCRF=Check MP2=Full/GTLargeXP
 -----------------------------------------------------------

 Structure from the checkpoint file:  "G4.Frag_819.chk"
 --------
 Frag_819
 --------
 Charge =  0 Multiplicity = 1

 SCF Done:  E(RHF) =  -263.758550071     A.U. after   12 cycles
 E2 =    -0.1047699370D+01 EUMP2 =    -0.26480624944116D+03
 Normal termination of Gaussian 09 at Fri Aug 26 15:14:09 2022.
 SCF Done:  E(RHF) =  -263.780819326     A.U. after    9 cycles
 Normal termination of Gaussian 09 at Fri Aug 26 15:14:25 2022.

                         Standard orientation:
 ---------------------------------------------------------------------
 Center     Atomic      Atomic             Coordinates (Angstroms)
 Number     Number       Type             X           Y           Z
 ---------------------------------------------------------------------
      1          8           0       -0.000000    1.306075   -0.000038
      2          6           0        0.000000    0.102937    0.000160
      3          8           0        1.086939   -0.681242   -0.000025
      4          8           0       -1.086939   -0.681242   -0.000025
      5          1           0        1.845652   -0.083176   -0.000130
      6          1           0       -1.845652   -0.083177   -0.000130
 ---------------------------------------------------------------------

 SCF Done:  E(RHF) =  -263.785571834     A.U. after    7 cycles

 The electronic state is 1-A.
 Alpha  occ. eigenvalues --  -20.63092 -20.63090 -20.55950 -11.45094  -1.52506
 Alpha  occ. eigenvalues --   -1.41713  -1.38178  -0.90532  -0.74863  -0.73619
 Alpha  occ. eigenvalues --   -0.69184  -0.67457  -0.61565  -0.55855  -0.49796
 Alpha  occ. eigenvalues --   -0.48957
 Alpha virt. eigenvalues --    0.04461   0.04632   0.05456   0.06138   0.11028
 Alpha virt. eigenvalues --    0.11267   0.13159   0.14196   0.14319   0.14432
 Alpha virt. eigenvalues --    0.16976   0.17241   0.17362   0.18276   0.20655

 Mulliken charges:
               1
     1  O   -0.617331
     2  C    0.801534
     3  O   -0.503521
     4  O   -0.503521
     5  H    0.411419
     6  H    0.411419
 Sum of Mulliken charges =  -0.00000

 Dipole moment (field-independent basis, Debye):
    X=              0.0000    Y=             -0.3099    Z=              0.0002  Tot=              0.3099
 Quadrupole moment (field-independent basis, Debye-Ang):
   XX=            -14.1327   YY=            -29.2807   ZZ=            -22.1645
   XY=              0.0000   XZ=              0.0000   YZ=             -0.0000

 Normal termination of Gaussian 09 at Fri Aug 26 15:15:40 2022.
