 Gaussian 09, Revision E.01,
 Gaussian 09:  ES64L-G09RevE.01 30-Nov-2015

 -----
 #P G4
 -----

 --------
 Frag_482
 --------
 Symbolic Z-matrix:
 Charge =  0 Multiplicity = 1

 SCF Done:  E(RB3LYP) =  -308.906704602     A.U. after   12 cycles
 SCF Done:  E(RB3LYP) =  -308.911181584     A.U. after   10 cycles
 SCF Done:  E(RB3LYP) =  -308.911419995     A.U. after   10 cycles
 SCF Done:  E(RB3LYP) =  -308.911537619     A.U. after   10 cycles
 SCF Done:  E(RB3LYP) =  -308.911861323     A.U. after   11 cycles
 SCF Done:  E(RB3LYP) =  -308.912100160     A.U. after   11 cycles
 SCF Done:  E(RB3LYP) =  -308.912270744     A.U. after   10 cycles
 SCF Done:  E(RB3LYP) =  -308.912395669     A.U. after   11 cycles
 SCF Done:  E(RB3LYP) =  -308.912457353     A.U. after    9 cycles
 SCF Done:  E(RB3LYP) =  -308.915584178     A.U. after   14 cycles
 SCF Done:  E(RB3LYP) =  -308.921489494     A.U. after    9 cycles
 SCF Done:  E(RB3LYP) =  -308.921495154     A.U. after    9 cycles
 SCF Done:  E(RB3LYP) =  -308.921496752     A.U. after    7 cycles
 Optimization completed.
    -- Stationary point found.
 Normal termination of Gaussian 09 at Wed Aug 24 14:27:34 2022.

 ----------------------------------------------------------
 #P Geom=AllCheck Guess=TCheck SCRF=Check B3LYP/GTBas3 Freq
 ----------------------------------------------------------

 Structure from the checkpoint file:  "G4.Frag_482.chk"
 --------
 Frag_482
 --------
 Charge =  0 Multiplicity = 1

 SCF Done:  E(RB3LYP) =  -308.921496752     A.U. after    1 cycles

  Exact polarizability:  55.686   0.181  53.579  -0.730   1.527  48.167
 Approx polarizability:  72.646   0.003  72.589   0.303   0.332  71.192

                      1                      2                      3
                      A                      A                      A
 Frequencies --     89.4444               211.8081               225.5342
 Red. masses --      3.2434                 1.0807                 1.1611
 Frc consts  --      0.0153                 0.0286                 0.0348
 IR Inten    --      0.0312                 0.7195                 0.4561

                      4                      5                      6
                      A                      A                      A
 Frequencies --    255.0793               287.9512               305.6762
 Red. masses --      3.0732                 2.2104                 1.2294
 Frc consts  --      0.1178                 0.1080                 0.0677
 IR Inten    --      0.7134                 0.6217               114.0148

                      7                      8                      9
                      A                      A                      A
 Frequencies --    353.6809               375.5650               488.1730
 Red. masses --      2.2876                 1.2694                 2.6260
 Frc consts  --      0.1686                 0.1055                 0.3687
 IR Inten    --      8.1447                37.1795                27.3448

                     10                     11                     12
                      A                      A                      A
 Frequencies --    551.5853               647.0333               790.0352
 Red. masses --      2.8151                 2.9817                 2.7358
 Frc consts  --      0.5046                 0.7355                 1.0061
 IR Inten    --     47.0589                12.8083                10.8495

                     13                     14                     15
                      A                      A                      A
 Frequencies --    922.2211               933.0557               967.8730
 Red. masses --      1.8720                 1.2651                 1.4623
 Frc consts  --      0.9381                 0.6489                 0.8071
 IR Inten    --      1.4615                 3.8830                 1.8982

                     16                     17                     18
                      A                      A                      A
 Frequencies --   1009.0383              1061.0037              1108.5652
 Red. masses --      2.3270                 4.1778                 1.7821
 Frc consts  --      1.3959                 2.7709                 1.2903
 IR Inten    --    107.1602               132.9656                14.8921

                     19                     20                     21
                      A                      A                      A
 Frequencies --   1162.6290              1196.9022              1253.1174
 Red. masses --      2.1320                 1.7736                 1.2412
 Frc consts  --      1.6980                 1.4970                 1.1483
 IR Inten    --     16.2614                32.0834                42.2452

                     22                     23                     24
                      A                      A                      A
 Frequencies --   1294.7945              1344.9464              1374.5671
 Red. masses --      1.3403                 1.3859                 1.3937
 Frc consts  --      1.3239                 1.4771                 1.5515
 IR Inten    --      7.4731                 6.0929                 7.6758

                     25                     26                     27
                      A                      A                      A
 Frequencies --   1395.9384              1407.5987              1428.8726
 Red. masses --      1.2771                 1.2719                 1.2224
 Frc consts  --      1.4663                 1.4848                 1.4705
 IR Inten    --      3.3372                 2.1193                14.6892

                     28                     29                     30
                      A                      A                      A
 Frequencies --   1457.2961              1490.8632              1492.1150
 Red. masses --      1.4033                 1.0434                 1.0546
 Frc consts  --      1.7559                 1.3664                 1.3833
 IR Inten    --     63.8934                 0.5721                 3.3661

                     31                     32                     33
                      A                      A                      A
 Frequencies --   1505.9274              1516.3459              2998.6746
 Red. masses --      1.0525                 1.0676                 1.0845
 Frc consts  --      1.4063                 1.4462                 5.7458
 IR Inten    --      6.6341                 9.7379                49.5158

                     34                     35                     36
                      A                      A                      A
 Frequencies --   3030.9926              3032.2486              3036.9778
 Red. masses --      1.0569                 1.0504                 1.0498
 Frc consts  --      5.7207                 5.6901                 5.7049
 IR Inten    --     28.8605                34.8564                12.1739

                     37                     38                     39
                      A                      A                      A
 Frequencies --   3092.8106              3097.9837              3117.4154
 Red. masses --      1.0975                 1.1002                 1.1015
 Frc consts  --      6.1856                 6.2211                 6.3068
 IR Inten    --     24.7723                41.3020                 3.0148

                     40                     41                     42
                      A                      A                      A
 Frequencies --   3122.5592              3794.3708              3812.9788
 Red. masses --      1.1010                 1.0648                 1.0657
 Frc consts  --      6.3247                 9.0327                 9.1287
 IR Inten    --     39.1813                15.0616                26.5792

 - Thermochemistry -
 -------------------
 Temperature   298.150 Kelvin.  Pressure   1.00000 Atm.
 Atom     1 has atomic number  6 and mass  12.00000

 Molecular mass:    90.06808 amu.
 Principal axes and moments of inertia in atomic units:
                           1         2         3
     Eigenvalues --   389.57870 651.38354 768.83512
           X            0.99989   0.00444  -0.01380
           Y           -0.00300   0.99473   0.10248
           Z            0.01419  -0.10243   0.99464
 This molecule is an asymmetric top.
 Rotational symmetry number  1.
 Rotational temperatures (Kelvin)      0.22233     0.13297     0.11266
 Rotational constants (GHZ):           4.63255     2.77063     2.34737
 Zero-point vibrational energy     371095.1 (Joules/Mol)
                                   88.69385 (Kcal/Mol)
 Warning -- explicit consideration of  10 degrees of freedom as
           vibrations may cause significant error
 Vibrational temperatures:    128.69   304.74   324.49   367.00   414.30
          (Kelvin)            439.80   508.87   540.35   702.37   793.61
                              930.94  1136.68  1326.87  1342.46  1392.55
                             1451.78  1526.55  1594.98  1672.76  1722.07
                             1802.95  1862.92  1935.08  1977.69  2008.44
                             2025.22  2055.83  2096.72  2145.02  2146.82
                             2166.69  2181.68  4314.42  4360.92  4362.72
                             4369.53  4449.86  4457.30  4485.26  4492.66
                             5459.25  5486.02

 Zero-point correction=                           0.141343 (Hartree/Particle)
 Thermal correction to Energy=                    0.149006
 Thermal correction to Enthalpy=                  0.149950
 Thermal correction to Gibbs Free Energy=         0.110385
 Sum of electronic and zero-point Energies=           -308.780154
 Sum of electronic and thermal Energies=              -308.772491
 Sum of electronic and thermal Enthalpies=            -308.771547
 Sum of electronic and thermal Free Energies=         -308.811111

                     E (Thermal)             CV                S
                      KCal/Mol        Cal/Mol-Kelvin    Cal/Mol-Kelvin
 Total                   93.503             27.752             83.271
 Electronic               0.000              0.000              0.000
 Translational            0.889              2.981             39.406
 Rotational               0.889              2.981             26.770
 Vibrational             91.725             21.791             17.095
 Vibration     1          0.602              1.957              3.672
 Vibration     2          0.643              1.823              2.028
 Vibration     3          0.650              1.802              1.914
 Vibration     4          0.665              1.754              1.695
 Vibration     5          0.685              1.696              1.486
 Vibration     6          0.696              1.663              1.386
 Vibration     7          0.730              1.568              1.150
 Vibration     8          0.746              1.522              1.057
 Vibration     9          0.844              1.276              0.688
 Vibration    10          0.907              1.136              0.541

 Normal termination of Gaussian 09 at Wed Aug 24 14:30:38 2022.

 -----------------------------------------------------------------
 #P Geom=AllCheck Guess=TCheck SCRF=Check CCSD(T,E4T,FrzG4)/GTBas1
 -----------------------------------------------------------------

 Structure from the checkpoint file:  "G4.Frag_482.chk"
 --------
 Frag_482
 --------
 Charge =  0 Multiplicity = 1

 SCF Done:  E(RHF) =  -307.010550700     A.U. after   11 cycles
 E2 =    -0.8858207139D+00 EUMP2 =    -0.30789637141366D+03
 CCSD(T)
 CCSD(T)= -0.30797713144D+03
 -307.9764636\MP4SDQ=-307.9517648\CCSD=-307.9523837\CCSD(T)=-307.977131
 Normal termination of Gaussian 09 at Wed Aug 24 14:37:22 2022.

 ---------------------------------------------------------
 #P Geom=AllCheck Guess=TCheck SCRF=Check MP4=FrzG4/GTBas2
 ---------------------------------------------------------

 Structure from the checkpoint file:  "G4.Frag_482.chk"
 --------
 Frag_482
 --------
 Charge =  0 Multiplicity = 1

 SCF Done:  E(RHF) =  -307.019377416     A.U. after   11 cycles
 E2 =    -0.9003940015D+00 EUMP2 =    -0.30791977141729D+03
 Normal termination of Gaussian 09 at Wed Aug 24 14:47:07 2022.

 ---------------------------------------------------------
 #P Geom=AllCheck Guess=TCheck SCRF=Check MP4=FrzG4/GTBas3
 ---------------------------------------------------------

 Structure from the checkpoint file:  "G4.Frag_482.chk"
 --------
 Frag_482
 --------
 Charge =  0 Multiplicity = 1

 SCF Done:  E(RHF) =  -307.053645350     A.U. after   10 cycles
 E2 =    -0.1108834623D+01 EUMP2 =    -0.30816247997340D+03
 Normal termination of Gaussian 09 at Wed Aug 24 18:28:50 2022.

 -----------------------------------------------------------
 #P Geom=AllCheck Guess=TCheck SCRF=Check MP2=Full/GTLargeXP
 -----------------------------------------------------------

 Structure from the checkpoint file:  "G4.Frag_482.chk"
 --------
 Frag_482
 --------
 Charge =  0 Multiplicity = 1

 SCF Done:  E(RHF) =  -307.133998815     A.U. after   11 cycles
 E2 =    -0.1450493130D+01 EUMP2 =    -0.30858449194509D+03
 Normal termination of Gaussian 09 at Wed Aug 24 18:35:58 2022.
 SCF Done:  E(RHF) =  -307.159231025     A.U. after    8 cycles
 Normal termination of Gaussian 09 at Wed Aug 24 18:42:23 2022.

                         Standard orientation:
 ---------------------------------------------------------------------
 Center     Atomic      Atomic             Coordinates (Angstroms)
 Number     Number       Type             X           Y           Z
 ---------------------------------------------------------------------
      1          6           0        0.889581    1.369444    0.567473
      2          6           0        0.678668    0.231251   -0.441188
      3          6           0        1.755493   -0.851681   -0.298456
      4          6           0       -0.725155   -0.383537   -0.331517
      5          8           0       -0.858160   -0.928714    0.962940
      6          8           0       -1.763610    0.527362   -0.609248
      7          1           0        1.893237    1.792162    0.462349
      8          1           0        0.776326    1.007762    1.593122
      9          1           0        0.181685    2.191929    0.412404
     10          1           0        0.732416    0.649667   -1.454050
     11          1           0        2.753154   -0.431763   -0.460747
     12          1           0        1.726966   -1.295734    0.700395
     13          1           0        1.609550   -1.656435   -1.027405
     14          1           0       -0.843941   -1.163478   -1.098254
     15          1           0       -1.741268   -1.309373    1.019209
     16          1           0       -1.705482    1.233218    0.045570
 ---------------------------------------------------------------------

 SCF Done:  E(RHF) =  -307.164765595     A.U. after    7 cycles

 The electronic state is 1-A.
 Alpha  occ. eigenvalues --  -20.56307 -20.56270 -11.33137 -11.23019 -11.21589
 Alpha  occ. eigenvalues --  -11.21216  -1.41200  -1.33312  -1.07484  -0.93368
 Alpha  occ. eigenvalues --   -0.90780  -0.78188  -0.74548  -0.65564  -0.63163
 Alpha  occ. eigenvalues --   -0.62813  -0.59672  -0.55705  -0.54723  -0.53409
 Alpha  occ. eigenvalues --   -0.50032  -0.48653  -0.47758  -0.47149  -0.44034
 Alpha virt. eigenvalues --    0.03583   0.04125   0.04327   0.04942   0.06636
 Alpha virt. eigenvalues --    0.06745   0.07576   0.07761   0.07948   0.09805
 Alpha virt. eigenvalues --    0.10821   0.11112   0.11348   0.13672   0.14312

 Mulliken charges:
               1
     1  C   -0.575879
     2  C    0.037032
     3  C   -0.547712
     4  C    0.219788
     5  O   -0.603923
     6  O   -0.598373
     7  H    0.169187
     8  H    0.193750
     9  H    0.151775
    10  H    0.162796
    11  H    0.161971
    12  H    0.187472
    13  H    0.153427
    14  H    0.139865
    15  H    0.380060
    16  H    0.368764
 Sum of Mulliken charges =  -0.00000

 Dipole moment (field-independent basis, Debye):
    X=              0.2043    Y=              0.0925    Z=              0.1668  Tot=              0.2795
 Quadrupole moment (field-independent basis, Debye-Ang):
   XX=            -38.4033   YY=            -36.2605   ZZ=            -40.4968
   XY=              2.0354   XZ=             -3.5710   YZ=              1.7693

 Normal termination of Gaussian 09 at Wed Aug 24 21:32:37 2022.
