 Gaussian 09, Revision E.01,
 Gaussian 09:  ES64L-G09RevE.01 30-Nov-2015

 -----
 #P G4
 -----

 --------
 Frag_527
 --------
 Symbolic Z-matrix:
 Charge =  0 Multiplicity = 1

 SCF Done:  E(RB3LYP) =  -270.512649311     A.U. after   14 cycles
 SCF Done:  E(RB3LYP) =  -270.514396606     A.U. after   13 cycles
 SCF Done:  E(RB3LYP) =  -270.507257053     A.U. after   14 cycles
 SCF Done:  E(RB3LYP) =  -270.514973682     A.U. after   12 cycles
 SCF Done:  E(RB3LYP) =  -270.514535811     A.U. after   12 cycles
 SCF Done:  E(RB3LYP) =  -270.515114002     A.U. after    9 cycles
 SCF Done:  E(RB3LYP) =  -270.515233158     A.U. after   10 cycles
 SCF Done:  E(RB3LYP) =  -270.515151647     A.U. after   10 cycles
 SCF Done:  E(RB3LYP) =  -270.515247963     A.U. after   10 cycles
 SCF Done:  E(RB3LYP) =  -270.515248560     A.U. after    8 cycles
 SCF Done:  E(RB3LYP) =  -270.515248672     A.U. after    7 cycles
 Optimization completed.
    -- Stationary point found.
 Normal termination of Gaussian 09 at Fri Aug 26 07:44:19 2022.

 ----------------------------------------------------------
 #P Geom=AllCheck Guess=TCheck SCRF=Check B3LYP/GTBas3 Freq
 ----------------------------------------------------------

 Structure from the checkpoint file:  "G4.Frag_527.chk"
 --------
 Frag_527
 --------
 Charge =  0 Multiplicity = 1

 SCF Done:  E(RB3LYP) =  -270.515248672     A.U. after    1 cycles

  Exact polarizability:  72.964  -0.001  46.757   0.657   0.000  45.068
 Approx polarizability: 111.206  -0.007  61.464   3.019  -0.000  65.520

                      1                      2                      3
                      A                      A                      A
 Frequencies --    179.6311               187.3975               234.9176
 Red. masses --      2.9734                 3.1904                 1.0323
 Frc consts  --      0.0565                 0.0660                 0.0336
 IR Inten    --      1.1172                 2.5330                 0.5615

                      4                      5                      6
                      A                      A                      A
 Frequencies --    243.8028               274.8511               348.5660
 Red. masses --      1.0491                 1.0952                 2.3030
 Frc consts  --      0.0367                 0.0487                 0.1649
 IR Inten    --    100.0785                 0.5894                 1.0517

                      7                      8                      9
                      A                      A                      A
 Frequencies --    398.9853               412.3931               561.5355
 Red. masses --      3.9450                 2.8227                 4.5743
 Frc consts  --      0.3700                 0.2828                 0.8498
 IR Inten    --      5.9427                 3.5657                 8.0212

                     10                     11                     12
                      A                      A                      A
 Frequencies --    568.3631               626.8874               669.3507
 Red. masses --      5.5310                 1.2252                 1.2724
 Frc consts  --      1.0527                 0.2837                 0.3359
 IR Inten    --      2.4088                45.0181                36.9691

                     13                     14                     15
                      A                      A                      A
 Frequencies --    711.3380               904.0117               918.2692
 Red. masses --      4.1474                 2.2731                 1.5590
 Frc consts  --      1.2365                 1.0945                 0.7745
 IR Inten    --      1.0898                23.5636                 0.0579

                     16                     17                     18
                      A                      A                      A
 Frequencies --    965.8272              1017.5015              1152.5353
 Red. masses --      2.2372                 1.3026                 1.5358
 Frc consts  --      1.2296                 0.7946                 1.2020
 IR Inten    --     13.5613                 0.0530               116.8202

                     19                     20                     21
                      A                      A                      A
 Frequencies --   1184.0895              1194.8626              1382.5410
 Red. masses --      3.4724                 2.4377                 1.6866
 Frc consts  --      2.8684                 2.0505                 1.8994
 IR Inten    --     27.1531                32.9857                55.1085

                     22                     23                     24
                      A                      A                      A
 Frequencies --   1390.3370              1410.9377              1476.1278
 Red. masses --      1.2366                 1.2235                 1.0472
 Frc consts  --      1.4084                 1.4350                 1.3444
 IR Inten    --      5.8575                 2.3071                 0.0632

                     25                     26                     27
                      A                      A                      A
 Frequencies --   1479.3695              1492.9715              1506.7744
 Red. masses --      1.0498                 1.0523                 1.0874
 Frc consts  --      1.3537                 1.3820                 1.4546
 IR Inten    --      1.6124                 0.6988                 6.9596

                     28                     29                     30
                      A                      A                      A
 Frequencies --   2243.0513              3030.2445              3035.6187
 Red. masses --      5.8901                 1.0384                 1.0384
 Frc consts  --     17.4603                 5.6181                 5.6379
 IR Inten    --      1.1242                 8.8857                29.7935

                     31                     32                     33
                      A                      A                      A
 Frequencies --   3103.5563              3110.1892              3135.0778
 Red. masses --      1.0975                 1.0969                 1.1023
 Frc consts  --      6.2284                 6.2519                 6.3835
 IR Inten    --      3.1762                42.1511                11.1953

                     34                     35                     36
                      A                      A                      A
 Frequencies --   3137.1953              3502.9119              3799.5254
 Red. masses --      1.1027                 1.1634                 1.0657
 Frc consts  --      6.3943                 8.4109                 9.0647
 IR Inten    --     19.1299                58.9418                12.4727

 - Thermochemistry -
 -------------------
 Temperature   298.150 Kelvin.  Pressure   1.00000 Atm.
 Atom     1 has atomic number  6 and mass  12.00000

 Molecular mass:    84.05751 amu.
 Principal axes and moments of inertia in atomic units:
                           1         2         3
     Eigenvalues --   378.60105 652.12712 665.63991
           X            0.99974  -0.00000  -0.02275
           Y            0.00000   1.00000   0.00001
           Z            0.02275  -0.00001   0.99974
 This molecule is an asymmetric top.
 Rotational symmetry number  1.
 Rotational temperatures (Kelvin)      0.22877     0.13282     0.13012
 Rotational constants (GHZ):           4.76687     2.76747     2.71129
 Zero-point vibrational energy     304997.2 (Joules/Mol)
                                   72.89607 (Kcal/Mol)
 Warning -- explicit consideration of  10 degrees of freedom as
           vibrations may cause significant error
 Vibrational temperatures:    258.45   269.62   337.99   350.78   395.45
          (Kelvin)            501.51   574.05   593.34   807.92   817.75
                              901.95   963.05  1023.46  1300.67  1321.18
                             1389.61  1463.96  1658.24  1703.64  1719.14
                             1989.17  2000.38  2030.02  2123.82  2128.48
                             2148.05  2167.91  3227.25  4359.84  4367.57
                             4465.32  4474.86  4510.67  4513.72  5039.90
                             5466.66

 Zero-point correction=                           0.116167 (Hartree/Particle)
 Thermal correction to Energy=                    0.123620
 Thermal correction to Enthalpy=                  0.124564
 Thermal correction to Gibbs Free Energy=         0.085888
 Sum of electronic and zero-point Energies=           -270.399081
 Sum of electronic and thermal Energies=              -270.391629
 Sum of electronic and thermal Enthalpies=            -270.390685
 Sum of electronic and thermal Free Energies=         -270.429360

                     E (Thermal)             CV                S
                      KCal/Mol        Cal/Mol-Kelvin    Cal/Mol-Kelvin
 Total                   77.572             27.394             81.399
 Electronic               0.000              0.000              0.000
 Translational            0.889              2.981             39.200
 Rotational               0.889              2.981             26.599
 Vibrational             75.795             21.432             15.599
 Vibration     1          0.629              1.867              2.332
 Vibration     2          0.632              1.857              2.253
 Vibration     3          0.655              1.787              1.841
 Vibration     4          0.659              1.773              1.775
 Vibration     5          0.677              1.720              1.566
 Vibration     6          0.726              1.578              1.173
 Vibration     7          0.765              1.472              0.966
 Vibration     8          0.776              1.443              0.918
 Vibration     9          0.917              1.115              0.521
 Vibration    10          0.924              1.100              0.507

 Optimization completed.
    -- Stationary point found.
 Normal termination of Gaussian 09 at Fri Aug 26 07:44:51 2022.

 -----------------------------------------------------------------
 #P Geom=AllCheck Guess=TCheck SCRF=Check CCSD(T,E4T,FrzG4)/GTBas1
 -----------------------------------------------------------------

 Structure from the checkpoint file:  "G4.Frag_527.chk"
 --------
 Frag_527
 --------
 Charge =  0 Multiplicity = 1

 SCF Done:  E(RHF) =  -268.779859760     A.U. after   11 cycles
 E2 =    -0.8227314868D+00 EUMP2 =    -0.26960259124716D+03
 CCSD(T)
 CCSD(T)= -0.26968039565D+03
 -269.6506836\CCSD=-269.651046\CCSD(T)=-269.6803956\RMSD=7.446e-09\PG=C
 Normal termination of Gaussian 09 at Fri Aug 26 07:46:36 2022.

 ---------------------------------------------------------
 #P Geom=AllCheck Guess=TCheck SCRF=Check MP4=FrzG4/GTBas2
 ---------------------------------------------------------

 Structure from the checkpoint file:  "G4.Frag_527.chk"
 --------
 Frag_527
 --------
 Charge =  0 Multiplicity = 1

 SCF Done:  E(RHF) =  -268.789593136     A.U. after   14 cycles
 E2 =    -0.8327714912D+00 EUMP2 =    -0.26962236462675D+03
 Normal termination of Gaussian 09 at Fri Aug 26 07:47:14 2022.

 ---------------------------------------------------------
 #P Geom=AllCheck Guess=TCheck SCRF=Check MP4=FrzG4/GTBas3
 ---------------------------------------------------------

 Structure from the checkpoint file:  "G4.Frag_527.chk"
 --------
 Frag_527
 --------
 Charge =  0 Multiplicity = 1

 SCF Done:  E(RHF) =  -268.815988081     A.U. after   11 cycles
 E2 =    -0.1007482754D+01 EUMP2 =    -0.26982347083507D+03
 Normal termination of Gaussian 09 at Fri Aug 26 07:50:26 2022.

 -----------------------------------------------------------
 #P Geom=AllCheck Guess=TCheck SCRF=Check MP2=Full/GTLargeXP
 -----------------------------------------------------------

 Structure from the checkpoint file:  "G4.Frag_527.chk"
 --------
 Frag_527
 --------
 Charge =  0 Multiplicity = 1

 SCF Done:  E(RHF) =  -268.882429318     A.U. after   12 cycles
 E2 =    -0.1329749901D+01 EUMP2 =    -0.27021217921928D+03
 Normal termination of Gaussian 09 at Fri Aug 26 07:52:23 2022.
 SCF Done:  E(RHF) =  -268.903768625     A.U. after    9 cycles
 Normal termination of Gaussian 09 at Fri Aug 26 07:54:19 2022.

                         Standard orientation:
 ---------------------------------------------------------------------
 Center     Atomic      Atomic             Coordinates (Angstroms)
 Number     Number       Type             X           Y           Z
 ---------------------------------------------------------------------
      1          6           0       -2.367427   -0.000053   -0.034961
      2          6           0       -1.167913   -0.000276    0.023084
      3          6           0        0.300331   -0.000014    0.037044
      4          6           0        0.826356   -1.270498   -0.657901
      5          6           0        0.825916    1.270678   -0.657863
      6          8           0        0.688099    0.000034    1.416717
      7          1           0       -3.428858   -0.000246   -0.070296
      8          1           0        0.470104   -2.157908   -0.130584
      9          1           0        1.922693   -1.271522   -0.649892
     10          1           0        0.492364   -1.319489   -1.697868
     11          1           0        0.469349    2.157947   -0.130522
     12          1           0        1.922252    1.272097   -0.649861
     13          1           0        0.491903    1.319579   -1.697827
     14          1           0        1.651820    0.000249    1.436694
 ---------------------------------------------------------------------

 SCF Done:  E(RHF) =  -268.908167303     A.U. after    8 cycles

 The electronic state is 1-A.
 Alpha  occ. eigenvalues --  -20.56235 -11.31936 -11.22963 -11.22798 -11.22797
 Alpha  occ. eigenvalues --  -11.22259  -1.37207  -1.08313  -1.00435  -0.95070
 Alpha  occ. eigenvalues --   -0.85414  -0.71792  -0.67734  -0.66310  -0.61977
 Alpha  occ. eigenvalues --   -0.59027  -0.55801  -0.54104  -0.52115  -0.50375
 Alpha  occ. eigenvalues --   -0.45786  -0.39582  -0.38596
 Alpha virt. eigenvalues --    0.03297   0.03878   0.04338   0.05032   0.06508
 Alpha virt. eigenvalues --    0.06759   0.06891   0.07450   0.07553   0.09480
 Alpha virt. eigenvalues --    0.09595   0.10083   0.10827   0.11331   0.12960

 Mulliken charges:
               1
     1  C   -0.520428
     2  C    0.124647
     3  C    0.415793
     4  C   -0.560618
     5  C   -0.560616
     6  O   -0.581313
     7  H    0.245893
     8  H    0.190860
     9  H    0.159221
    10  H    0.184960
    11  H    0.190862
    12  H    0.159216
    13  H    0.184950
    14  H    0.366573
 Sum of Mulliken charges =  -0.00000

 Dipole moment (field-independent basis, Debye):
    X=              1.4675    Y=              0.0003    Z=             -1.5707  Tot=              2.1496
 Quadrupole moment (field-independent basis, Debye-Ang):
   XX=            -29.3312   YY=            -38.1077   ZZ=            -40.9424
   XY=              0.0010   XZ=              1.4126   YZ=              0.0005

 Normal termination of Gaussian 09 at Fri Aug 26 08:01:43 2022.
