 Gaussian 09, Revision E.01,
 Gaussian 09:  ES64L-G09RevE.01 30-Nov-2015

 -----
 #P G4
 -----

 --------
 Frag_938
 --------
 Symbolic Z-matrix:
 Charge =  0 Multiplicity = 1

 SCF Done:  E(RB3LYP) =  -439.480823161     A.U. after   12 cycles
 SCF Done:  E(RB3LYP) =  -439.488815245     A.U. after   11 cycles
 SCF Done:  E(RB3LYP) =  -439.490023082     A.U. after   11 cycles
 SCF Done:  E(RB3LYP) =  -439.490241189     A.U. after   10 cycles
 SCF Done:  E(RB3LYP) =  -439.490305102     A.U. after    9 cycles
 SCF Done:  E(RB3LYP) =  -439.490313021     A.U. after    8 cycles
 SCF Done:  E(RB3LYP) =  -439.490318089     A.U. after    7 cycles
 SCF Done:  E(RB3LYP) =  -439.490333872     A.U. after    9 cycles
 SCF Done:  E(RB3LYP) =  -439.490317502     A.U. after    8 cycles
 SCF Done:  E(RB3LYP) =  -439.490301211     A.U. after   10 cycles
 SCF Done:  E(RB3LYP) =  -439.509364130     A.U. after    8 cycles
 SCF Done:  E(RB3LYP) =  -439.509366748     A.U. after    8 cycles
 SCF Done:  E(RB3LYP) =  -439.509367637     A.U. after    7 cycles
 Optimization completed.
    -- Stationary point found.
 Normal termination of Gaussian 09 at Sun Aug 21 16:48:54 2022.

 ----------------------------------------------------------
 #P Geom=AllCheck Guess=TCheck SCRF=Check B3LYP/GTBas3 Freq
 ----------------------------------------------------------

 Structure from the checkpoint file:  "G4.Frag_938.chk"
 --------
 Frag_938
 --------
 Charge =  0 Multiplicity = 1

 SCF Done:  E(RB3LYP) =  -439.509367637     A.U. after    1 cycles

  Exact polarizability:  69.184   0.491  59.274  -1.291  -0.184  60.185
 Approx polarizability:  92.457   0.832  84.340  -0.521  -0.028  88.056

                      1                      2                      3
                      A                      A                      A
 Frequencies --    107.4871               208.5974               214.0461
 Red. masses --      4.0388                 1.1119                 1.1332
 Frc consts  --      0.0275                 0.0285                 0.0306
 IR Inten    --      4.5498                 2.6286                71.1442

                      4                      5                      6
                      A                      A                      A
 Frequencies --    225.5733               238.7002               269.3510
 Red. masses --      1.0685                 1.7015                 3.0482
 Frc consts  --      0.0320                 0.0571                 0.1303
 IR Inten    --     76.5569                 3.0330                 0.2224

                      7                      8                      9
                      A                      A                      A
 Frequencies --    286.2917               337.5257               362.8185
 Red. masses --      1.5151                 1.5090                 2.7121
 Frc consts  --      0.0732                 0.1013                 0.2103
 IR Inten    --      0.6092                15.0070                27.3464

                     10                     11                     12
                      A                      A                      A
 Frequencies --    370.6717               386.9767               415.5091
 Red. masses --      3.1278                 1.9967                 3.1068
 Frc consts  --      0.2532                 0.1762                 0.3160
 IR Inten    --      7.2086                12.4143                 6.1257

                     13                     14                     15
                      A                      A                      A
 Frequencies --    453.4755               533.7695               544.9401
 Red. masses --      3.0452                 1.8476                 3.9157
 Frc consts  --      0.3690                 0.3102                 0.6851
 IR Inten    --      1.1133                16.5481                 9.6965

                     16                     17                     18
                      A                      A                      A
 Frequencies --    572.7211               608.9300               702.0678
 Red. masses --      3.7581                 1.5350                 3.2037
 Frc consts  --      0.7263                 0.3353                 0.9304
 IR Inten    --     46.4914               125.8079                11.0474

                     19                     20                     21
                      A                      A                      A
 Frequencies --    843.2321               868.2732               929.3585
 Red. masses --      2.6304                 2.1817                 2.0171
 Frc consts  --      1.1019                 0.9691                 1.0265
 IR Inten    --     19.6159               154.4995                47.7381

                     22                     23                     24
                      A                      A                      A
 Frequencies --    950.8255               959.5193              1031.3135
 Red. masses --      2.0692                 1.8809                 1.4425
 Frc consts  --      1.1022                 1.0203                 0.9039
 IR Inten    --     28.5679                12.9945                 4.1521

                     25                     26                     27
                      A                      A                      A
 Frequencies --   1069.5468              1102.5249              1147.2024
 Red. masses --      1.8316                 1.6964                 2.2839
 Frc consts  --      1.2345                 1.2149                 1.7710
 IR Inten    --     75.8176               176.6947                85.4198

                     28                     29                     30
                      A                      A                      A
 Frequencies --   1195.2954              1220.2771              1257.1914
 Red. masses --      3.0993                 1.2892                 3.2763
 Frc consts  --      2.6090                 1.1310                 3.0510
 IR Inten    --     91.3402                17.9172                50.6593

                     31                     32                     33
                      A                      A                      A
 Frequencies --   1344.3469              1385.0500              1405.3956
 Red. masses --      1.5200                 1.2555                 1.2998
 Frc consts  --      1.6185                 1.4191                 1.5125
 IR Inten    --      3.0249                26.5551                 8.8434

                     34                     35                     36
                      A                      A                      A
 Frequencies --   1423.7332              1446.5590              1480.8315
 Red. masses --      1.8321                 1.6322                 1.0673
 Frc consts  --      2.1880                 2.0123                 1.3789
 IR Inten    --     18.2691                90.1873                 3.2194

                     37                     38                     39
                      A                      A                      A
 Frequencies --   1485.1776              1495.9460              1517.4737
 Red. masses --      1.0558                 1.0594                 1.1353
 Frc consts  --      1.3721                 1.3968                 1.5403
 IR Inten    --      1.6543                 4.0621                 6.7520

                     40                     41                     42
                      A                      A                      A
 Frequencies --   1648.3202              3029.0959              3050.8965
 Red. masses --      1.1012                 1.0473                 1.0386
 Frc consts  --      1.7628                 5.6619                 5.6959
 IR Inten    --     49.9751                23.7345                12.9841

                     43                     44                     45
                      A                      A                      A
 Frequencies --   3110.8147              3121.6621              3151.1970
 Red. masses --      1.0876                 1.0967                 1.1029
 Frc consts  --      6.2011                 6.2965                 6.4527
 IR Inten    --     18.3475                19.3945                12.8119

                     46                     47                     48
                      A                      A                      A
 Frequencies --   3155.4363              3503.2696              3591.8187
 Red. masses --      1.1027                 1.0487                 1.0926
 Frc consts  --      6.4691                 7.5831                 8.3049
 IR Inten    --      7.5477                 4.5705                 6.6491

                     49                     50                     51
                      A                      A                      A
 Frequencies --   3724.2821              3815.4466              3823.0236
 Red. masses --      1.0638                 1.0657                 1.0666
 Frc consts  --      8.6933                 9.1409                 9.1848
 IR Inten    --     60.0534                22.3825                17.9012

 - Thermochemistry -
 -------------------
 Temperature   298.150 Kelvin.  Pressure   1.00000 Atm.
 Atom     1 has atomic number  6 and mass  12.00000

 Molecular mass:   121.07389 amu.
 Principal axes and moments of inertia in atomic units:
                           1         2         3
     Eigenvalues --   712.08778 995.24430 998.93842
           X            0.99920  -0.00771  -0.03930
           Y           -0.00029   0.97991  -0.19945
           Z            0.04005   0.19931   0.97912
 This molecule is an asymmetric top.
 Rotational symmetry number  1.
 Warning -- assumption of classical behavior for rotation
           may cause significant error
 Rotational temperatures (Kelvin)      0.12163     0.08703     0.08671
 Rotational constants (GHZ):           2.53444     1.81337     1.80666
 Zero-point vibrational energy     425414.7 (Joules/Mol)
                                  101.67656 (Kcal/Mol)
 Warning -- explicit consideration of  17 degrees of freedom as
           vibrations may cause significant error
 Vibrational temperatures:    154.65   300.12   307.96   324.55   343.44
          (Kelvin)            387.54   411.91   485.62   522.01   533.31
                              556.77   597.82   652.45   767.97   784.05
                              824.02   876.11  1010.12  1213.22  1249.25
                             1337.14  1368.02  1380.53  1483.83  1538.84
                             1586.29  1650.57  1719.76  1755.70  1808.82
                             1934.21  1992.78  2022.05  2048.43  2081.27
                             2130.58  2136.84  2152.33  2183.30  2371.56
                             4358.19  4389.55  4475.76  4491.37  4533.86
                             4539.96  5040.42  5167.82  5358.40  5489.57
                             5500.47

 Zero-point correction=                           0.162032 (Hartree/Particle)
 Thermal correction to Energy=                    0.171844
 Thermal correction to Enthalpy=                  0.172788
 Thermal correction to Gibbs Free Energy=         0.128966
 Sum of electronic and zero-point Energies=           -439.347336
 Sum of electronic and thermal Energies=              -439.337524
 Sum of electronic and thermal Enthalpies=            -439.336580
 Sum of electronic and thermal Free Energies=         -439.380402

                     E (Thermal)             CV                S
                      KCal/Mol        Cal/Mol-Kelvin    Cal/Mol-Kelvin
 Total                  107.834             37.857             92.231
 Electronic               0.000              0.000              0.000
 Translational            0.889              2.981             40.288
 Rotational               0.889              2.981             28.050
 Vibrational            106.056             31.895             23.893
 Vibration     1          0.606              1.943              3.314
 Vibration     2          0.642              1.828              2.056
 Vibration     3          0.644              1.820              2.009
 Vibration     4          0.650              1.802              1.914
 Vibration     5          0.657              1.781              1.813
 Vibration     6          0.674              1.730              1.600
 Vibration     7          0.684              1.699              1.496
 Vibration     8          0.718              1.601              1.224
 Vibration     9          0.737              1.549              1.110
 Vibration    10          0.743              1.532              1.077
 Vibration    11          0.755              1.498              1.012
 Vibration    12          0.779              1.437              0.907
 Vibration    13          0.812              1.353              0.785
 Vibration    14          0.889              1.175              0.579
 Vibration    15          0.900              1.151              0.555
 Vibration    16          0.929              1.090              0.499
 Vibration    17          0.968              1.013              0.435

 Optimization completed.
    -- Stationary point found.
 Normal termination of Gaussian 09 at Sun Aug 21 16:59:25 2022.

 -----------------------------------------------------------------
 #P Geom=AllCheck Guess=TCheck SCRF=Check CCSD(T,E4T,FrzG4)/GTBas1
 -----------------------------------------------------------------

 Structure from the checkpoint file:  "G4.Frag_938.chk"
 --------
 Frag_938
 --------
 Charge =  0 Multiplicity = 1

 SCF Done:  E(RHF) =  -436.899437744     A.U. after   12 cycles
 E2 =    -0.1234280961D+01 EUMP2 =    -0.43813371870454D+03
 CCSD(T)
 CCSD(T)= -0.43822886503D+03
 299443\MP4SDQ=-438.194177\CCSD=-438.1940473\CCSD(T)=-438.228865\RMSD=3
 Normal termination of Gaussian 09 at Sun Aug 21 17:31:55 2022.

 ---------------------------------------------------------
 #P Geom=AllCheck Guess=TCheck SCRF=Check MP4=FrzG4/GTBas2
 ---------------------------------------------------------

 Structure from the checkpoint file:  "G4.Frag_938.chk"
 --------
 Frag_938
 --------
 Charge =  0 Multiplicity = 1

 SCF Done:  E(RHF) =  -436.914600799     A.U. after   12 cycles
 E2 =    -0.1257880954D+01 EUMP2 =    -0.43817248175386D+03
 Normal termination of Gaussian 09 at Sun Aug 21 18:20:12 2022.

 ---------------------------------------------------------
 #P Geom=AllCheck Guess=TCheck SCRF=Check MP4=FrzG4/GTBas3
 ---------------------------------------------------------

 Structure from the checkpoint file:  "G4.Frag_938.chk"
 --------
 Frag_938
 --------
 Charge =  0 Multiplicity = 1

 SCF Done:  E(RHF) =  -436.961981947     A.U. after   11 cycles
 E2 =    -0.1531996175D+01 EUMP2 =    -0.43849397812254D+03
 Normal termination of Gaussian 09 at Mon Aug 22 07:36:11 2022.

 -----------------------------------------------------------
 #P Geom=AllCheck Guess=TCheck SCRF=Check MP2=Full/GTLargeXP
 -----------------------------------------------------------

 Structure from the checkpoint file:  "G4.Frag_938.chk"
 --------
 Frag_938
 --------
 Charge =  0 Multiplicity = 1

 SCF Done:  E(RHF) =  -437.081294838     A.U. after   12 cycles
 E2 =    -0.1996755246D+01 EUMP2 =    -0.43907805008410D+03
 Normal termination of Gaussian 09 at Mon Aug 22 08:01:02 2022.
 SCF Done:  E(RHF) =  -437.116151828     A.U. after    9 cycles
 Normal termination of Gaussian 09 at Mon Aug 22 08:17:15 2022.

                         Standard orientation:
 ---------------------------------------------------------------------
 Center     Atomic      Atomic             Coordinates (Angstroms)
 Number     Number       Type             X           Y           Z
 ---------------------------------------------------------------------
      1          6           0        1.402301    1.270640   -0.479046
      2          6           0        0.771243   -0.002771    0.084221
      3          7           0        1.119277   -0.155349    1.473742
      4          8           0        1.168229   -1.129086   -0.739968
      5          6           0       -0.785434   -0.001166   -0.052552
      6          6           0       -1.462827    1.230098    0.539683
      7          8           0       -1.199488   -1.175557    0.634175
      8          8           0       -1.140057   -0.071795   -1.407496
      9          1           0        1.164363    2.136479    0.140442
     10          1           0        1.053688    1.447662   -1.498446
     11          1           0        2.495060    1.167991   -0.493170
     12          1           0        0.704976   -1.012523    1.824708
     13          1           0        2.126308   -0.217911    1.585194
     14          1           0        2.060269   -0.964244   -1.060389
     15          1           0       -1.171448    1.347912    1.584104
     16          1           0       -1.206019    2.133136   -0.017739
     17          1           0       -2.548320    1.101354    0.480015
     18          1           0       -2.143059   -1.273244    0.467379
     19          1           0       -0.551926   -0.748474   -1.775816
 ---------------------------------------------------------------------

 SCF Done:  E(RHF) =  -437.123920824     A.U. after    8 cycles

 The electronic state is 1-A.
 Alpha  occ. eigenvalues --  -20.56242 -20.55531 -20.55263 -15.54137 -11.33756
 Alpha  occ. eigenvalues --  -11.32160 -11.22681 -11.21338  -1.41773  -1.36506
 Alpha  occ. eigenvalues --   -1.32796  -1.18353  -1.02293  -0.97932  -0.88839
 Alpha  occ. eigenvalues --   -0.77499  -0.73480  -0.69628  -0.67369  -0.65348
 Alpha  occ. eigenvalues --   -0.62926  -0.61431  -0.60248  -0.55924  -0.54914
 Alpha  occ. eigenvalues --   -0.54368  -0.53699  -0.52643  -0.48734  -0.48133
 Alpha  occ. eigenvalues --   -0.46854  -0.44471  -0.41285
 Alpha virt. eigenvalues --    0.02992   0.03993   0.04610   0.05100   0.06117
 Alpha virt. eigenvalues --    0.06650   0.07071   0.07248   0.07630   0.09297
 Alpha virt. eigenvalues --    0.09443   0.10121   0.10525   0.12068   0.13390

 Mulliken charges:
               1
     1  C   -0.603396
     2  C    0.468404
     3  N   -0.766282
     4  O   -0.631275
     5  C    0.534933
     6  C   -0.575708
     7  O   -0.642810
     8  O   -0.652869
     9  H    0.193899
    10  H    0.199342
    11  H    0.163646
    12  H    0.335220
    13  H    0.276568
    14  H    0.370341
    15  H    0.209193
    16  H    0.173294
    17  H    0.162650
    18  H    0.375857
    19  H    0.408993
 Sum of Mulliken charges =  -0.00000

 Dipole moment (field-independent basis, Debye):
    X=              1.7501    Y=              0.6791    Z=             -0.1425  Tot=              1.8827
 Quadrupole moment (field-independent basis, Debye-Ang):
   XX=            -40.5002   YY=            -51.3600   ZZ=            -51.8714
   XY=              0.6738   XZ=             -3.2750   YZ=             -0.1800

 Normal termination of Gaussian 09 at Mon Aug 22 15:28:15 2022.
