 Gaussian 09, Revision E.01,
 Gaussian 09:  ES64L-G09RevE.01 30-Nov-2015

 -----
 #P G4
 -----

 --------
 Frag_941
 --------
 Symbolic Z-matrix:
 Charge =  0 Multiplicity = 1

 SCF Done:  E(RB3LYP) =  -284.274770478     A.U. after   15 cycles
 SCF Done:  E(RB3LYP) =  -284.297532788     A.U. after   14 cycles
 SCF Done:  E(RB3LYP) =  -284.300491936     A.U. after   13 cycles
 SCF Done:  E(RB3LYP) =  -284.302568102     A.U. after   12 cycles
 SCF Done:  E(RB3LYP) =  -284.302795476     A.U. after   10 cycles
 SCF Done:  E(RB3LYP) =  -284.302854871     A.U. after   10 cycles
 SCF Done:  E(RB3LYP) =  -284.302859109     A.U. after    8 cycles
 SCF Done:  E(RB3LYP) =  -284.302859953     A.U. after    8 cycles
 Optimization completed.
    -- Stationary point found.
 Normal termination of Gaussian 09 at Fri Aug 26 05:11:48 2022.

 ----------------------------------------------------------
 #P Geom=AllCheck Guess=TCheck SCRF=Check B3LYP/GTBas3 Freq
 ----------------------------------------------------------

 Structure from the checkpoint file:  "G4.Frag_941.chk"
 --------
 Frag_941
 --------
 Charge =  0 Multiplicity = 1

 SCF Done:  E(RB3LYP) =  -284.302859953     A.U. after    1 cycles

  Exact polarizability:  50.487   0.251  46.530  -0.001   0.000  24.947
 Approx polarizability:  74.489  11.034  89.315  -0.001   0.000  36.004

                      1                      2                      3
                      A                      A                      A
 Frequencies --     64.5967               285.5212               365.3040
 Red. masses --      3.6551                 1.0656                 3.0565
 Frc consts  --      0.0090                 0.0512                 0.2403
 IR Inten    --      0.6502                 0.1978                 0.9279

                      4                      5                      6
                      A                      A                      A
 Frequencies --    538.3088               558.7943               598.9467
 Red. masses --      7.5291                 2.7095                 1.2758
 Frc consts  --      1.2855                 0.4985                 0.2697
 IR Inten    --      4.6043                 0.8461                17.1892

                      7                      8                      9
                      A                      A                      A
 Frequencies --    670.6672               727.5463               742.0291
 Red. masses --      1.5716                 2.4343                 4.2381
 Frc consts  --      0.4165                 0.7592                 1.3749
 IR Inten    --     23.9477                31.4085               131.4383

                     10                     11                     12
                      A                      A                      A
 Frequencies --   1048.9111              1131.7029              1166.8854
 Red. masses --      6.1979                 1.9455                 1.2754
 Frc consts  --      4.0176                 1.4681                 1.0232
 IR Inten    --     92.1021                 7.9233                 1.0689

                     13                     14                     15
                      A                      A                      A
 Frequencies --   1199.2820              1289.5168              1457.0485
 Red. masses --      1.5232                 2.5034                 1.1992
 Frc consts  --      1.2908                 2.4526                 1.5000
 IR Inten    --      0.0058                92.3908                 9.0992

                     16                     17                     18
                      A                      A                      A
 Frequencies --   1480.2740              1481.7076              1512.2663
 Red. masses --      1.0468                 1.2416                 1.0840
 Frc consts  --      1.3514                 1.6060                 1.4606
 IR Inten    --      7.0268                31.9258                 2.3279

                     19                     20                     21
                      A                      A                      A
 Frequencies --   1716.2742              3010.2712              3079.5508
 Red. masses --     11.2391                 1.0324                 1.1061
 Frc consts  --     19.5053                 5.5119                 6.1802
 IR Inten    --    312.5196                22.5982                30.5736

                     22                     23                     24
                      A                      A                      A
 Frequencies --   3131.9498              3229.6561              3362.3422
 Red. masses --      1.1001                 1.0517                 1.1235
 Frc consts  --      6.3576                 6.4630                 7.4836
 IR Inten    --      7.6805                 6.0564                 0.6573

 - Thermochemistry -
 -------------------
 Temperature   298.150 Kelvin.  Pressure   1.00000 Atm.
 Atom     1 has atomic number  6 and mass  12.00000

 Molecular mass:    75.03203 amu.
 Principal axes and moments of inertia in atomic units:
                           1         2         3
     Eigenvalues --   169.84832 405.55202 563.77299
           X            0.99978  -0.02093   0.00000
           Y            0.02093   0.99978   0.00001
           Z           -0.00000  -0.00001   1.00000
 This molecule is an asymmetric top.
 Rotational symmetry number  1.
 Rotational temperatures (Kelvin)      0.50995     0.21357     0.15363
 Rotational constants (GHZ):          10.62561     4.45009     3.20118
 Zero-point vibrational energy     202464.1 (Joules/Mol)
                                   48.39008 (Kcal/Mol)
 Warning -- explicit consideration of   6 degrees of freedom as
           vibrations may cause significant error
 Vibrational temperatures:     92.94   410.80   525.59   774.51   803.98
          (Kelvin)            861.75   964.94  1046.78  1067.61  1509.15
                             1628.27  1678.89  1725.50  1855.32  2096.37
                             2129.78  2131.84  2175.81  2469.33  4331.10
                             4430.78  4506.17  4646.75  4837.65

 Zero-point correction=                           0.077115 (Hartree/Particle)
 Thermal correction to Energy=                    0.082524
 Thermal correction to Enthalpy=                  0.083468
 Thermal correction to Gibbs Free Energy=         0.048466
 Sum of electronic and zero-point Energies=           -284.225745
 Sum of electronic and thermal Energies=              -284.220336
 Sum of electronic and thermal Enthalpies=            -284.219392
 Sum of electronic and thermal Free Energies=         -284.254394

                     E (Thermal)             CV                S
                      KCal/Mol        Cal/Mol-Kelvin    Cal/Mol-Kelvin
 Total                   51.785             18.432             73.668
 Electronic               0.000              0.000              0.000
 Translational            0.889              2.981             38.862
 Rotational               0.889              2.981             25.166
 Vibrational             50.007             12.471              9.640
 Vibration     1          0.597              1.971              4.312
 Vibration     2          0.683              1.701              1.500
 Vibration     3          0.739              1.544              1.099
 Vibration     4          0.893              1.165              0.569
 Vibration     5          0.914              1.120              0.526
 Vibration     6          0.957              1.034              0.451

 Optimization completed.
    -- Stationary point found.
 Normal termination of Gaussian 09 at Fri Aug 26 05:12:07 2022.

 -----------------------------------------------------------------
 #P Geom=AllCheck Guess=TCheck SCRF=Check CCSD(T,E4T,FrzG4)/GTBas1
 -----------------------------------------------------------------

 Structure from the checkpoint file:  "G4.Frag_941.chk"
 --------
 Frag_941
 --------
 Charge =  0 Multiplicity = 1

 SCF Done:  E(RHF) =  -282.634976675     A.U. after   14 cycles
 E2 =    -0.8043709158D+00 EUMP2 =    -0.28343934759118D+03
 CCSD(T)
 CCSD(T)= -0.28349321364D+03
 Normal termination of Gaussian 09 at Fri Aug 26 05:13:03 2022.

 ---------------------------------------------------------
 #P Geom=AllCheck Guess=TCheck SCRF=Check MP4=FrzG4/GTBas2
 ---------------------------------------------------------

 Structure from the checkpoint file:  "G4.Frag_941.chk"
 --------
 Frag_941
 --------
 Charge =  0 Multiplicity = 1

 SCF Done:  E(RHF) =  -282.645616292     A.U. after   13 cycles
 E2 =    -0.8157285362D+00 EUMP2 =    -0.28346134482782D+03
 Normal termination of Gaussian 09 at Fri Aug 26 05:13:18 2022.

 ---------------------------------------------------------
 #P Geom=AllCheck Guess=TCheck SCRF=Check MP4=FrzG4/GTBas3
 ---------------------------------------------------------

 Structure from the checkpoint file:  "G4.Frag_941.chk"
 --------
 Frag_941
 --------
 Charge =  0 Multiplicity = 1

 SCF Done:  E(RHF) =  -282.668609425     A.U. after   12 cycles
 E2 =    -0.9794106255D+00 EUMP2 =    -0.28364802005007D+03
 Normal termination of Gaussian 09 at Fri Aug 26 05:14:26 2022.

 -----------------------------------------------------------
 #P Geom=AllCheck Guess=TCheck SCRF=Check MP2=Full/GTLargeXP
 -----------------------------------------------------------

 Structure from the checkpoint file:  "G4.Frag_941.chk"
 --------
 Frag_941
 --------
 Charge =  0 Multiplicity = 1

 SCF Done:  E(RHF) =  -282.747052851     A.U. after   13 cycles
 E2 =    -0.1268755384D+01 EUMP2 =    -0.28401580823508D+03
 Normal termination of Gaussian 09 at Fri Aug 26 05:15:08 2022.
 SCF Done:  E(RHF) =  -282.771002378     A.U. after   10 cycles
 Normal termination of Gaussian 09 at Fri Aug 26 05:15:59 2022.

                         Standard orientation:
 ---------------------------------------------------------------------
 Center     Atomic      Atomic             Coordinates (Angstroms)
 Number     Number       Type             X           Y           Z
 ---------------------------------------------------------------------
      1          6           0       -0.619301    1.294744   -0.000003
      2          7           0       -0.631018   -0.009397   -0.000115
      3          8           0       -1.586488   -0.768877    0.000060
      4          8           0        0.608976   -0.735567   -0.000014
      5          6           0        1.806570    0.025160    0.000028
      6          1           0        0.301435    1.845691    0.000036
      7          1           0       -1.587469    1.767898    0.000130
      8          1           0        1.899816    0.646880    0.898717
      9          1           0        2.599921   -0.725366    0.000100
     10          1           0        1.899911    0.646811   -0.898700
 ---------------------------------------------------------------------

 SCF Done:  E(RHF) =  -282.775874561     A.U. after    8 cycles

 The electronic state is 1-A.
 Alpha  occ. eigenvalues --  -20.63717 -20.54401 -15.80692 -11.30822 -11.28846
 Alpha  occ. eigenvalues --   -1.54264  -1.38421  -1.15199  -0.98614  -0.82725
 Alpha  occ. eigenvalues --   -0.76568  -0.71524  -0.71031  -0.63083  -0.62263
 Alpha  occ. eigenvalues --   -0.60475  -0.55362  -0.49000  -0.45165  -0.35753
 Alpha virt. eigenvalues --    0.03012   0.03746   0.04607   0.05541   0.06601
 Alpha virt. eigenvalues --    0.06724   0.07895   0.10631   0.12006   0.12971
 Alpha virt. eigenvalues --    0.13763   0.14161   0.16152   0.17298   0.17593

 Mulliken charges:
               1
     1  C   -0.372290
     2  N    0.437860
     3  O   -0.540805
     4  O   -0.218575
     5  C   -0.338246
     6  H    0.216874
     7  H    0.248387
     8  H    0.174128
     9  H    0.218534
    10  H    0.174132
 Sum of Mulliken charges =  -0.00000

 Dipole moment (field-independent basis, Debye):
    X=              3.6757    Y=              3.8012    Z=              0.0000  Tot=              5.2877
 Quadrupole moment (field-independent basis, Debye-Ang):
   XX=            -29.1412   YY=            -29.6038   ZZ=            -30.6123
   XY=             -3.5374   XZ=              0.0001   YZ=              0.0006

 Normal termination of Gaussian 09 at Fri Aug 26 05:20:41 2022.
