 Gaussian 09, Revision E.01,
 Gaussian 09:  ES64L-G09RevE.01 30-Nov-2015

 -----
 #P G4
 -----

 --------
 Frag_966
 --------
 Symbolic Z-matrix:
 Charge =  0 Multiplicity = 1

 SCF Done:  E(RB3LYP) =  -226.444338117     A.U. after   12 cycles
 SCF Done:  E(RB3LYP) =  -226.449085240     A.U. after   11 cycles
 SCF Done:  E(RB3LYP) =  -226.449431026     A.U. after   10 cycles
 SCF Done:  E(RB3LYP) =  -226.449498269     A.U. after    9 cycles
 SCF Done:  E(RB3LYP) =  -226.449520550     A.U. after    9 cycles
 SCF Done:  E(RB3LYP) =  -226.449524910     A.U. after    8 cycles
 SCF Done:  E(RB3LYP) =  -226.449535713     A.U. after    9 cycles
 SCF Done:  E(RB3LYP) =  -226.449548105     A.U. after   10 cycles
 SCF Done:  E(RB3LYP) =  -226.449554105     A.U. after    9 cycles
 SCF Done:  E(RB3LYP) =  -226.449557520     A.U. after    9 cycles
 SCF Done:  E(RB3LYP) =  -226.449559872     A.U. after    7 cycles
 SCF Done:  E(RB3LYP) =  -226.449562103     A.U. after    7 cycles
 SCF Done:  E(RB3LYP) =  -226.449562491     A.U. after    6 cycles
 Optimization completed.
    -- Stationary point found.
 Normal termination of Gaussian 09 at Fri Aug 26 11:14:04 2022.

 ----------------------------------------------------------
 #P Geom=AllCheck Guess=TCheck SCRF=Check B3LYP/GTBas3 Freq
 ----------------------------------------------------------

 Structure from the checkpoint file:  "G4.Frag_966.chk"
 --------
 Frag_966
 --------
 Charge =  0 Multiplicity = 1

 SCF Done:  E(RB3LYP) =  -226.449562491     A.U. after    1 cycles

  Exact polarizability:  32.728  -0.381  29.788  -0.676  -0.594  31.707
 Approx polarizability:  42.366  -1.100  41.163  -1.150  -0.835  46.370

                      1                      2                      3
                      A                      A                      A
 Frequencies --    120.5086               234.8789               326.5092
 Red. masses --      1.0794                 1.0530                 1.0903
 Frc consts  --      0.0092                 0.0342                 0.0685
 IR Inten    --     42.1591                48.9805                54.6363

                      4                      5                      6
                      A                      A                      A
 Frequencies --    443.1975               483.5493               575.0313
 Red. masses --      2.5467                 4.0707                 2.2004
 Frc consts  --      0.2947                 0.5608                 0.4287
 IR Inten    --     44.8682                16.0169                17.9744

                      7                      8                      9
                      A                      A                      A
 Frequencies --    846.8802               882.0908               926.3943
 Red. masses --      2.0674                 1.6137                 2.2502
 Frc consts  --      0.8736                 0.7398                 1.1378
 IR Inten    --     83.1231               198.3166                88.6201

                     10                     11                     12
                      A                      A                      A
 Frequencies --   1019.5822              1096.0932              1186.6618
 Red. masses --      1.8978                 1.9926                 1.5382
 Frc consts  --      1.1623                 1.4105                 1.2762
 IR Inten    --     85.5760               109.2304                94.7293

                     13                     14                     15
                      A                      A                      A
 Frequencies --   1218.0477              1384.2580              1408.9639
 Red. masses --      1.4877                 1.5004                 1.1648
 Frc consts  --      1.3005                 1.6939                 1.3624
 IR Inten    --     11.9158                 0.9144                20.4743

                     16                     17                     18
                      A                      A                      A
 Frequencies --   1434.7600              1644.0654              1650.8801
 Red. masses --      1.3155                 1.1003                 1.1044
 Frc consts  --      1.5955                 1.7523                 1.7734
 IR Inten    --     58.1369                35.3611                22.2869

                     19                     20                     21
                      A                      A                      A
 Frequencies --   3057.1176              3462.7250              3465.3425
 Red. masses --      1.0866                 1.0486                 1.0503
 Frc consts  --      5.9834                 7.4079                 7.4310
 IR Inten    --     30.2777                 1.5250                 0.8766

                     22                     23                     24
                      A                      A                      A
 Frequencies --   3552.5487              3554.1780              3784.4153
 Red. masses --      1.0922                 1.0899                 1.0655
 Frc consts  --      8.1211                 8.1114                 8.9908
 IR Inten    --      0.1227                 0.6172                 7.7105

 - Thermochemistry -
 -------------------
 Temperature   298.150 Kelvin.  Pressure   1.00000 Atm.
 Atom     1 has atomic number  7 and mass  14.00307

 Molecular mass:    62.04801 amu.
 Principal axes and moments of inertia in atomic units:
                           1         2         3
     Eigenvalues --   200.30716 202.19394 351.29947
           X            0.99723  -0.07422  -0.00467
           Y            0.07419   0.99723  -0.00541
           Z            0.00506   0.00505   0.99997
 This molecule is an asymmetric top.
 Rotational symmetry number  1.
 Rotational temperatures (Kelvin)      0.43240     0.42837     0.24655
 Rotational constants (GHZ):           9.00987     8.92579     5.13733
 Zero-point vibrational energy     225847.1 (Joules/Mol)
                                   53.97874 (Kcal/Mol)
 Warning -- explicit consideration of   6 degrees of freedom as
           vibrations may cause significant error
 Vibrational temperatures:    173.38   337.94   469.77   637.66   695.72
          (Kelvin)            827.34  1218.47  1269.13  1332.87  1466.95
                             1577.03  1707.34  1752.50  1991.64  2027.18
                             2064.30  2365.44  2375.25  4398.50  4982.08
                             4985.85  5111.32  5113.66  5444.92

 Zero-point correction=                           0.086021 (Hartree/Particle)
 Thermal correction to Energy=                    0.091418
 Thermal correction to Enthalpy=                  0.092362
 Thermal correction to Gibbs Free Energy=         0.058423
 Sum of electronic and zero-point Energies=           -226.363542
 Sum of electronic and thermal Energies=              -226.358145
 Sum of electronic and thermal Enthalpies=            -226.357200
 Sum of electronic and thermal Free Energies=         -226.391139

                     E (Thermal)             CV                S
                      KCal/Mol        Cal/Mol-Kelvin    Cal/Mol-Kelvin
 Total                   57.366             18.062             71.431
 Electronic               0.000              0.000              0.000
 Translational            0.889              2.981             38.295
 Rotational               0.889              2.981             24.168
 Vibrational             55.588             12.100              8.967
 Vibration     1          0.609              1.932              3.092
 Vibration     2          0.655              1.787              1.841
 Vibration     3          0.710              1.622              1.277
 Vibration     4          0.803              1.376              0.817
 Vibration     5          0.840              1.287              0.701
 Vibration     6          0.931              1.085              0.495

 Optimization completed.
    -- Stationary point found.
 Normal termination of Gaussian 09 at Fri Aug 26 11:14:18 2022.

 -----------------------------------------------------------------
 #P Geom=AllCheck Guess=TCheck SCRF=Check CCSD(T,E4T,FrzG4)/GTBas1
 -----------------------------------------------------------------

 Structure from the checkpoint file:  "G4.Frag_966.chk"
 --------
 Frag_966
 --------
 Charge =  0 Multiplicity = 1

 SCF Done:  E(RHF) =  -225.095072670     A.U. after   12 cycles
 E2 =    -0.6381382381D+00 EUMP2 =    -0.22573321090821D+03
 CCSD(T)
 CCSD(T)= -0.22578309204D+03
 Normal termination of Gaussian 09 at Fri Aug 26 11:14:44 2022.

 ---------------------------------------------------------
 #P Geom=AllCheck Guess=TCheck SCRF=Check MP4=FrzG4/GTBas2
 ---------------------------------------------------------

 Structure from the checkpoint file:  "G4.Frag_966.chk"
 --------
 Frag_966
 --------
 Charge =  0 Multiplicity = 1

 SCF Done:  E(RHF) =  -225.105990079     A.U. after   11 cycles
 E2 =    -0.6509726529D+00 EUMP2 =    -0.22575696273221D+03
 Normal termination of Gaussian 09 at Fri Aug 26 11:14:52 2022.

 ---------------------------------------------------------
 #P Geom=AllCheck Guess=TCheck SCRF=Check MP4=FrzG4/GTBas3
 ---------------------------------------------------------

 Structure from the checkpoint file:  "G4.Frag_966.chk"
 --------
 Frag_966
 --------
 Charge =  0 Multiplicity = 1

 SCF Done:  E(RHF) =  -225.132949956     A.U. after   11 cycles
 E2 =    -0.7896780402D+00 EUMP2 =    -0.22592262799603D+03
 Normal termination of Gaussian 09 at Fri Aug 26 11:15:25 2022.

 -----------------------------------------------------------
 #P Geom=AllCheck Guess=TCheck SCRF=Check MP2=Full/GTLargeXP
 -----------------------------------------------------------

 Structure from the checkpoint file:  "G4.Frag_966.chk"
 --------
 Frag_966
 --------
 Charge =  0 Multiplicity = 1

 SCF Done:  E(RHF) =  -225.199485277     A.U. after   11 cycles
 E2 =    -0.1026212808D+01 EUMP2 =    -0.22622569808477D+03
 Normal termination of Gaussian 09 at Fri Aug 26 11:15:44 2022.
 SCF Done:  E(RHF) =  -225.217632206     A.U. after    8 cycles
 Normal termination of Gaussian 09 at Fri Aug 26 11:16:10 2022.

                         Standard orientation:
 ---------------------------------------------------------------------
 Center     Atomic      Atomic             Coordinates (Angstroms)
 Number     Number       Type             X           Y           Z
 ---------------------------------------------------------------------
      1          7           0       -0.835699   -1.088757   -0.066036
      2          6           0       -0.002911    0.024462    0.366958
      3          7           0        1.385450   -0.145729   -0.030712
      4          8           0       -0.474248    1.297097   -0.031117
      5          1           0       -1.805685   -0.907027    0.180790
      6          1           0       -0.795141   -1.181003   -1.079286
      7          1           0       -0.043247    0.052746    1.461769
      8          1           0        1.464546   -0.058606   -1.042571
      9          1           0        1.673139   -1.093983    0.197824
     10          1           0       -0.530422    1.305731   -0.994093
 ---------------------------------------------------------------------

 SCF Done:  E(RHF) =  -225.221807314     A.U. after    8 cycles

 The electronic state is 1-A.
 Alpha  occ. eigenvalues --  -20.56221 -15.55328 -15.54865 -11.33912  -1.38388
 Alpha  occ. eigenvalues --   -1.20831  -1.13784  -0.86964  -0.70505  -0.69550
 Alpha  occ. eigenvalues --   -0.65265  -0.63371  -0.58132  -0.52382  -0.49468
 Alpha  occ. eigenvalues --   -0.42578  -0.41399
 Alpha virt. eigenvalues --    0.03746   0.05180   0.05514   0.06010   0.09837
 Alpha virt. eigenvalues --    0.09912   0.09933   0.10489   0.10625   0.13254
 Alpha virt. eigenvalues --    0.15714   0.16335   0.17972   0.18266   0.19992

 Mulliken charges:
               1
     1  N   -0.687627
     2  C    0.249615
     3  N   -0.660390
     4  O   -0.546215
     5  H    0.298869
     6  H    0.268243
     7  H    0.176994
     8  H    0.257590
     9  H    0.304186
    10  H    0.338735
 Sum of Mulliken charges =  -0.00000

 Dipole moment (field-independent basis, Debye):
    X=             -0.8583    Y=             -1.3143    Z=             -2.2976  Tot=              2.7826
 Quadrupole moment (field-independent basis, Debye-Ang):
   XX=            -25.3652   YY=            -30.1901   ZZ=            -20.4865
   XY=             -1.6549   XZ=             -0.4189   YZ=             -1.2016

 Normal termination of Gaussian 09 at Fri Aug 26 11:19:00 2022.
