 Gaussian 09, Revision E.01,
 Gaussian 09:  ES64L-G09RevE.01 30-Nov-2015

 -----
 #P G4
 -----

 --------
 Frag_440
 --------
 Symbolic Z-matrix:
 Charge =  0 Multiplicity = 1

 SCF Done:  E(RB3LYP) =  -287.865100524     A.U. after   13 cycles
 SCF Done:  E(RB3LYP) =  -287.865144920     A.U. after   10 cycles
 SCF Done:  E(RB3LYP) =  -287.865146661     A.U. after    8 cycles
 SCF Done:  E(RB3LYP) =  -287.865146666     A.U. after    8 cycles
 SCF Done:  E(RB3LYP) =  -287.865147470     A.U. after    7 cycles
 SCF Done:  E(RB3LYP) =  -287.865147380     A.U. after    7 cycles
 SCF Done:  E(RB3LYP) =  -287.865148804     A.U. after    9 cycles
 SCF Done:  E(RB3LYP) =  -287.865159297     A.U. after   10 cycles
 SCF Done:  E(RB3LYP) =  -287.848427657     A.U. after   13 cycles
 SCF Done:  E(RB3LYP) =  -287.865160688     A.U. after    7 cycles
 SCF Done:  E(RB3LYP) =  -287.865744863     A.U. after    8 cycles
 SCF Done:  E(RB3LYP) =  -287.865746005     A.U. after    8 cycles
 SCF Done:  E(RB3LYP) =  -287.865745951     A.U. after    7 cycles
 Optimization completed.
    -- Stationary point found.
 Normal termination of Gaussian 09 at Thu Sep  1 14:29:55 2022.

 ----------------------------------------------------------
 #P Geom=AllCheck Guess=TCheck SCRF=Check B3LYP/GTBas3 Freq
 ----------------------------------------------------------

 Structure from the checkpoint file:  "G4.Frag_440.chk"
 --------
 Frag_440
 --------
 Charge =  0 Multiplicity = 1

 SCF Done:  E(RB3LYP) =  -287.865745951     A.U. after    1 cycles

  Exact polarizability:  58.385  -0.865  58.438   1.400  -2.234  42.661
 Approx polarizability:  76.912   2.606  87.140   1.492  -6.126  63.977

                      1                      2                      3
                      A                      A                      A
 Frequencies --     29.8404               159.1985               235.5609
 Red. masses --      4.2318                 1.2282                 1.1408
 Frc consts  --      0.0022                 0.0183                 0.0373
 IR Inten    --      3.3119               153.5216                 0.0913

                      4                      5                      6
                      A                      A                      A
 Frequencies --    270.9180               280.0291               329.9241
 Red. masses --      2.3486                 1.1913                 1.9591
 Frc consts  --      0.1016                 0.0550                 0.1256
 IR Inten    --      7.8752                11.8404                 1.2093

                      7                      8                      9
                      A                      A                      A
 Frequencies --    355.4189               486.7117               524.4870
 Red. masses --      2.2338                 2.7552                 3.5217
 Frc consts  --      0.1663                 0.3845                 0.5708
 IR Inten    --      2.8001                 4.8716                 9.5919

                     10                     11                     12
                      A                      A                      A
 Frequencies --    592.2351               730.5019               770.5339
 Red. masses --      1.1950                 3.0927                 2.7407
 Frc consts  --      0.2470                 0.9724                 0.9587
 IR Inten    --      9.3506                 7.1125                 7.1776

                     13                     14                     15
                      A                      A                      A
 Frequencies --    906.7062               929.6026               969.4891
 Red. masses --      2.2323                 1.1666                 1.4014
 Frc consts  --      1.0813                 0.5940                 0.7761
 IR Inten    --      3.0094                 0.4429                 0.6599

                     16                     17                     18
                      A                      A                      A
 Frequencies --   1071.5837              1114.1864              1143.7507
 Red. masses --      1.8896                 1.5626                 2.3222
 Frc consts  --      1.2784                 1.1430                 1.7899
 IR Inten    --      6.0839                 8.8303                 2.6282

                     19                     20                     21
                      A                      A                      A
 Frequencies --   1190.1585              1318.6441              1336.6659
 Red. masses --      1.8824                 1.3916                 1.5645
 Frc consts  --      1.5710                 1.4257                 1.6469
 IR Inten    --      6.8809                 8.5633                31.3728

                     22                     23                     24
                      A                      A                      A
 Frequencies --   1356.5061              1392.0307              1418.6668
 Red. masses --      2.7144                 1.2276                 1.2774
 Frc consts  --      2.9429                 1.4015                 1.5148
 IR Inten    --     75.9719                 5.5438                12.3060

                     25                     26                     27
                      A                      A                      A
 Frequencies --   1491.8053              1495.7262              1506.8718
 Red. masses --      1.0511                 1.0486                 1.0445
 Frc consts  --      1.3783                 1.3822                 1.3973
 IR Inten    --      3.1745                 1.0692                 4.3510

                     28                     29                     30
                      A                      A                      A
 Frequencies --   1518.3569              1614.6022              1785.8327
 Red. masses --      1.0628                 1.2489                 9.5142
 Frc consts  --      1.4437                 1.9183                17.8774
 IR Inten    --     19.7639               107.8533               265.6716

                     31                     32                     33
                      A                      A                      A
 Frequencies --   3023.1813              3026.1040              3036.4179
 Red. masses --      1.0532                 1.0625                 1.0404
 Frc consts  --      5.6713                 5.7326                 5.6515
 IR Inten    --      8.0752                15.6249                28.9717

                     34                     35                     36
                      A                      A                      A
 Frequencies --   3090.5551              3099.5554              3102.5900
 Red. masses --      1.1004                 1.1010                 1.0996
 Frc consts  --      6.1924                 6.2320                 6.2364
 IR Inten    --     20.0230                18.6306                46.1777

                     37                     38                     39
                      A                      A                      A
 Frequencies --   3141.5075              3610.8573              3750.8093
 Red. masses --      1.0997                 1.0454                 1.1030
 Frc consts  --      6.3945                 8.0310                 9.1430
 IR Inten    --      9.6292                27.9620                37.4121

 - Thermochemistry -
 -------------------
 Temperature   298.150 Kelvin.  Pressure   1.00000 Atm.
 Atom     1 has atomic number  6 and mass  12.00000

 Molecular mass:    87.06841 amu.
 Principal axes and moments of inertia in atomic units:
                           1         2         3
     Eigenvalues --   379.72850 566.53767 852.82404
           X            0.99761  -0.06878   0.00628
           Y            0.06872   0.99760   0.00896
           Z           -0.00688  -0.00851   0.99994
 This molecule is an asymmetric top.
 Rotational symmetry number  1.
 Rotational temperatures (Kelvin)      0.22809     0.15288     0.10156
 Rotational constants (GHZ):           4.75271     3.18556     2.11619
 Zero-point vibrational energy     342180.6 (Joules/Mol)
                                   81.78312 (Kcal/Mol)
 Warning -- explicit consideration of  10 degrees of freedom as
           vibrations may cause significant error
 Vibrational temperatures:     42.93   229.05   338.92   389.79   402.90
          (Kelvin)            474.69   511.37   700.27   754.62   852.09
                             1051.03  1108.62  1304.55  1337.49  1394.88
                             1541.77  1603.06  1645.60  1712.37  1897.23
                             1923.16  1951.71  2002.82  2041.14  2146.37
                             2152.01  2168.05  2184.57  2323.05  2569.41
                             4349.68  4353.88  4368.72  4446.61  4459.56
                             4463.93  4519.92  5195.21  5396.57

 Zero-point correction=                           0.130330 (Hartree/Particle)
 Thermal correction to Energy=                    0.137911
 Thermal correction to Enthalpy=                  0.138855
 Thermal correction to Gibbs Free Energy=         0.098569
 Sum of electronic and zero-point Energies=           -287.735416
 Sum of electronic and thermal Energies=              -287.727835
 Sum of electronic and thermal Enthalpies=            -287.726891
 Sum of electronic and thermal Free Energies=         -287.767177

                     E (Thermal)             CV                S
                      KCal/Mol        Cal/Mol-Kelvin    Cal/Mol-Kelvin
 Total                   86.540             26.605             84.788
 Electronic               0.000              0.000              0.000
 Translational            0.889              2.981             39.305
 Rotational               0.889              2.981             26.709
 Vibrational             84.763             20.644             18.774
 Vibration     1          0.594              1.984              5.840
 Vibration     2          0.621              1.892              2.559
 Vibration     3          0.655              1.786              1.836
 Vibration     4          0.675              1.727              1.590
 Vibration     5          0.680              1.711              1.533
 Vibration     6          0.713              1.616              1.260
 Vibration     7          0.731              1.564              1.142
 Vibration     8          0.843              1.280              0.692
 Vibration     9          0.879              1.196              0.600
 Vibration    10          0.950              1.048              0.463

 Optimization completed.
    -- Stationary point found.
 Normal termination of Gaussian 09 at Thu Sep  1 14:30:30 2022.

 -----------------------------------------------------------------
 #P Geom=AllCheck Guess=TCheck SCRF=Check CCSD(T,E4T,FrzG4)/GTBas1
 -----------------------------------------------------------------

 Structure from the checkpoint file:  "G4.Frag_440.chk"
 --------
 Frag_440
 --------
 Charge =  0 Multiplicity = 1

 SCF Done:  E(RHF) =  -286.042119792     A.U. after   13 cycles
 E2 =    -0.8589706126D+00 EUMP2 =    -0.28690109040427D+03
 CCSD(T)
 CCSD(T)= -0.28697986942D+03
 286.9517257\CCSD(T)=-286.9798694\RMSD=7.083e-09\PG=C01 [X(C4H9N1O1)]\\
 Normal termination of Gaussian 09 at Thu Sep  1 14:32:41 2022.

 ---------------------------------------------------------
 #P Geom=AllCheck Guess=TCheck SCRF=Check MP4=FrzG4/GTBas2
 ---------------------------------------------------------

 Structure from the checkpoint file:  "G4.Frag_440.chk"
 --------
 Frag_440
 --------
 Charge =  0 Multiplicity = 1

 SCF Done:  E(RHF) =  -286.050218361     A.U. after   12 cycles
 E2 =    -0.8708857628D+00 EUMP2 =    -0.28692110412394D+03
 Normal termination of Gaussian 09 at Thu Sep  1 14:33:28 2022.

 ---------------------------------------------------------
 #P Geom=AllCheck Guess=TCheck SCRF=Check MP4=FrzG4/GTBas3
 ---------------------------------------------------------

 Structure from the checkpoint file:  "G4.Frag_440.chk"
 --------
 Frag_440
 --------
 Charge =  0 Multiplicity = 1

 SCF Done:  E(RHF) =  -286.078309399     A.U. after   11 cycles
 E2 =    -0.1059645764D+01 EUMP2 =    -0.28713795516368D+03
 Normal termination of Gaussian 09 at Thu Sep  1 14:37:19 2022.

 -----------------------------------------------------------
 #P Geom=AllCheck Guess=TCheck SCRF=Check MP2=Full/GTLargeXP
 -----------------------------------------------------------

 Structure from the checkpoint file:  "G4.Frag_440.chk"
 --------
 Frag_440
 --------
 Charge =  0 Multiplicity = 1

 SCF Done:  E(RHF) =  -286.149883471     A.U. after   12 cycles
 E2 =    -0.1390959344D+01 EUMP2 =    -0.28754084281459D+03
 Normal termination of Gaussian 09 at Thu Sep  1 14:39:30 2022.
 SCF Done:  E(RHF) =  -286.172461395     A.U. after    8 cycles
 Normal termination of Gaussian 09 at Thu Sep  1 14:41:30 2022.

                         Standard orientation:
 ---------------------------------------------------------------------
 Center     Atomic      Atomic             Coordinates (Angstroms)
 Number     Number       Type             X           Y           Z
 ---------------------------------------------------------------------
      1          6           0       -1.339001    1.226895    0.408611
      2          6           0       -0.669558    0.088791   -0.379483
      3          6           0       -1.371083   -1.255028   -0.149106
      4          6           0        0.842378    0.117656   -0.099675
      5          7           0        1.421555   -1.046401    0.315591
      6          8           0        1.491522    1.135092   -0.256928
      7          1           0       -2.381423    1.349509    0.099200
      8          1           0       -0.804463    2.163035    0.239437
      9          1           0       -1.329817    1.016321    1.484270
     10          1           0       -0.745658    0.337627   -1.446149
     11          1           0       -2.427310   -1.181108   -0.425363
     12          1           0       -0.934554   -2.057819   -0.752812
     13          1           0       -1.336904   -1.552605    0.905988
     14          1           0        0.897261   -1.876329    0.522188
     15          1           0        2.403395   -1.024446    0.537451
 ---------------------------------------------------------------------

 SCF Done:  E(RHF) =  -286.177218297     A.U. after    8 cycles

 The electronic state is 1-A.
 Alpha  occ. eigenvalues --  -20.50938 -15.58162 -11.34639 -11.24707 -11.23338
 Alpha  occ. eigenvalues --  -11.21867  -1.37672  -1.20881  -1.07937  -0.94262
 Alpha  occ. eigenvalues --   -0.87096  -0.77548  -0.72811  -0.65579  -0.63410
 Alpha  occ. eigenvalues --   -0.60232  -0.57342  -0.55832  -0.54778  -0.52207
 Alpha  occ. eigenvalues --   -0.48966  -0.48491  -0.41493  -0.41095
 Alpha virt. eigenvalues --    0.02907   0.04171   0.04411   0.04925   0.06670
 Alpha virt. eigenvalues --    0.07022   0.07193   0.07577   0.07727   0.09753
 Alpha virt. eigenvalues --    0.10697   0.10984   0.11291   0.11701   0.12934

 Mulliken charges:
               1
     1  C   -0.551937
     2  C    0.060187
     3  C   -0.597940
     4  C    0.535937
     5  N   -0.735814
     6  O   -0.636735
     7  H    0.159543
     8  H    0.212806
     9  H    0.157737
    10  H    0.174850
    11  H    0.185968
    12  H    0.175004
    13  H    0.168737
    14  H    0.332054
    15  H    0.359603
 Sum of Mulliken charges =  -0.00000

 Dipole moment (field-independent basis, Debye):
    X=             -1.8584    Y=             -3.5305    Z=              0.7959  Tot=              4.0684
 Quadrupole moment (field-independent basis, Debye-Ang):
   XX=            -38.3538   YY=            -38.5790   ZZ=            -37.8475
   XY=             -6.1086   XZ=              2.6802   YZ=             -0.6016

 Normal termination of Gaussian 09 at Thu Sep  1 14:49:23 2022.
