 Gaussian 09, Revision E.01,
 Gaussian 09:  ES64L-G09RevE.01 30-Nov-2015

 -----
 #P G4
 -----

 --------
 Frag_869
 --------
 Symbolic Z-matrix:
 Charge =  0 Multiplicity = 1

 SCF Done:  E(RB3LYP) =  -303.775589524     A.U. after   14 cycles
 SCF Done:  E(RB3LYP) =  -303.805316282     A.U. after   13 cycles
 SCF Done:  E(RB3LYP) =  -303.810091275     A.U. after   12 cycles
 SCF Done:  E(RB3LYP) =  -303.810793138     A.U. after   12 cycles
 SCF Done:  E(RB3LYP) =  -303.810886244     A.U. after   10 cycles
 SCF Done:  E(RB3LYP) =  -303.810897739     A.U. after    9 cycles
 Optimization completed.
    -- Stationary point found.
 Normal termination of Gaussian 09 at Fri Aug 26 14:13:41 2022.

 ----------------------------------------------------------
 #P Geom=AllCheck Guess=TCheck SCRF=Check B3LYP/GTBas3 Freq
 ----------------------------------------------------------

 Structure from the checkpoint file:  "G4.Frag_869.chk"
 --------
 Frag_869
 --------
 Charge =  0 Multiplicity = 1

 SCF Done:  E(RB3LYP) =  -303.810897739     A.U. after    1 cycles

  Exact polarizability:  60.550  -0.000  44.538   3.701   0.001  51.599
 Approx polarizability:  82.027   0.000  59.088  12.199   0.003 101.260

                      1                      2                      3
                      A                      A                      A
 Frequencies --     58.6101               203.7965               238.9203
 Red. masses --      4.6547                 1.0407                 1.0546
 Frc consts  --      0.0094                 0.0255                 0.0355
 IR Inten    --      0.3655                 0.0067                 0.5850

                      4                      5                      6
                      A                      A                      A
 Frequencies --    267.5912               306.9568               338.1035
 Red. masses --      2.8147                 3.2459                 2.6479
 Frc consts  --      0.1187                 0.1802                 0.1783
 IR Inten    --      0.7467                 2.9679                 1.1310

                      7                      8                      9
                      A                      A                      A
 Frequencies --    534.5623               626.2232               704.1368
 Red. masses --      3.6067                 2.8473                 3.3039
 Frc consts  --      0.6072                 0.6579                 0.9652
 IR Inten    --     16.2939                13.1926                 6.6815

                     10                     11                     12
                      A                      A                      A
 Frequencies --    799.2171               912.8170               934.6898
 Red. masses --      3.0769                 2.4461                 1.3552
 Frc consts  --      1.1580                 1.2008                 0.6976
 IR Inten    --     23.7587                 1.2180                57.2922

                     13                     14                     15
                      A                      A                      A
 Frequencies --    942.3444               963.5588              1120.2329
 Red. masses --      1.1819                 1.5145                 1.5598
 Frc consts  --      0.6184                 0.8284                 1.1533
 IR Inten    --      6.1747                 1.3100                18.9768

                     16                     17                     18
                      A                      A                      A
 Frequencies --   1149.8304              1201.7982              1276.8835
 Red. masses --      2.1603                 1.9104                 3.2742
 Frc consts  --      1.6828                 1.6257                 3.1453
 IR Inten    --      6.5591                 3.2054                20.7503

                     19                     20                     21
                      A                      A                      A
 Frequencies --   1334.3842              1360.5133              1394.2258
 Red. masses --      1.3939                 1.3707                 1.2819
 Frc consts  --      1.4623                 1.4948                 1.4682
 IR Inten    --     39.8109                 3.2500                 8.2882

                     22                     23                     24
                      A                      A                      A
 Frequencies --   1411.3652              1479.1658              1490.1792
 Red. masses --      1.2221                 1.0441                 1.0458
 Frc consts  --      1.4343                 1.3459                 1.3682
 IR Inten    --     16.7085                 0.8732                 0.1549

                     25                     26                     27
                      A                      A                      A
 Frequencies --   1493.3867              1510.7641              1528.3916
 Red. masses --      1.0530                 1.1277                 1.7110
 Frc consts  --      1.3837                 1.5165                 2.3549
 IR Inten    --     13.5580                 4.5256                22.3380

                     28                     29                     30
                      A                      A                      A
 Frequencies --   1612.5888              3049.7381              3053.0647
 Red. masses --      8.0240                 1.0342                 1.0351
 Frc consts  --     12.2939                 5.6675                 5.6847
 IR Inten    --    207.4627                17.0174                 7.5539

                     31                     32                     33
                      A                      A                      A
 Frequencies --   3111.9960              3122.1634              3125.1188
 Red. masses --      1.0878                 1.1024                 1.1020
 Frc consts  --      6.2068                 6.3311                 6.3411
 IR Inten    --      0.6946                10.5751                20.8337

                     34                     35                     36
                      A                      A                      A
 Frequencies --   3138.5254              3147.4559              3388.5783
 Red. masses --      1.1026                 1.0999                 1.0708
 Frc consts  --      6.3991                 6.4197                 7.2440
 IR Inten    --      2.0484                17.5605                 1.5686

 - Thermochemistry -
 -------------------
 Temperature   298.150 Kelvin.  Pressure   1.00000 Atm.
 Atom     1 has atomic number  6 and mass  12.00000

 Molecular mass:    88.06366 amu.
 Principal axes and moments of inertia in atomic units:
                           1         2         3
     Eigenvalues --   354.68920 629.95138 669.68475
           X            0.99996  -0.00001   0.00858
           Y            0.00001   1.00000  -0.00004
           Z           -0.00858   0.00004   0.99996
 This molecule is an asymmetric top.
 Rotational symmetry number  1.
 Rotational temperatures (Kelvin)      0.24420     0.13749     0.12934
 Rotational constants (GHZ):           5.08823     2.86489     2.69491
 Zero-point vibrational energy     313014.1 (Joules/Mol)
                                   74.81217 (Kcal/Mol)
 Warning -- explicit consideration of   7 degrees of freedom as
           vibrations may cause significant error
 Vibrational temperatures:     84.33   293.22   343.75   385.00   441.64
          (Kelvin)            486.45   769.11   900.99  1013.09  1149.89
                             1313.34  1344.81  1355.82  1386.34  1611.76
                             1654.35  1729.12  1837.15  1919.88  1957.47
                             2005.98  2030.64  2128.19  2144.03  2148.65
                             2173.65  2199.01  2320.15  4387.89  4392.67
                             4477.46  4492.09  4496.34  4515.63  4528.48
                             4875.40

 Zero-point correction=                           0.119221 (Hartree/Particle)
 Thermal correction to Energy=                    0.126032
 Thermal correction to Enthalpy=                  0.126976
 Thermal correction to Gibbs Free Energy=         0.088600
 Sum of electronic and zero-point Energies=           -303.691677
 Sum of electronic and thermal Energies=              -303.684866
 Sum of electronic and thermal Enthalpies=            -303.683922
 Sum of electronic and thermal Free Energies=         -303.722298

                     E (Thermal)             CV                S
                      KCal/Mol        Cal/Mol-Kelvin    Cal/Mol-Kelvin
 Total                   79.086             23.723             80.769
 Electronic               0.000              0.000              0.000
 Translational            0.889              2.981             39.339
 Rotational               0.889              2.981             26.506
 Vibrational             77.309             17.762             14.924
 Vibration     1          0.596              1.974              4.503
 Vibration     2          0.639              1.834              2.099
 Vibration     3          0.657              1.781              1.811
 Vibration     4          0.673              1.733              1.612
 Vibration     5          0.697              1.660              1.379
 Vibration     6          0.718              1.599              1.221
 Vibration     7          0.890              1.174              0.577

 Optimization completed.
    -- Stationary point found.
 Normal termination of Gaussian 09 at Fri Aug 26 14:14:14 2022.

 -----------------------------------------------------------------
 #P Geom=AllCheck Guess=TCheck SCRF=Check CCSD(T,E4T,FrzG4)/GTBas1
 -----------------------------------------------------------------

 Structure from the checkpoint file:  "G4.Frag_869.chk"
 --------
 Frag_869
 --------
 Charge =  0 Multiplicity = 1

 SCF Done:  E(RHF) =  -301.915647494     A.U. after   14 cycles
 E2 =    -0.9207566441D+00 EUMP2 =    -0.30283640413774D+03
 CCSD(T)
 CCSD(T)= -0.30290994063D+03
 SDQ=-302.8765059\CCSD=-302.8746635\CCSD(T)=-302.9099406\RMSD=3.845e-09
 Normal termination of Gaussian 09 at Fri Aug 26 14:16:16 2022.

 ---------------------------------------------------------
 #P Geom=AllCheck Guess=TCheck SCRF=Check MP4=FrzG4/GTBas2
 ---------------------------------------------------------

 Structure from the checkpoint file:  "G4.Frag_869.chk"
 --------
 Frag_869
 --------
 Charge =  0 Multiplicity = 1

 SCF Done:  E(RHF) =  -301.924236710     A.U. after   13 cycles
 E2 =    -0.9332545982D+00 EUMP2 =    -0.30285749130808D+03
 Normal termination of Gaussian 09 at Fri Aug 26 14:16:51 2022.

 ---------------------------------------------------------
 #P Geom=AllCheck Guess=TCheck SCRF=Check MP4=FrzG4/GTBas3
 ---------------------------------------------------------

 Structure from the checkpoint file:  "G4.Frag_869.chk"
 --------
 Frag_869
 --------
 Charge =  0 Multiplicity = 1

 SCF Done:  E(RHF) =  -301.951823387     A.U. after   12 cycles
 E2 =    -0.1120667412D+01 EUMP2 =    -0.30307249079879D+03
 Normal termination of Gaussian 09 at Fri Aug 26 14:20:19 2022.

 -----------------------------------------------------------
 #P Geom=AllCheck Guess=TCheck SCRF=Check MP2=Full/GTLargeXP
 -----------------------------------------------------------

 Structure from the checkpoint file:  "G4.Frag_869.chk"
 --------
 Frag_869
 --------
 Charge =  0 Multiplicity = 1

 SCF Done:  E(RHF) =  -302.027258737     A.U. after   13 cycles
 E2 =    -0.1455773476D+01 EUMP2 =    -0.30348303221284D+03
 Normal termination of Gaussian 09 at Fri Aug 26 14:22:20 2022.
 SCF Done:  E(RHF) =  -302.051761643     A.U. after   10 cycles
 Normal termination of Gaussian 09 at Fri Aug 26 14:24:35 2022.

                         Standard orientation:
 ---------------------------------------------------------------------
 Center     Atomic      Atomic             Coordinates (Angstroms)
 Number     Number       Type             X           Y           Z
 ---------------------------------------------------------------------
      1          6           0        1.284164   -1.274281    0.013948
      2          6           0        0.603841   -0.000018   -0.480553
      3          6           0        1.284036    1.274354    0.013851
      4          7           0       -0.821789   -0.000075    0.013205
      5          7           0       -1.714705   -0.000083   -0.885171
      6          8           0       -0.992083    0.000059    1.244874
      7          1           0        2.316760   -1.296199   -0.344678
      8          1           0        0.771949   -2.165182   -0.359745
      9          1           0        1.286989   -1.301595    1.105749
     10          1           0        0.515925   -0.000064   -1.567443
     11          1           0        1.286875    1.301742    1.105650
     12          1           0        0.771715    2.165173   -0.359893
     13          1           0        2.316623    1.296362   -0.344794
     14          1           0       -2.606963    0.000067   -0.373553
 ---------------------------------------------------------------------

 SCF Done:  E(RHF) =  -302.056741555     A.U. after    7 cycles

 The electronic state is 1-A.
 Alpha  occ. eigenvalues --  -20.55492 -15.78347 -15.60631 -11.29759 -11.23563
 Alpha  occ. eigenvalues --  -11.23562  -1.51879  -1.26946  -1.11671  -0.95804
 Alpha  occ. eigenvalues --   -0.93911  -0.78878  -0.72880  -0.69877  -0.67427
 Alpha  occ. eigenvalues --   -0.63112  -0.57419  -0.57136  -0.55344  -0.51410
 Alpha  occ. eigenvalues --   -0.50841  -0.48820  -0.45001  -0.39498
 Alpha virt. eigenvalues --    0.03348   0.04072   0.04680   0.05310   0.06882
 Alpha virt. eigenvalues --    0.07113   0.07645   0.07720   0.08923   0.09790
 Alpha virt. eigenvalues --    0.11003   0.11600   0.11912   0.12284   0.14196

 Mulliken charges:
               1
     1  C   -0.547997
     2  C    0.038310
     3  C   -0.547995
     4  N    0.443213
     5  N   -0.507197
     6  O   -0.558997
     7  H    0.175921
     8  H    0.181036
     9  H    0.209726
    10  H    0.225738
    11  H    0.209729
    12  H    0.181035
    13  H    0.175924
    14  H    0.321553
 Sum of Mulliken charges =  -0.00000

 Dipole moment (field-independent basis, Debye):
    X=              1.9519    Y=              0.0001    Z=             -1.4022  Tot=              2.4034
 Quadrupole moment (field-independent basis, Debye-Ang):
   XX=            -33.8977   YY=            -36.4099   ZZ=            -42.8883
   XY=             -0.0004   XZ=              0.1120   YZ=             -0.0005

 Normal termination of Gaussian 09 at Fri Aug 26 14:31:05 2022.
