 Gaussian 09, Revision E.01,
 Gaussian 09:  ES64L-G09RevE.01 30-Nov-2015

 -----
 #P G4
 -----

 --------
 Frag_701
 --------
 Symbolic Z-matrix:
 Charge =  0 Multiplicity = 1

 SCF Done:  E(RB3LYP) =  -267.908417892     A.U. after   14 cycles
 SCF Done:  E(RB3LYP) =  -267.915263135     A.U. after   12 cycles
 SCF Done:  E(RB3LYP) =  -267.916662101     A.U. after   12 cycles
 SCF Done:  E(RB3LYP) =  -267.916813736     A.U. after   11 cycles
 SCF Done:  E(RB3LYP) =  -267.916846123     A.U. after    8 cycles
 SCF Done:  E(RB3LYP) =  -267.916848355     A.U. after    8 cycles
 Optimization completed.
    -- Stationary point found.
 Normal termination of Gaussian 09 at Fri Aug 26 15:08:45 2022.

 ----------------------------------------------------------
 #P Geom=AllCheck Guess=TCheck SCRF=Check B3LYP/GTBas3 Freq
 ----------------------------------------------------------

 Structure from the checkpoint file:  "G4.Frag_701.chk"
 --------
 Frag_701
 --------
 Charge =  0 Multiplicity = 1

 SCF Done:  E(RB3LYP) =  -267.916848355     A.U. after    1 cycles

  Exact polarizability:  64.399   0.000  52.551  -2.202  -0.000  55.902
 Approx polarizability:  96.125   0.000  72.752  -4.646  -0.001  83.759

                      1                      2                      3
                      A                      A                      A
 Frequencies --     56.2931               192.1902               241.3465
 Red. masses --      2.9531                 1.0262                 1.1039
 Frc consts  --      0.0055                 0.0223                 0.0379
 IR Inten    --     11.8975                 0.0172                 1.4771

                      4                      5                      6
                      A                      A                      A
 Frequencies --    258.5178               278.8274               311.1018
 Red. masses --      1.0916                 2.3974                 2.4282
 Frc consts  --      0.0430                 0.1098                 0.1385
 IR Inten    --      0.0640                 2.3433                 5.8113

                      7                      8                      9
                      A                      A                      A
 Frequencies --    379.4564               395.3246               397.9075
 Red. masses --      2.5338                 2.2405                 2.3905
 Frc consts  --      0.2150                 0.2063                 0.2230
 IR Inten    --      0.5273                 5.9590                 2.6029

                     10                     11                     12
                      A                      A                      A
 Frequencies --    576.2867               716.7941               817.5580
 Red. masses --      3.0949                 4.3503                 2.9701
 Frc consts  --      0.6056                 1.3169                 1.1697
 IR Inten    --      0.3173                 0.6684                 0.9372

                     13                     14                     15
                      A                      A                      A
 Frequencies --    922.8648               935.7976               951.9618
 Red. masses --      1.9883                 1.5989                 1.2593
 Frc consts  --      0.9977                 0.8249                 0.6724
 IR Inten    --      6.9485                 0.6525                19.3851

                     16                     17                     18
                      A                      A                      A
 Frequencies --    964.6535              1050.7891              1058.8272
 Red. masses --      1.2081                 1.4130                 1.4152
 Frc consts  --      0.6624                 0.9192                 0.9348
 IR Inten    --      5.3738                 0.6543                 4.4894

                     19                     20                     21
                      A                      A                      A
 Frequencies --   1211.7227              1256.3533              1268.0189
 Red. masses --      2.1535                 2.7185                 2.9227
 Frc consts  --      1.8629                 2.5282                 2.7688
 IR Inten    --      6.0495                 3.3918                11.6031

                     22                     23                     24
                      A                      A                      A
 Frequencies --   1397.4559              1398.9472              1427.8110
 Red. masses --      1.2239                 1.2415                 1.2181
 Frc consts  --      1.4082                 1.4315                 1.4630
 IR Inten    --      4.8874                 7.3139                 1.1967

                     25                     26                     27
                      A                      A                      A
 Frequencies --   1473.3490              1475.2467              1480.3153
 Red. masses --      1.2608                 1.0475                 1.0468
 Frc consts  --      1.6126                 1.3432                 1.3515
 IR Inten    --     63.9739                 0.0495                 0.1106

                     28                     29                     30
                      A                      A                      A
 Frequencies --   1481.2223              1500.2933              1505.8859
 Red. masses --      1.0542                 1.0557                 1.0599
 Frc consts  --      1.3627                 1.4001                 1.4161
 IR Inten    --      2.9432                 3.8170                17.6274

                     31                     32                     33
                      A                      A                      A
 Frequencies --   1513.1624              1679.1285              3024.5470
 Red. masses --      1.0553                11.4183                 1.0654
 Frc consts  --      1.4236                18.9678                 5.7423
 IR Inten    --     13.1310                16.2930                54.7078

                     34                     35                     36
                      A                      A                      A
 Frequencies --   3033.0296              3036.0585              3041.9591
 Red. masses --      1.0347                 1.0364                 1.0366
 Frc consts  --      5.6083                 5.6285                 5.6514
 IR Inten    --     17.6892                43.2567                 6.7770

                     37                     38                     39
                      A                      A                      A
 Frequencies --   3100.5802              3105.1597              3111.7323
 Red. masses --      1.1007                 1.0999                 1.1024
 Frc consts  --      6.2347                 6.2483                 6.2893
 IR Inten    --      1.6484                39.5254                 2.3436

                     40                     41                     42
                      A                      A                      A
 Frequencies --   3113.0495              3117.5816              3118.3273
 Red. masses --      1.1026                 1.1016                 1.1016
 Frc consts  --      6.2957                 6.3085                 6.3115
 IR Inten    --      0.8221                32.6466                42.9398

 - Thermochemistry -
 -------------------
 Temperature   298.150 Kelvin.  Pressure   1.00000 Atm.
 Atom     1 has atomic number  6 and mass  12.00000

 Molecular mass:    86.08440 amu.
 Principal axes and moments of inertia in atomic units:
                           1         2         3
     Eigenvalues --   403.47556 625.74591 626.40832
           X            0.99713   0.00004  -0.07575
           Y           -0.00001   1.00000   0.00048
           Z            0.07575  -0.00048   0.99713
 This molecule is an asymmetric top.
 Rotational symmetry number  1.
 Rotational temperatures (Kelvin)      0.21467     0.13842     0.13827
 Rotational constants (GHZ):           4.47299     2.88414     2.88109
 Zero-point vibrational energy     367118.6 (Joules/Mol)
                                   87.74345 (Kcal/Mol)
 Warning -- explicit consideration of  10 degrees of freedom as
           vibrations may cause significant error
 Vibrational temperatures:     80.99   276.52   347.24   371.95   401.17
          (Kelvin)            447.61   545.95   568.78   572.50   829.15
                             1031.31  1176.28  1327.79  1346.40  1369.66
                             1387.92  1511.85  1523.41  1743.40  1807.61
                             1824.39  2010.62  2012.77  2054.30  2119.82
                             2122.55  2129.84  2131.15  2158.58  2166.63
                             2177.10  2415.89  4351.64  4363.85  4368.21
                             4376.70  4461.04  4467.63  4477.08  4478.98
                             4485.50  4486.57

 Zero-point correction=                           0.139828 (Hartree/Particle)
 Thermal correction to Energy=                    0.147536
 Thermal correction to Enthalpy=                  0.148480
 Thermal correction to Gibbs Free Energy=         0.108656
 Sum of electronic and zero-point Energies=           -267.777020
 Sum of electronic and thermal Energies=              -267.769313
 Sum of electronic and thermal Enthalpies=            -267.768369
 Sum of electronic and thermal Free Energies=         -267.808192

                     E (Thermal)             CV                S
                      KCal/Mol        Cal/Mol-Kelvin    Cal/Mol-Kelvin
 Total                   92.580             27.490             83.816
 Electronic               0.000              0.000              0.000
 Translational            0.889              2.981             39.271
 Rotational               0.889              2.981             26.561
 Vibrational             90.803             21.529             17.983
 Vibration     1          0.596              1.975              4.583
 Vibration     2          0.634              1.851              2.207
 Vibration     3          0.658              1.777              1.793
 Vibration     4          0.667              1.748              1.672
 Vibration     5          0.679              1.713              1.541
 Vibration     6          0.700              1.653              1.356
 Vibration     7          0.749              1.514              1.041
 Vibration     8          0.762              1.480              0.980
 Vibration     9          0.764              1.475              0.970
 Vibration    10          0.933              1.083              0.492

 Optimization completed.
    -- Stationary point found.
 Normal termination of Gaussian 09 at Fri Aug 26 15:09:24 2022.

 -----------------------------------------------------------------
 #P Geom=AllCheck Guess=TCheck SCRF=Check CCSD(T,E4T,FrzG4)/GTBas1
 -----------------------------------------------------------------

 Structure from the checkpoint file:  "G4.Frag_701.chk"
 --------
 Frag_701
 --------
 Charge =  0 Multiplicity = 1

 SCF Done:  E(RHF) =  -266.126376868     A.U. after   13 cycles
 E2 =    -0.8560451650D+00 EUMP2 =    -0.26698242203338D+03
 CCSD(T)
 CCSD(T)= -0.26707376403D+03
 =-267.0730109\MP4SDQ=-267.0417175\CCSD=-267.0425465\CCSD(T)=-267.07376
 Normal termination of Gaussian 09 at Fri Aug 26 15:11:45 2022.

 ---------------------------------------------------------
 #P Geom=AllCheck Guess=TCheck SCRF=Check MP4=FrzG4/GTBas2
 ---------------------------------------------------------

 Structure from the checkpoint file:  "G4.Frag_701.chk"
 --------
 Frag_701
 --------
 Charge =  0 Multiplicity = 1

 SCF Done:  E(RHF) =  -266.131999560     A.U. after   13 cycles
 E2 =    -0.8662423773D+00 EUMP2 =    -0.26699824193715D+03
 Normal termination of Gaussian 09 at Fri Aug 26 15:12:26 2022.

 ---------------------------------------------------------
 #P Geom=AllCheck Guess=TCheck SCRF=Check MP4=FrzG4/GTBas3
 ---------------------------------------------------------

 Structure from the checkpoint file:  "G4.Frag_701.chk"
 --------
 Frag_701
 --------
 Charge =  0 Multiplicity = 1

 SCF Done:  E(RHF) =  -266.159945777     A.U. after   11 cycles
 E2 =    -0.1047565677D+01 EUMP2 =    -0.26720751145361D+03
 Normal termination of Gaussian 09 at Fri Aug 26 15:16:36 2022.

 -----------------------------------------------------------
 #P Geom=AllCheck Guess=TCheck SCRF=Check MP2=Full/GTLargeXP
 -----------------------------------------------------------

 Structure from the checkpoint file:  "G4.Frag_701.chk"
 --------
 Frag_701
 --------
 Charge =  0 Multiplicity = 1

 SCF Done:  E(RHF) =  -266.220340153     A.U. after   12 cycles
 E2 =    -0.1372108665D+01 EUMP2 =    -0.26759244881774D+03
 Normal termination of Gaussian 09 at Fri Aug 26 15:19:01 2022.
 SCF Done:  E(RHF) =  -266.241075922     A.U. after    8 cycles
 Normal termination of Gaussian 09 at Fri Aug 26 15:21:20 2022.

                         Standard orientation:
 ---------------------------------------------------------------------
 Center     Atomic      Atomic             Coordinates (Angstroms)
 Number     Number       Type             X           Y           Z
 ---------------------------------------------------------------------
      1          6           0        1.502778    0.000036   -0.973615
      2          6           0        0.328277   -0.000001    0.009285
      3          6           0        0.342212    1.269822    0.872830
      4          6           0        0.342192   -1.269906    0.872710
      5          7           0       -0.917936    0.000057   -0.859363
      6          7           0       -2.027912    0.000021   -0.326393
      7          1           0        1.464674    0.883612   -1.617274
      8          1           0        2.458363   -0.000001   -0.440128
      9          1           0        1.464657   -0.883475   -1.617362
     10          1           0       -0.505011    1.300369    1.566040
     11          1           0        1.257984    1.307141    1.470369
     12          1           0        0.304048    2.166057    0.246364
     13          1           0       -0.505032   -1.300507    1.565916
     14          1           0        1.257961   -1.307291    1.470247
     15          1           0        0.304017   -2.166081    0.246159
     16          1           0       -1.973480   -0.000069    0.722706
 ---------------------------------------------------------------------

 SCF Done:  E(RHF) =  -266.245335825     A.U. after    7 cycles

 The electronic state is 1-A.
 Alpha  occ. eigenvalues --  -15.62110 -15.61403 -11.27910 -11.23163 -11.23162
 Alpha  occ. eigenvalues --  -11.22026  -1.35359  -1.10858  -0.95302  -0.95033
 Alpha  occ. eigenvalues --   -0.90243  -0.77866  -0.68155  -0.62668  -0.62049
 Alpha  occ. eigenvalues --   -0.57469  -0.56960  -0.55772  -0.53212  -0.52979
 Alpha  occ. eigenvalues --   -0.51030  -0.47892  -0.46393  -0.37348
 Alpha virt. eigenvalues --    0.02955   0.03976   0.04016   0.05273   0.06640
 Alpha virt. eigenvalues --    0.06931   0.07241   0.07435   0.08095   0.09638
 Alpha virt. eigenvalues --    0.10304   0.10500   0.10971   0.11348   0.12540

 Mulliken charges:
               1
     1  C   -0.581615
     2  C    0.385127
     3  C   -0.572319
     4  C   -0.572321
     5  N   -0.139835
     6  N   -0.348320
     7  H    0.177201
     8  H    0.173194
     9  H    0.177200
    10  H    0.164687
    11  H    0.178018
    12  H    0.183822
    13  H    0.164686
    14  H    0.178019
    15  H    0.183821
    16  H    0.248634
 Sum of Mulliken charges =  -0.00000

 Dipole moment (field-independent basis, Debye):
    X=              2.1632    Y=             -0.0002    Z=              2.5487  Tot=              3.3429
 Quadrupole moment (field-independent basis, Debye-Ang):
   XX=            -43.2322   YY=            -38.1952   ZZ=            -40.7575
   XY=              0.0003   XZ=             -4.3900   YZ=              0.0002

 Normal termination of Gaussian 09 at Fri Aug 26 15:29:12 2022.
