 Gaussian 09, Revision E.01,
 Gaussian 09:  ES64L-G09RevE.01 30-Nov-2015

 -----
 #P G4
 -----

 --------
 Frag_708
 --------
 Symbolic Z-matrix:
 Charge =  0 Multiplicity = 1

 SCF Done:  E(RB3LYP) =  -228.612521728     A.U. after   13 cycles
 SCF Done:  E(RB3LYP) =  -228.621763993     A.U. after   12 cycles
 SCF Done:  E(RB3LYP) =  -228.622315129     A.U. after   11 cycles
 SCF Done:  E(RB3LYP) =  -228.623208568     A.U. after   11 cycles
 SCF Done:  E(RB3LYP) =  -228.623909044     A.U. after   11 cycles
 SCF Done:  E(RB3LYP) =  -228.606290748     A.U. after   12 cycles
 SCF Done:  E(RB3LYP) =  -228.623917523     A.U. after    8 cycles
 SCF Done:  E(RB3LYP) =  -228.618595673     A.U. after   12 cycles
 SCF Done:  E(RB3LYP) =  -228.624231267     A.U. after    9 cycles
 SCF Done:  E(RB3LYP) =  -228.626199860     A.U. after   12 cycles
 SCF Done:  E(RB3LYP) =  -228.626763689     A.U. after    9 cycles
 SCF Done:  E(RB3LYP) =  -228.626769865     A.U. after    8 cycles
 SCF Done:  E(RB3LYP) =  -228.626770084     A.U. after    7 cycles
 Optimization completed.
    -- Stationary point found.
 Normal termination of Gaussian 09 at Fri Aug 26 15:09:42 2022.

 ----------------------------------------------------------
 #P Geom=AllCheck Guess=TCheck SCRF=Check B3LYP/GTBas3 Freq
 ----------------------------------------------------------

 Structure from the checkpoint file:  "G4.Frag_708.chk"
 --------
 Frag_708
 --------
 Charge =  0 Multiplicity = 1

 SCF Done:  E(RB3LYP) =  -228.626770084     A.U. after    1 cycles

  Exact polarizability:  57.082   5.819  53.384  -4.871  -1.494  34.417
 Approx polarizability:  76.440  12.700  80.380  -7.693  -3.129  50.689

                      1                      2                      3
                      A                      A                      A
 Frequencies --    105.6596               218.7409               272.1420
 Red. masses --      2.7256                 1.1393                 2.5322
 Frc consts  --      0.0179                 0.0321                 0.1105
 IR Inten    --      1.0754                38.6744                 5.8275

                      4                      5                      6
                      A                      A                      A
 Frequencies --    355.9615               410.8185               467.9330
 Red. masses --      1.1227                 2.1109                 2.1489
 Frc consts  --      0.0838                 0.2099                 0.2772
 IR Inten    --     44.0810                 2.3321                11.5772

                      7                      8                      9
                      A                      A                      A
 Frequencies --    611.5919               683.3764               781.6822
 Red. masses --      1.9987                 1.2734                 1.5009
 Frc consts  --      0.4405                 0.3504                 0.5403
 IR Inten    --     86.6025                77.9527                74.8612

                     10                     11                     12
                      A                      A                      A
 Frequencies --    831.0377               845.1878               864.4032
 Red. masses --      1.8554                 1.6277                 1.3863
 Frc consts  --      0.7550                 0.6851                 0.6103
 IR Inten    --      3.3284               100.2450                70.0279

                     13                     14                     15
                      A                      A                      A
 Frequencies --    987.9807              1008.1512              1086.8942
 Red. masses --      1.4481                 2.1534                 2.0713
 Frc consts  --      0.8328                 1.2895                 1.4417
 IR Inten    --      4.2008                32.4092                 9.2282

                     16                     17                     18
                      A                      A                      A
 Frequencies --   1131.3451              1199.3566              1276.1419
 Red. masses --      1.3974                 1.2120                 1.2046
 Frc consts  --      1.0538                 1.0272                 1.1558
 IR Inten    --      2.4840                 2.6636                 1.9127

                     19                     20                     21
                      A                      A                      A
 Frequencies --   1351.4741              1422.5779              1460.5965
 Red. masses --      2.3649                 1.4776                 1.2066
 Frc consts  --      2.5449                 1.7618                 1.5166
 IR Inten    --     28.2131                24.7262                 6.6327

                     22                     23                     24
                      A                      A                      A
 Frequencies --   1512.7706              1646.9387              1647.8252
 Red. masses --      1.1002                 1.1177                 1.1078
 Frc consts  --      1.4834                 1.7863                 1.7723
 IR Inten    --      2.5899                29.4810                32.6384

                     25                     26                     27
                      A                      A                      A
 Frequencies --   1729.6162              2896.5144              3074.0979
 Red. masses --      5.1165                 1.0735                 1.0862
 Frc consts  --      9.0183                 5.3066                 6.0477
 IR Inten    --     77.0416                94.7139                25.6737

                     28                     29                     30
                      A                      A                      A
 Frequencies --   3153.7401              3246.4610              3492.9431
 Red. masses --      1.0633                 1.1122                 1.0488
 Frc consts  --      6.2312                 6.9067                 7.5393
 IR Inten    --      6.9233                10.7876                 2.2765

                     31                     32                     33
                      A                      A                      A
 Frequencies --   3522.5447              3575.4433              3622.5687
 Red. masses --      1.0480                 1.0926                 1.0954
 Frc consts  --      7.6615                 8.2296                 8.4697
 IR Inten    --      2.5698                 0.9934                 3.7360

 - Thermochemistry -
 -------------------
 Temperature   298.150 Kelvin.  Pressure   1.00000 Atm.
 Atom     1 has atomic number  6 and mass  12.00000

 Molecular mass:    72.06875 amu.
 Principal axes and moments of inertia in atomic units:
                           1         2         3
     Eigenvalues --   226.96270 457.14371 601.50237
           X            0.99972   0.01246  -0.02013
           Y           -0.01256   0.99991  -0.00498
           Z            0.02007   0.00523   0.99978
 This molecule is an asymmetric top.
 Rotational symmetry number  1.
 Rotational temperatures (Kelvin)      0.38162     0.18947     0.14400
 Rotational constants (GHZ):           7.95171     3.94786     3.00039
 Zero-point vibrational energy     302024.3 (Joules/Mol)
                                   72.18554 (Kcal/Mol)
 Warning -- explicit consideration of   7 degrees of freedom as
           vibrations may cause significant error
 Vibrational temperatures:    152.02   314.72   391.55   512.15   591.08
          (Kelvin)            673.25   879.94   983.23  1124.66  1195.68
                             1216.04  1243.68  1421.48  1450.50  1563.80
                             1627.75  1725.60  1836.08  1944.47  2046.77
                             2101.47  2176.54  2369.57  2370.85  2488.53
                             4167.43  4422.94  4537.52  4670.93  5025.56
                             5068.15  5144.26  5212.06

 Zero-point correction=                           0.115035 (Hartree/Particle)
 Thermal correction to Energy=                    0.121222
 Thermal correction to Enthalpy=                  0.122167
 Thermal correction to Gibbs Free Energy=         0.086036
 Sum of electronic and zero-point Energies=           -228.511735
 Sum of electronic and thermal Energies=              -228.505548
 Sum of electronic and thermal Enthalpies=            -228.504604
 Sum of electronic and thermal Free Energies=         -228.540734

                     E (Thermal)             CV                S
                      KCal/Mol        Cal/Mol-Kelvin    Cal/Mol-Kelvin
 Total                   76.068             22.228             76.043
 Electronic               0.000              0.000              0.000
 Translational            0.889              2.981             38.742
 Rotational               0.889              2.981             25.637
 Vibrational             74.291             16.266             11.664
 Vibration     1          0.605              1.945              3.347
 Vibration     2          0.647              1.813              1.969
 Vibration     3          0.675              1.725              1.583
 Vibration     4          0.731              1.563              1.140
 Vibration     5          0.775              1.447              0.924
 Vibration     6          0.825              1.321              0.743
 Vibration     7          0.971              1.007              0.430

 Normal termination of Gaussian 09 at Fri Aug 26 15:10:05 2022.

 -----------------------------------------------------------------
 #P Geom=AllCheck Guess=TCheck SCRF=Check CCSD(T,E4T,FrzG4)/GTBas1
 -----------------------------------------------------------------

 Structure from the checkpoint file:  "G4.Frag_708.chk"
 --------
 Frag_708
 --------
 Charge =  0 Multiplicity = 1

 SCF Done:  E(RHF) =  -227.116836366     A.U. after   12 cycles
 E2 =    -0.7121443813D+00 EUMP2 =    -0.22782898074752D+03
 CCSD(T)
 CCSD(T)= -0.22790129410D+03
 6\MP4SDTQ=-227.89964\MP4SDQ=-227.8771109\CCSD=-227.8782185\CCSD(T)=-22
 Normal termination of Gaussian 09 at Fri Aug 26 15:11:02 2022.

 ---------------------------------------------------------
 #P Geom=AllCheck Guess=TCheck SCRF=Check MP4=FrzG4/GTBas2
 ---------------------------------------------------------

 Structure from the checkpoint file:  "G4.Frag_708.chk"
 --------
 Frag_708
 --------
 Charge =  0 Multiplicity = 1

 SCF Done:  E(RHF) =  -227.127179393     A.U. after   12 cycles
 E2 =    -0.7233382779D+00 EUMP2 =    -0.22785051767112D+03
 Normal termination of Gaussian 09 at Fri Aug 26 15:11:20 2022.

 ---------------------------------------------------------
 #P Geom=AllCheck Guess=TCheck SCRF=Check MP4=FrzG4/GTBas3
 ---------------------------------------------------------

 Structure from the checkpoint file:  "G4.Frag_708.chk"
 --------
 Frag_708
 --------
 Charge =  0 Multiplicity = 1

 SCF Done:  E(RHF) =  -227.152941590     A.U. after   11 cycles
 E2 =    -0.8736007667D+00 EUMP2 =    -0.22802654235685D+03
 Normal termination of Gaussian 09 at Fri Aug 26 15:12:53 2022.

 -----------------------------------------------------------
 #P Geom=AllCheck Guess=TCheck SCRF=Check MP2=Full/GTLargeXP
 -----------------------------------------------------------

 Structure from the checkpoint file:  "G4.Frag_708.chk"
 --------
 Frag_708
 --------
 Charge =  0 Multiplicity = 1

 SCF Done:  E(RHF) =  -227.211927320     A.U. after   12 cycles
 E2 =    -0.1147920235D+01 EUMP2 =    -0.22835984755565D+03
 Normal termination of Gaussian 09 at Fri Aug 26 15:13:52 2022.
 SCF Done:  E(RHF) =  -227.229880010     A.U. after    8 cycles
 Normal termination of Gaussian 09 at Fri Aug 26 15:15:00 2022.

                         Standard orientation:
 ---------------------------------------------------------------------
 Center     Atomic      Atomic             Coordinates (Angstroms)
 Number     Number       Type             X           Y           Z
 ---------------------------------------------------------------------
      1          6           0        1.518969    0.966478   -0.208500
      2          6           0        0.577932    0.069114    0.096995
      3          7           0        0.755117   -1.321185   -0.014292
      4          6           0       -0.819955    0.451680    0.518574
      5          7           0       -1.801628    0.052225   -0.500051
      6          1           0        2.523182    0.670091   -0.494568
      7          1           0        1.294729    2.024771   -0.216298
      8          1           0        1.713254   -1.597533   -0.184494
      9          1           0        0.371314   -1.844289    0.763821
     10          1           0       -1.011571    0.000955    1.512855
     11          1           0       -0.867667    1.536250    0.653668
     12          1           0       -1.621700   -0.910120   -0.769433
     13          1           0       -2.737639    0.078960   -0.107566
 ---------------------------------------------------------------------

 SCF Done:  E(RHF) =  -227.233723180     A.U. after    8 cycles

 The electronic state is 1-A.
 Alpha  occ. eigenvalues --  -15.56220 -15.53814 -11.26958 -11.25692 -11.19964
 Alpha  occ. eigenvalues --   -1.22357  -1.16454  -1.00883  -0.90198  -0.75874
 Alpha  occ. eigenvalues --   -0.69188  -0.64763  -0.63663  -0.60832  -0.56517
 Alpha  occ. eigenvalues --   -0.53786  -0.49922  -0.48150  -0.39208  -0.32311
 Alpha virt. eigenvalues --    0.03573   0.04367   0.04789   0.05758   0.06845
 Alpha virt. eigenvalues --    0.07332   0.08109   0.08779   0.09190   0.10270
 Alpha virt. eigenvalues --    0.12079   0.12670   0.13103   0.13453   0.13932

 Mulliken charges:
               1
     1  C   -0.515986
     2  C    0.266293
     3  N   -0.733763
     4  C   -0.173931
     5  N   -0.669887
     6  H    0.152409
     7  H    0.172755
     8  H    0.306797
     9  H    0.308337
    10  H    0.128983
    11  H    0.168423
    12  H    0.303827
    13  H    0.285742
 Sum of Mulliken charges =  -0.00000

 Dipole moment (field-independent basis, Debye):
    X=             -0.0270    Y=             -1.5736    Z=              2.0423  Tot=              2.5783
 Quadrupole moment (field-independent basis, Debye-Ang):
   XX=            -28.4189   YY=            -29.6795   ZZ=            -35.5223
   XY=             -0.7222   XZ=             -3.2979   YZ=             -0.5898

 Normal termination of Gaussian 09 at Fri Aug 26 15:19:35 2022.
