 Gaussian 09, Revision E.01,
 Gaussian 09:  ES64L-G09RevE.01 30-Nov-2015

 -----
 #P G4
 -----

 --------
 Frag_461
 --------
 Symbolic Z-matrix:
 Charge =  0 Multiplicity = 1

 SCF Done:  E(RB3LYP) =  -284.377136448     A.U. after   14 cycles
 SCF Done:  E(RB3LYP) =  -284.395834378     A.U. after   13 cycles
 SCF Done:  E(RB3LYP) =  -284.398322923     A.U. after   13 cycles
 SCF Done:  E(RB3LYP) =  -284.399218900     A.U. after   12 cycles
 SCF Done:  E(RB3LYP) =  -284.399787094     A.U. after   13 cycles
 SCF Done:  E(RB3LYP) =  -284.401046900     A.U. after   12 cycles
 SCF Done:  E(RB3LYP) =  -284.401818051     A.U. after   12 cycles
 SCF Done:  E(RB3LYP) =  -284.402042013     A.U. after   11 cycles
 SCF Done:  E(RB3LYP) =  -284.402082699     A.U. after   11 cycles
 SCF Done:  E(RB3LYP) =  -284.402102643     A.U. after    9 cycles
 SCF Done:  E(RB3LYP) =  -284.402119255     A.U. after   10 cycles
 SCF Done:  E(RB3LYP) =  -284.402119390     A.U. after    7 cycles
 SCF Done:  E(RB3LYP) =  -284.402119398     A.U. after    6 cycles
 Optimization completed.
    -- Stationary point found.
 Normal termination of Gaussian 09 at Sat Aug 20 01:10:06 2022.

 ----------------------------------------------------------
 #P Geom=AllCheck Guess=TCheck SCRF=Check B3LYP/GTBas3 Freq
 ----------------------------------------------------------

 Structure from the checkpoint file:  "G4.Frag_461.chk"
 --------
 Frag_461
 --------
 Charge =  0 Multiplicity = 1

 SCF Done:  E(RB3LYP) =  -284.402119398     A.U. after    1 cycles

  Exact polarizability:  48.949   0.472  35.819   1.452  -0.532  26.657
 Approx polarizability:  61.350  -1.090  61.069   1.221  -0.513  38.778

                      1                      2                      3
                      A                      A                      A
 Frequencies --     49.9173               192.8448               218.8333
 Red. masses --      1.0745                 1.6312                 1.7701
 Frc consts  --      0.0016                 0.0357                 0.0499
 IR Inten    --      0.9593                38.9359                32.2947

                      4                      5                      6
                      A                      A                      A
 Frequencies --    321.9711               438.7253               616.2466
 Red. masses --      3.5394                 4.0631                 2.9936
 Frc consts  --      0.2162                 0.4608                 0.6698
 IR Inten    --     12.4533                12.6934                 6.1839

                      7                      8                      9
                      A                      A                      A
 Frequencies --    651.0677               871.9840               963.0745
 Red. masses --      4.4717                 4.6324                 6.3899
 Frc consts  --      1.1168                 2.0753                 3.4919
 IR Inten    --      5.1967                25.3026                 1.7686

                     10                     11                     12
                      A                      A                      A
 Frequencies --   1026.1936              1063.0588              1234.4475
 Red. masses --      1.7727                 1.7745                 1.7190
 Frc consts  --      1.0999                 1.1815                 1.5434
 IR Inten    --      4.9603                10.2147                25.1248

                     13                     14                     15
                      A                      A                      A
 Frequencies --   1277.9665              1391.4949              1399.0829
 Red. masses --      2.2047                 1.2412                 1.2224
 Frc consts  --      2.1215                 1.4160                 1.4097
 IR Inten    --    301.8352                15.9627                19.0914

                     16                     17                     18
                      A                      A                      A
 Frequencies --   1474.5482              1477.0464              1624.4797
 Red. masses --      1.0523                 1.0695                 1.1033
 Frc consts  --      1.3480                 1.3748                 1.7155
 IR Inten    --      7.7352                 8.0073                66.5163

                     19                     20                     21
                      A                      A                      A
 Frequencies --   1821.1204              3059.9270              3131.1101
 Red. masses --      8.6545                 1.0369                 1.0969
 Frc consts  --     16.9110                 5.7201                 6.3362
 IR Inten    --    192.8841                 1.6026                 3.6037

                     22                     23                     24
                      A                      A                      A
 Frequencies --   3164.3279              3378.6350              3496.4064
 Red. masses --      1.1045                 1.0510                 1.0899
 Frc consts  --      6.5160                 7.0686                 7.8502
 IR Inten    --      5.3157                21.2307                 9.1360

 - Thermochemistry -
 -------------------
 Temperature   298.150 Kelvin.  Pressure   1.00000 Atm.
 Atom     1 has atomic number  6 and mass  12.00000

 Molecular mass:    75.03203 amu.
 Principal axes and moments of inertia in atomic units:
                           1         2         3
     Eigenvalues --   171.99270 429.86798 585.09387
           X            0.99855   0.05184   0.01428
           Y           -0.05172   0.99863  -0.00824
           Z           -0.01469   0.00749   0.99986
 This molecule is an asymmetric top.
 Rotational symmetry number  1.
 Rotational temperatures (Kelvin)      0.50359     0.20149     0.14803
 Rotational constants (GHZ):          10.49313     4.19836     3.08453
 Zero-point vibrational energy     205425.8 (Joules/Mol)
                                   49.09794 (Kcal/Mol)
 Warning -- explicit consideration of   6 degrees of freedom as
           vibrations may cause significant error
 Vibrational temperatures:     71.82   277.46   314.85   463.24   631.23
          (Kelvin)            886.64   936.74  1254.59  1385.65  1476.46
                             1529.50  1776.09  1838.71  2002.05  2012.97
                             2121.54  2125.14  2337.26  2620.18  4402.55
                             4504.96  4552.76  4861.10  5030.54

 Zero-point correction=                           0.078243 (Hartree/Particle)
 Thermal correction to Energy=                    0.084188
 Thermal correction to Enthalpy=                  0.085132
 Thermal correction to Gibbs Free Energy=         0.048733
 Sum of electronic and zero-point Energies=           -284.323877
 Sum of electronic and thermal Energies=              -284.317932
 Sum of electronic and thermal Enthalpies=            -284.316987
 Sum of electronic and thermal Free Energies=         -284.353386

                     E (Thermal)             CV                S
                      KCal/Mol        Cal/Mol-Kelvin    Cal/Mol-Kelvin
 Total                   52.829             18.956             76.607
 Electronic               0.000              0.000              0.000
 Translational            0.889              2.981             38.862
 Rotational               0.889              2.981             25.273
 Vibrational             51.051             12.994             12.472
 Vibration     1          0.595              1.978              4.821
 Vibration     2          0.635              1.850              2.200
 Vibration     3          0.647              1.812              1.969
 Vibration     4          0.707              1.631              1.300
 Vibration     5          0.799              1.386              0.831
 Vibration     6          0.976              0.998              0.423

 Optimization completed.
    -- Stationary point found.
 Normal termination of Gaussian 09 at Sat Aug 20 01:11:16 2022.

 -----------------------------------------------------------------
 #P Geom=AllCheck Guess=TCheck SCRF=Check CCSD(T,E4T,FrzG4)/GTBas1
 -----------------------------------------------------------------

 Structure from the checkpoint file:  "G4.Frag_461.chk"
 --------
 Frag_461
 --------
 Charge =  0 Multiplicity = 1

 SCF Done:  E(RHF) =  -282.769019777     A.U. after   13 cycles
 E2 =    -0.7763864655D+00 EUMP2 =    -0.28354540624267D+03
 CCSD(T)
 CCSD(T)= -0.28360081389D+03
 Normal termination of Gaussian 09 at Sat Aug 20 01:12:59 2022.

 ---------------------------------------------------------
 #P Geom=AllCheck Guess=TCheck SCRF=Check MP4=FrzG4/GTBas2
 ---------------------------------------------------------

 Structure from the checkpoint file:  "G4.Frag_461.chk"
 --------
 Frag_461
 --------
 Charge =  0 Multiplicity = 1

 SCF Done:  E(RHF) =  -282.777613379     A.U. after   12 cycles
 E2 =    -0.7878416720D+00 EUMP2 =    -0.28356545505067D+03
 Normal termination of Gaussian 09 at Sat Aug 20 01:14:27 2022.

 ---------------------------------------------------------
 #P Geom=AllCheck Guess=TCheck SCRF=Check MP4=FrzG4/GTBas3
 ---------------------------------------------------------

 Structure from the checkpoint file:  "G4.Frag_461.chk"
 --------
 Frag_461
 --------
 Charge =  0 Multiplicity = 1

 SCF Done:  E(RHF) =  -282.802745730     A.U. after   12 cycles
 E2 =    -0.9513935756D+00 EUMP2 =    -0.28375413930558D+03
 Normal termination of Gaussian 09 at Sat Aug 20 01:46:13 2022.

 -----------------------------------------------------------
 #P Geom=AllCheck Guess=TCheck SCRF=Check MP2=Full/GTLargeXP
 -----------------------------------------------------------

 Structure from the checkpoint file:  "G4.Frag_461.chk"
 --------
 Frag_461
 --------
 Charge =  0 Multiplicity = 1

 SCF Done:  E(RHF) =  -282.880506262     A.U. after   12 cycles
 E2 =    -0.1238956661D+01 EUMP2 =    -0.28411946292323D+03
 Normal termination of Gaussian 09 at Sat Aug 20 01:48:51 2022.
 SCF Done:  E(RHF) =  -282.903392099     A.U. after    9 cycles
 Normal termination of Gaussian 09 at Sat Aug 20 01:51:26 2022.

                         Standard orientation:
 ---------------------------------------------------------------------
 Center     Atomic      Atomic             Coordinates (Angstroms)
 Number     Number       Type             X           Y           Z
 ---------------------------------------------------------------------
      1          6           0       -1.790185   -0.482084    0.003511
      2          6           0       -0.433688    0.173849    0.014192
      3          8           0       -0.222014    1.362385    0.016120
      4          8           0        0.545035   -0.757711   -0.008120
      5          7           0        1.877131   -0.206237   -0.119852
      6          1           0       -2.442994    0.040239    0.705284
      7          1           0       -2.223150   -0.378421   -0.996319
      8          1           0       -1.727708   -1.541262    0.253725
      9          1           0        2.296631   -0.470933    0.772173
     10          1           0        1.716368    0.806059   -0.066118
 ---------------------------------------------------------------------

 SCF Done:  E(RHF) =  -282.908222796     A.U. after    8 cycles

 The electronic state is 1-A.
 Alpha  occ. eigenvalues --  -20.63241 -20.55358 -15.62304 -11.39201 -11.24996
 Alpha  occ. eigenvalues --   -1.48537  -1.37912  -1.13436  -1.01021  -0.80725
 Alpha  occ. eigenvalues --   -0.72641  -0.70082  -0.67277  -0.62431  -0.58722
 Alpha  occ. eigenvalues --   -0.56631  -0.55610  -0.50867  -0.46617  -0.43407
 Alpha virt. eigenvalues --    0.03721   0.04527   0.05535   0.05795   0.07434
 Alpha virt. eigenvalues --    0.07671   0.07898   0.10576   0.10826   0.11305
 Alpha virt. eigenvalues --    0.13853   0.14350   0.15301   0.16735   0.17158

 Mulliken charges:
               1
     1  C   -0.506335
     2  C    0.567782
     3  O   -0.571290
     4  O   -0.270790
     5  N   -0.497040
     6  H    0.214814
     7  H    0.201039
     8  H    0.206614
     9  H    0.313279
    10  H    0.341927
 Sum of Mulliken charges =  -0.00000

 Dipole moment (field-independent basis, Debye):
    X=             -0.8752    Y=             -1.2679    Z=              1.3464  Tot=              2.0461
 Quadrupole moment (field-independent basis, Debye-Ang):
   XX=            -24.9401   YY=            -34.3667   ZZ=            -28.9339
   XY=              3.1417   XZ=              3.7608   YZ=             -0.9996

 Normal termination of Gaussian 09 at Sat Aug 20 03:02:52 2022.
