 Gaussian 09, Revision E.01,
 Gaussian 09:  ES64L-G09RevE.01 30-Nov-2015

 -----
 #P G4
 -----

 ---------
 Frag_1091
 ---------
 Symbolic Z-matrix:
 Charge =  0 Multiplicity = 1

 SCF Done:  E(RB3LYP) =  -263.289879073     A.U. after   14 cycles
 SCF Done:  E(RB3LYP) =  -263.329807849     A.U. after   13 cycles
 SCF Done:  E(RB3LYP) =  -263.332118971     A.U. after   13 cycles
 SCF Done:  E(RB3LYP) =  -263.330178579     A.U. after   13 cycles
 SCF Done:  E(RB3LYP) =  -263.332314762     A.U. after    9 cycles
 SCF Done:  E(RB3LYP) =  -263.332275675     A.U. after   13 cycles
 SCF Done:  E(RB3LYP) =  -263.332671508     A.U. after    8 cycles
 SCF Done:  E(RB3LYP) =  -263.332739737     A.U. after   11 cycles
 SCF Done:  E(RB3LYP) =  -263.332746731     A.U. after   10 cycles
 SCF Done:  E(RB3LYP) =  -263.332750218     A.U. after    9 cycles
 SCF Done:  E(RB3LYP) =  -263.332751388     A.U. after    8 cycles
 SCF Done:  E(RB3LYP) =  -263.332751651     A.U. after    8 cycles
 SCF Done:  E(RB3LYP) =  -263.332751690     A.U. after    8 cycles
 Optimization completed.
    -- Stationary point found.
 Normal termination of Gaussian 09 at Tue Aug 30 10:32:00 2022.

 ----------------------------------------------------------
 #P Geom=AllCheck Guess=TCheck SCRF=Check B3LYP/GTBas3 Freq
 ----------------------------------------------------------

 Structure from the checkpoint file:  "G4.Frag_1091.chk"
 ---------
 Frag_1091
 ---------
 Charge =  0 Multiplicity = 1

 SCF Done:  E(RB3LYP) =  -263.332751690     A.U. after    1 cycles

  Exact polarizability:  45.739   0.165  48.111  -0.266   0.160  20.369
 Approx polarizability:  67.349   6.375  80.772   0.456   1.050  31.147

                      1                      2                      3
                      A                      A                      A
 Frequencies --    102.8065               291.2402               367.4019
 Red. masses --      2.6747                 5.7732                 1.1714
 Frc consts  --      0.0167                 0.2885                 0.0932
 IR Inten    --      1.0890                 0.8969                81.8368

                      4                      5                      6
                      A                      A                      A
 Frequencies --    424.9628               457.5519               545.5188
 Red. masses --      1.3000                 2.6293                 2.2884
 Frc consts  --      0.1383                 0.3243                 0.4012
 IR Inten    --    128.5203                36.8408                 3.4212

                      7                      8                      9
                      A                      A                      A
 Frequencies --    651.7348               870.6328               878.7641
 Red. masses --      3.8944                 1.6212                 2.7150
 Frc consts  --      0.9746                 0.7240                 1.2353
 IR Inten    --     41.6428                61.4815                48.1139

                     10                     11                     12
                      A                      A                      A
 Frequencies --   1026.1378              1084.4898              1118.0960
 Red. masses --      1.7988                 1.8000                 1.4607
 Frc consts  --      1.1159                 1.2473                 1.0759
 IR Inten    --      5.6271                 4.1613                27.2445

                     13                     14                     15
                      A                      A                      A
 Frequencies --   1362.6442              1450.2990              1638.1396
 Red. masses --      1.8778                 1.4158                 1.1943
 Frc consts  --      2.0543                 1.7546                 1.8882
 IR Inten    --     97.9464                35.8016                45.1339

                     16                     17                     18
                      A                      A                      A
 Frequencies --   1720.5575              1855.6426              2844.4786
 Red. masses --      6.4630                11.1248                 1.0820
 Frc consts  --     11.2725                22.5700                 5.1579
 IR Inten    --    160.5890                90.7962               134.3355

                     19                     20                     21
                      A                      A                      A
 Frequencies --   3442.5298              3577.5093              3689.0599
 Red. masses --      1.0747                 1.0463                 1.1006
 Frc consts  --      7.5039                 7.8902                 8.8249
 IR Inten    --      4.3719                24.7747                24.6789

 - Thermochemistry -
 -------------------
 Temperature   298.150 Kelvin.  Pressure   1.00000 Atm.
 Atom     1 has atomic number  7 and mass  14.00307

 Molecular mass:    72.03236 amu.
 Principal axes and moments of inertia in atomic units:
                           1         2         3
     Eigenvalues --   175.00457 423.68527 597.69004
           X            0.99995  -0.00721  -0.00698
           Y            0.00716   0.99995  -0.00673
           Z            0.00703   0.00668   0.99995
 This molecule is an asymmetric top.
 Rotational symmetry number  1.
 Rotational temperatures (Kelvin)      0.49492     0.20443     0.14491
 Rotational constants (GHZ):          10.31254     4.25963     3.01953
 Zero-point vibrational energy     175852.2 (Joules/Mol)
                                   42.02969 (Kcal/Mol)
 Warning -- explicit consideration of   6 degrees of freedom as
           vibrations may cause significant error
 Vibrational temperatures:    147.92   419.03   528.61   611.43   658.31
          (Kelvin)            784.88   937.70  1252.64  1264.34  1476.38
                             1560.34  1608.69  1960.54  2086.65  2356.91
                             2475.50  2669.85  4092.57  4953.03  5147.23
                             5307.73

 Zero-point correction=                           0.066979 (Hartree/Particle)
 Thermal correction to Energy=                    0.072406
 Thermal correction to Enthalpy=                  0.073350
 Thermal correction to Gibbs Free Energy=         0.038602
 Sum of electronic and zero-point Energies=           -263.265773
 Sum of electronic and thermal Energies=              -263.260346
 Sum of electronic and thermal Enthalpies=            -263.259402
 Sum of electronic and thermal Free Energies=         -263.294149

                     E (Thermal)             CV                S
                      KCal/Mol        Cal/Mol-Kelvin    Cal/Mol-Kelvin
 Total                   45.435             18.261             73.132
 Electronic               0.000              0.000              0.000
 Translational            0.889              2.981             38.740
 Rotational               0.889              2.981             25.297
 Vibrational             43.658             12.299              9.095
 Vibration     1          0.605              1.947              3.400
 Vibration     2          0.687              1.690              1.467
 Vibration     3          0.740              1.539              1.091
 Vibration     4          0.787              1.416              0.875
 Vibration     5          0.816              1.344              0.773
 Vibration     6          0.901              1.150              0.554

 Optimization completed.
    -- Stationary point found.
 Normal termination of Gaussian 09 at Tue Aug 30 10:32:17 2022.

 -----------------------------------------------------------------
 #P Geom=AllCheck Guess=TCheck SCRF=Check CCSD(T,E4T,FrzG4)/GTBas1
 -----------------------------------------------------------------

 Structure from the checkpoint file:  "G4.Frag_1091.chk"
 ---------
 Frag_1091
 ---------
 Charge =  0 Multiplicity = 1

 SCF Done:  E(RHF) =  -261.787052889     A.U. after   15 cycles
 E2 =    -0.7500428588D+00 EUMP2 =    -0.26253709574733D+03
 CCSD(T)
 CCSD(T)= -0.26259047748D+03
 5655908\CCSD=-262.5637094\CCSD(T)=-262.5904775\RMSD=4.758e-09\PG=C01 [
 Normal termination of Gaussian 09 at Tue Aug 30 10:33:05 2022.

 ---------------------------------------------------------
 #P Geom=AllCheck Guess=TCheck SCRF=Check MP4=FrzG4/GTBas2
 ---------------------------------------------------------

 Structure from the checkpoint file:  "G4.Frag_1091.chk"
 ---------
 Frag_1091
 ---------
 Charge =  0 Multiplicity = 1

 SCF Done:  E(RHF) =  -261.796685697     A.U. after   14 cycles
 E2 =    -0.7614965055D+00 EUMP2 =    -0.26255818220200D+03
 Normal termination of Gaussian 09 at Tue Aug 30 10:33:17 2022.

 ---------------------------------------------------------
 #P Geom=AllCheck Guess=TCheck SCRF=Check MP4=FrzG4/GTBas3
 ---------------------------------------------------------

 Structure from the checkpoint file:  "G4.Frag_1091.chk"
 ---------
 Frag_1091
 ---------
 Charge =  0 Multiplicity = 1

 SCF Done:  E(RHF) =  -261.820144566     A.U. after   12 cycles
 E2 =    -0.9028175450D+00 EUMP2 =    -0.26272296211099D+03
 Normal termination of Gaussian 09 at Tue Aug 30 10:34:14 2022.

 -----------------------------------------------------------
 #P Geom=AllCheck Guess=TCheck SCRF=Check MP2=Full/GTLargeXP
 -----------------------------------------------------------

 Structure from the checkpoint file:  "G4.Frag_1091.chk"
 ---------
 Frag_1091
 ---------
 Charge =  0 Multiplicity = 1

 SCF Done:  E(RHF) =  -261.891764007     A.U. after   13 cycles
 E2 =    -0.1183376614D+01 EUMP2 =    -0.26307514062052D+03
 Normal termination of Gaussian 09 at Tue Aug 30 10:34:53 2022.
 SCF Done:  E(RHF) =  -261.912059860     A.U. after   10 cycles
 Normal termination of Gaussian 09 at Tue Aug 30 10:35:36 2022.

                         Standard orientation:
 ---------------------------------------------------------------------
 Center     Atomic      Atomic             Coordinates (Angstroms)
 Number     Number       Type             X           Y           Z
 ---------------------------------------------------------------------
      1          7           0       -0.521002    1.398112   -0.003377
      2          6           0       -0.454655    0.125133   -0.005293
      3          7           0       -1.485268   -0.793467   -0.047819
      4          6           0        0.911772   -0.539262   -0.026196
      5          8           0        1.953249    0.049116    0.027948
      6          1           0       -1.490640    1.723653    0.009195
      7          1           0       -2.414859   -0.470211    0.169836
      8          1           0       -1.294224   -1.741119    0.239767
      9          1           0        0.874912   -1.652985   -0.095071
 ---------------------------------------------------------------------

 SCF Done:  E(RHF) =  -261.916293582     A.U. after    8 cycles

 The electronic state is 1-A.
 Alpha  occ. eigenvalues --  -20.57765 -15.60315 -15.54988 -11.34969 -11.33729
 Alpha  occ. eigenvalues --   -1.41622  -1.28298  -1.16563  -0.93918  -0.78376
 Alpha  occ. eigenvalues --   -0.73735  -0.72301  -0.65405  -0.63096  -0.58413
 Alpha  occ. eigenvalues --   -0.51964  -0.46565  -0.43427  -0.39130
 Alpha virt. eigenvalues --    0.02530   0.03975   0.05513   0.05653   0.06475
 Alpha virt. eigenvalues --    0.07407   0.08162   0.08499   0.10134   0.10891
 Alpha virt. eigenvalues --    0.11867   0.14036   0.14427   0.15158   0.15668

 Mulliken charges:
               1
     1  N   -0.562319
     2  C    0.349728
     3  N   -0.686317
     4  C    0.295469
     5  O   -0.440394
     6  H    0.258467
     7  H    0.320547
     8  H    0.315856
     9  H    0.148962
 Sum of Mulliken charges =   0.00000

 Dipole moment (field-independent basis, Debye):
    X=             -4.4358    Y=             -3.6908    Z=              0.6735  Tot=              5.8096
 Quadrupole moment (field-independent basis, Debye-Ang):
   XX=            -29.0894   YY=            -28.6685   ZZ=            -30.5266
   XY=             -2.3042   XZ=             -1.7708   YZ=             -1.0412

 Normal termination of Gaussian 09 at Tue Aug 30 10:39:43 2022.
