 Gaussian 09, Revision E.01,
 Gaussian 09:  ES64L-G09RevE.01 30-Nov-2015

 -----
 #P G4
 -----

 --------
 Frag_554
 --------
 Symbolic Z-matrix:
 Charge =  0 Multiplicity = 1

 SCF Done:  E(RB3LYP) =  -232.392319383     A.U. after   13 cycles
 SCF Done:  E(RB3LYP) =  -232.433846425     A.U. after   12 cycles
 SCF Done:  E(RB3LYP) =  -232.431543618     A.U. after   14 cycles
 SCF Done:  E(RB3LYP) =  -232.455418267     A.U. after   10 cycles
 SCF Done:  E(RB3LYP) =  -232.457801437     A.U. after   11 cycles
 SCF Done:  E(RB3LYP) =  -232.458319516     A.U. after   10 cycles
 SCF Done:  E(RB3LYP) =  -232.458999698     A.U. after   10 cycles
 SCF Done:  E(RB3LYP) =  -232.440561105     A.U. after   13 cycles
 SCF Done:  E(RB3LYP) =  -232.459239344     A.U. after    8 cycles
 SCF Done:  E(RB3LYP) =  -232.461840989     A.U. after   12 cycles
 SCF Done:  E(RB3LYP) =  -232.464586070     A.U. after    7 cycles
 SCF Done:  E(RB3LYP) =  -232.464586432     A.U. after    8 cycles
 SCF Done:  E(RB3LYP) =  -232.464586740     A.U. after    8 cycles
 Optimization completed.
    -- Stationary point found.
 Normal termination of Gaussian 09 at Tue Aug 30 12:18:30 2022.

 ----------------------------------------------------------
 #P Geom=AllCheck Guess=TCheck SCRF=Check B3LYP/GTBas3 Freq
 ----------------------------------------------------------

 Structure from the checkpoint file:  "G4.Frag_554.chk"
 --------
 Frag_554
 --------
 Charge =  0 Multiplicity = 1

 SCF Done:  E(RB3LYP) =  -232.464586740     A.U. after    1 cycles

  Exact polarizability:  63.897   5.593  50.383  -0.004  -0.002  33.442
 Approx polarizability:  92.879  11.687  68.072  -0.004  -0.005  49.181

                      1                      2                      3
                      A                      A                      A
 Frequencies --    102.5308               176.1848               220.9667
 Red. masses --      1.2400                 1.1350                 1.0266
 Frc consts  --      0.0077                 0.0208                 0.0295
 IR Inten    --     41.7960                29.6749                29.3676

                      4                      5                      6
                      A                      A                      A
 Frequencies --    262.6922               306.9115               355.8921
 Red. masses --      3.4011                 2.1280                 2.2320
 Frc consts  --      0.1383                 0.1181                 0.1666
 IR Inten    --      1.6151                12.4248                 0.5789

                      7                      8                      9
                      A                      A                      A
 Frequencies --    460.4099               582.3878               815.9640
 Red. masses --      2.1516                 4.4463                 3.2644
 Frc consts  --      0.2687                 0.8885                 1.2805
 IR Inten    --      1.5528                12.4523                 1.8463

                     10                     11                     12
                      A                      A                      A
 Frequencies --    862.8211               974.8345              1017.7438
 Red. masses --      1.4081                 1.3610                 1.2411
 Frc consts  --      0.6176                 0.7620                 0.7574
 IR Inten    --     11.3936                 2.7272                 1.7344

                     13                     14                     15
                      A                      A                      A
 Frequencies --   1049.5903              1103.9097              1182.6427
 Red. masses --      1.6142                 1.5946                 4.2639
 Frc consts  --      1.0477                 1.1449                 3.5137
 IR Inten    --      0.2159                 0.0098               212.0233

                     16                     17                     18
                      A                      A                      A
 Frequencies --   1199.0786              1315.5746              1388.8771
 Red. masses --      1.6136                 1.7258                 1.2049
 Frc consts  --      1.3669                 1.7598                 1.3694
 IR Inten    --     21.4287                65.2331                 0.8113

                     19                     20                     21
                      A                      A                      A
 Frequencies --   1413.2806              1426.7270              1472.7867
 Red. masses --      1.4209                 1.2850                 1.0452
 Frc consts  --      1.6721                 1.5411                 1.3358
 IR Inten    --      5.1644                 0.1770                 1.1570

                     22                     23                     24
                      A                      A                      A
 Frequencies --   1487.9455              1492.9717              1503.6562
 Red. masses --      1.0465                 1.0430                 1.0680
 Frc consts  --      1.3651                 1.3697                 1.4227
 IR Inten    --      5.5166                10.7039                 0.4208

                     25                     26                     27
                      A                      A                      A
 Frequencies --   1777.7109              3004.3724              3012.6585
 Red. masses --      5.7210                 1.0383                 1.0405
 Frc consts  --     10.6524                 5.5218                 5.5641
 IR Inten    --     42.8364                34.4197                52.0228

                     28                     29                     30
                      A                      A                      A
 Frequencies --   3046.3165              3051.9109              3096.5813
 Red. masses --      1.0991                 1.0987                 1.0981
 Frc consts  --      6.0097                 6.0293                 6.2037
 IR Inten    --     25.0666                33.5662                26.8962

                     31                     32                     33
                      A                      A                      A
 Frequencies --   3134.7083              3146.5040              3870.6422
 Red. masses --      1.0955                 1.0912                 1.0669
 Frc consts  --      6.3422                 6.3654                 9.4173
 IR Inten    --     10.8374                24.4948                78.5049

 - Thermochemistry -
 -------------------
 Temperature   298.150 Kelvin.  Pressure   1.00000 Atm.
 Atom     1 has atomic number  6 and mass  12.00000

 Molecular mass:    72.05751 amu.
 Principal axes and moments of inertia in atomic units:
                           1         2         3
     Eigenvalues --   216.15381 481.41454 675.29826
           X            0.99996   0.00905  -0.00004
           Y           -0.00905   0.99996  -0.00001
           Z            0.00004   0.00001   1.00000
 This molecule is an asymmetric top.
 Rotational symmetry number  1.
 Rotational temperatures (Kelvin)      0.40070     0.17992     0.12826
 Rotational constants (GHZ):           8.34934     3.74883     2.67251
 Zero-point vibrational energy     294985.9 (Joules/Mol)
                                   70.50331 (Kcal/Mol)
 Warning -- explicit consideration of   8 degrees of freedom as
           vibrations may cause significant error
 Vibrational temperatures:    147.52   253.49   317.92   377.95   441.58
          (Kelvin)            512.05   662.43   837.93  1173.99  1241.41
                             1402.57  1464.30  1510.12  1588.28  1701.56
                             1725.20  1892.82  1998.28  2033.39  2052.74
                             2119.01  2140.82  2148.05  2163.42  2557.73
                             4322.62  4334.54  4382.96  4391.01  4455.28
                             4510.14  4527.11  5568.98

 Zero-point correction=                           0.112354 (Hartree/Particle)
 Thermal correction to Energy=                    0.119059
 Thermal correction to Enthalpy=                  0.120003
 Thermal correction to Gibbs Free Energy=         0.082691
 Sum of electronic and zero-point Energies=           -232.352233
 Sum of electronic and thermal Energies=              -232.345527
 Sum of electronic and thermal Enthalpies=            -232.344583
 Sum of electronic and thermal Free Energies=         -232.381896

                     E (Thermal)             CV                S
                      KCal/Mol        Cal/Mol-Kelvin    Cal/Mol-Kelvin
 Total                   74.711             22.716             78.532
 Electronic               0.000              0.000              0.000
 Translational            0.889              2.981             38.741
 Rotational               0.889              2.981             25.755
 Vibrational             72.933             16.754             14.035
 Vibration     1          0.605              1.947              3.406
 Vibration     2          0.628              1.872              2.368
 Vibration     3          0.648              1.809              1.951
 Vibration     4          0.670              1.741              1.644
 Vibration     5          0.697              1.661              1.379
 Vibration     6          0.731              1.563              1.140
 Vibration     7          0.818              1.338              0.765
 Vibration     8          0.939              1.069              0.481

 Optimization completed.
    -- Stationary point found.
 Normal termination of Gaussian 09 at Tue Aug 30 12:18:53 2022.

 -----------------------------------------------------------------
 #P Geom=AllCheck Guess=TCheck SCRF=Check CCSD(T,E4T,FrzG4)/GTBas1
 -----------------------------------------------------------------

 Structure from the checkpoint file:  "G4.Frag_554.chk"
 --------
 Frag_554
 --------
 Charge =  0 Multiplicity = 1

 SCF Done:  E(RHF) =  -230.960228603     A.U. after   12 cycles
 E2 =    -0.6964235553D+00 EUMP2 =    -0.23165665215780D+03
 CCSD(T)
 CCSD(T)= -0.23172803727D+03
 SDTQ=-231.7269547\MP4SDQ=-231.7044936\CCSD=-231.7052037\CCSD(T)=-231.7
 Normal termination of Gaussian 09 at Tue Aug 30 12:19:52 2022.

 ---------------------------------------------------------
 #P Geom=AllCheck Guess=TCheck SCRF=Check MP4=FrzG4/GTBas2
 ---------------------------------------------------------

 Structure from the checkpoint file:  "G4.Frag_554.chk"
 --------
 Frag_554
 --------
 Charge =  0 Multiplicity = 1

 SCF Done:  E(RHF) =  -230.967233588     A.U. after   12 cycles
 E2 =    -0.7053826198D+00 EUMP2 =    -0.23167261620797D+03
 Normal termination of Gaussian 09 at Tue Aug 30 12:20:09 2022.

 ---------------------------------------------------------
 #P Geom=AllCheck Guess=TCheck SCRF=Check MP4=FrzG4/GTBas3
 ---------------------------------------------------------

 Structure from the checkpoint file:  "G4.Frag_554.chk"
 --------
 Frag_554
 --------
 Charge =  0 Multiplicity = 1

 SCF Done:  E(RHF) =  -230.993169690     A.U. after   11 cycles
 E2 =    -0.8629503295D+00 EUMP2 =    -0.23185612001913D+03
 Normal termination of Gaussian 09 at Tue Aug 30 12:21:39 2022.

 -----------------------------------------------------------
 #P Geom=AllCheck Guess=TCheck SCRF=Check MP2=Full/GTLargeXP
 -----------------------------------------------------------

 Structure from the checkpoint file:  "G4.Frag_554.chk"
 --------
 Frag_554
 --------
 Charge =  0 Multiplicity = 1

 SCF Done:  E(RHF) =  -231.050738247     A.U. after   12 cycles
 E2 =    -0.1137176334D+01 EUMP2 =    -0.23218791458042D+03
 Normal termination of Gaussian 09 at Tue Aug 30 12:22:36 2022.
 SCF Done:  E(RHF) =  -231.069946081     A.U. after    9 cycles
 Normal termination of Gaussian 09 at Tue Aug 30 12:23:51 2022.

                         Standard orientation:
 ---------------------------------------------------------------------
 Center     Atomic      Atomic             Coordinates (Angstroms)
 Number     Number       Type             X           Y           Z
 ---------------------------------------------------------------------
      1          6           0        0.520185    1.472451    0.000068
      2          6           0        0.416739   -0.028395    0.000060
      3          6           0        1.703626   -0.806871   -0.000027
      4          6           0       -0.755754   -0.663221    0.000057
      5          8           0       -1.959043   -0.003136   -0.000314
      6          1           0        1.072970    1.828944    0.879402
      7          1           0        1.072189    1.828973   -0.879742
      8          1           0       -0.463914    1.943984    0.000524
      9          1           0        1.529208   -1.887218   -0.000032
     10          1           0        2.316387   -0.566741   -0.879520
     11          1           0        2.316648   -0.566619    0.879243
     12          1           0       -0.812485   -1.749725    0.000084
     13          1           0       -2.667435   -0.650299    0.001610
 ---------------------------------------------------------------------

 SCF Done:  E(RHF) =  -231.074002510     A.U. after    8 cycles

 The electronic state is 1-A.
 Alpha  occ. eigenvalues --  -20.57633 -11.27412 -11.22026 -11.21751 -11.21014
 Alpha  occ. eigenvalues --   -1.38924  -1.07873  -0.93439  -0.91633  -0.73308
 Alpha  occ. eigenvalues --   -0.72276  -0.62559  -0.59260  -0.55984  -0.55453
 Alpha  occ. eigenvalues --   -0.53204  -0.52895  -0.51040  -0.48138  -0.31911
 Alpha virt. eigenvalues --    0.03523   0.04269   0.04815   0.05489   0.06775
 Alpha virt. eigenvalues --    0.07413   0.07883   0.08248   0.08567   0.09939
 Alpha virt. eigenvalues --    0.11591   0.11694   0.12587   0.14021   0.14669

 Mulliken charges:
               1
     1  C   -0.549269
     2  C    0.118144
     3  C   -0.533956
     4  C   -0.053675
     5  O   -0.550166
     6  H    0.168200
     7  H    0.168190
     8  H    0.195408
     9  H    0.151365
    10  H    0.170256
    11  H    0.170273
    12  H    0.162358
    13  H    0.382873
 Sum of Mulliken charges =  -0.00000

 Dipole moment (field-independent basis, Debye):
    X=             -0.2979    Y=             -1.4892    Z=              0.0032  Tot=              1.5187
 Quadrupole moment (field-independent basis, Debye-Ang):
   XX=            -28.2100   YY=            -30.0325   ZZ=            -33.7590
   XY=              4.3036   XZ=             -0.0106   YZ=             -0.0023

 Normal termination of Gaussian 09 at Tue Aug 30 12:28:20 2022.
