 Gaussian 09, Revision E.01,
 Gaussian 09:  ES64L-G09RevE.01 30-Nov-2015

 -----
 #P G4
 -----

 --------
 Frag_595
 --------
 Symbolic Z-matrix:
 Charge =  0 Multiplicity = 1

 SCF Done:  E(RB3LYP) =  -307.703554958     A.U. after   13 cycles
 SCF Done:  E(RB3LYP) =  -307.704001236     A.U. after   11 cycles
 SCF Done:  E(RB3LYP) =  -307.704031578     A.U. after   10 cycles
 SCF Done:  E(RB3LYP) =  -307.703849102     A.U. after   11 cycles
 SCF Done:  E(RB3LYP) =  -307.704044925     A.U. after    7 cycles
 SCF Done:  E(RB3LYP) =  -307.704083979     A.U. after   10 cycles
 SCF Done:  E(RB3LYP) =  -307.703857891     A.U. after   13 cycles
 SCF Done:  E(RB3LYP) =  -307.704195030     A.U. after   10 cycles
 SCF Done:  E(RB3LYP) =  -307.704311501     A.U. after   11 cycles
 SCF Done:  E(RB3LYP) =  -307.704506343     A.U. after   11 cycles
 SCF Done:  E(RB3LYP) =  -307.705014353     A.U. after    8 cycles
 SCF Done:  E(RB3LYP) =  -307.705014271     A.U. after    7 cycles
 SCF Done:  E(RB3LYP) =  -307.705014246     A.U. after    7 cycles
 Optimization completed.
    -- Stationary point found.
 Normal termination of Gaussian 09 at Thu Sep  1 15:24:48 2022.

 ----------------------------------------------------------
 #P Geom=AllCheck Guess=TCheck SCRF=Check B3LYP/GTBas3 Freq
 ----------------------------------------------------------

 Structure from the checkpoint file:  "G4.Frag_595.chk"
 --------
 Frag_595
 --------
 Charge =  0 Multiplicity = 1

 SCF Done:  E(RB3LYP) =  -307.705014246     A.U. after    1 cycles

  Exact polarizability:  53.113   0.897  51.914   0.132   1.310  43.989
 Approx polarizability:  69.972  -5.887  77.614  -2.234   4.328  64.189

                      1                      2                      3
                      A                      A                      A
 Frequencies --     50.0658               112.7472               225.2267
 Red. masses --      3.6455                 1.0368                 1.2395
 Frc consts  --      0.0054                 0.0078                 0.0370
 IR Inten    --      4.9216                 0.5871                 0.1977

                      4                      5                      6
                      A                      A                      A
 Frequencies --    233.1685               277.4418               311.2441
 Red. masses --      2.6151                 2.7406                 1.1006
 Frc consts  --      0.0838                 0.1243                 0.0628
 IR Inten    --      2.6246                23.6544                93.3608

                      7                      8                      9
                      A                      A                      A
 Frequencies --    383.2560               499.3508               541.0198
 Red. masses --      3.0664                 3.2626                 4.3034
 Frc consts  --      0.2654                 0.4793                 0.7421
 IR Inten    --     12.6968                19.7917                 4.3583

                     10                     11                     12
                      A                      A                      A
 Frequencies --    595.7799               738.8520               907.6744
 Red. masses --      2.2293                 3.0154                 2.0888
 Frc consts  --      0.4662                 0.9699                 1.0139
 IR Inten    --      1.1688                 0.8475                 4.7649

                     13                     14                     15
                      A                      A                      A
 Frequencies --    952.7447               985.0935              1035.8712
 Red. masses --      1.5743                 1.7580                 1.8586
 Frc consts  --      0.8420                 1.0051                 1.1750
 IR Inten    --     10.8817                21.7525                32.2680

                     16                     17                     18
                      A                      A                      A
 Frequencies --   1093.1510              1139.2046              1235.8729
 Red. masses --      1.7862                 2.5879                 2.7309
 Frc consts  --      1.2576                 1.9788                 2.4576
 IR Inten    --     11.1685                41.8269                49.3160

                     19                     20                     21
                      A                      A                      A
 Frequencies --   1277.4741              1323.0082              1380.3219
 Red. masses --      1.2488                 1.5036                 1.2925
 Frc consts  --      1.2007                 1.5506                 1.4509
 IR Inten    --     45.8815                20.8461                17.5336

                     22                     23                     24
                      A                      A                      A
 Frequencies --   1388.2707              1402.8844              1452.3598
 Red. masses --      1.2724                 1.3222                 1.0530
 Frc consts  --      1.4449                 1.5332                 1.3087
 IR Inten    --     18.5388                 4.7823                16.0828

                     25                     26                     27
                      A                      A                      A
 Frequencies --   1468.5842              1486.3365              1498.3641
 Red. masses --      1.0529                 1.0501                 1.0520
 Frc consts  --      1.3379                 1.3668                 1.3915
 IR Inten    --      8.2150                 8.0056                 1.4792

                     28                     29                     30
                      A                      A                      A
 Frequencies --   1812.3091              3008.3220              3043.6109
 Red. masses --     11.0093                 1.0838                 1.0374
 Frc consts  --     21.3046                 5.7789                 5.6618
 IR Inten    --    131.0688                28.0766                 2.7981

                     31                     32                     33
                      A                      A                      A
 Frequencies --   3047.1637              3104.7872              3120.2046
 Red. masses --      1.0347                 1.0949                 1.1012
 Frc consts  --      5.6606                 6.2183                 6.3169
 IR Inten    --     12.3689                 6.4990                20.7144

                     34                     35                     36
                      A                      A                      A
 Frequencies --   3140.8508              3156.5658              3825.4690
 Red. masses --      1.1026                 1.1041                 1.0665
 Frc consts  --      6.4087                 6.4816                 9.1958
 IR Inten    --     10.0446                 9.9600                22.3507

 - Thermochemistry -
 -------------------
 Temperature   298.150 Kelvin.  Pressure   1.00000 Atm.
 Atom     1 has atomic number  6 and mass  12.00000

 Molecular mass:    88.05243 amu.
 Principal axes and moments of inertia in atomic units:
                           1         2         3
     Eigenvalues --   382.04096 600.91551 792.59275
           X            0.98779   0.15538   0.01160
           Y           -0.15511   0.98767  -0.02134
           Z           -0.01478   0.01928   0.99970
 This molecule is an asymmetric top.
 Rotational symmetry number  1.
 Rotational temperatures (Kelvin)      0.22671     0.14414     0.10928
 Rotational constants (GHZ):           4.72395     3.00332     2.27701
 Zero-point vibrational energy     306570.9 (Joules/Mol)
                                   73.27220 (Kcal/Mol)
 Warning -- explicit consideration of  10 degrees of freedom as
           vibrations may cause significant error
 Vibrational temperatures:     72.03   162.22   324.05   335.48   399.18
          (Kelvin)            447.81   551.42   718.45   778.41   857.19
                             1063.04  1305.94  1370.79  1417.33  1490.39
                             1572.80  1639.06  1778.14  1838.00  1903.51
                             1985.97  1997.41  2018.44  2089.62  2112.96
                             2138.50  2155.81  2607.51  4328.30  4379.07
                             4384.18  4467.09  4489.27  4518.98  4541.59
                             5503.99

 Zero-point correction=                           0.116767 (Hartree/Particle)
 Thermal correction to Energy=                    0.124337
 Thermal correction to Enthalpy=                  0.125281
 Thermal correction to Gibbs Free Energy=         0.085147
 Sum of electronic and zero-point Energies=           -307.588248
 Sum of electronic and thermal Energies=              -307.580677
 Sum of electronic and thermal Enthalpies=            -307.579733
 Sum of electronic and thermal Free Energies=         -307.619867

                     E (Thermal)             CV                S
                      KCal/Mol        Cal/Mol-Kelvin    Cal/Mol-Kelvin
 Total                   78.023             25.900             84.469
 Electronic               0.000              0.000              0.000
 Translational            0.889              2.981             39.339
 Rotational               0.889              2.981             26.701
 Vibrational             76.245             19.938             18.429
 Vibration     1          0.595              1.978              4.815
 Vibration     2          0.607              1.939              3.221
 Vibration     3          0.650              1.803              1.917
 Vibration     4          0.654              1.790              1.854
 Vibration     5          0.678              1.715              1.549
 Vibration     6          0.700              1.652              1.356
 Vibration     7          0.752              1.506              1.026
 Vibration     8          0.855              1.251              0.660
 Vibration     9          0.896              1.159              0.563
 Vibration    10          0.954              1.041              0.457

 Optimization completed.
    -- Stationary point found.
 Normal termination of Gaussian 09 at Thu Sep  1 15:25:21 2022.

 -----------------------------------------------------------------
 #P Geom=AllCheck Guess=TCheck SCRF=Check CCSD(T,E4T,FrzG4)/GTBas1
 -----------------------------------------------------------------

 Structure from the checkpoint file:  "G4.Frag_595.chk"
 --------
 Frag_595
 --------
 Charge =  0 Multiplicity = 1

 SCF Done:  E(RHF) =  -305.843981280     A.U. after   14 cycles
 E2 =    -0.8712682132D+00 EUMP2 =    -0.30671524949329D+03
 CCSD(T)
 CCSD(T)= -0.30679028532D+03
 -306.7641119\CCSD=-306.7629736\CCSD(T)=-306.7902853\RMSD=4.490e-09\PG=
 Normal termination of Gaussian 09 at Thu Sep  1 15:27:28 2022.

 ---------------------------------------------------------
 #P Geom=AllCheck Guess=TCheck SCRF=Check MP4=FrzG4/GTBas2
 ---------------------------------------------------------

 Structure from the checkpoint file:  "G4.Frag_595.chk"
 --------
 Frag_595
 --------
 Charge =  0 Multiplicity = 1

 SCF Done:  E(RHF) =  -305.853388322     A.U. after   12 cycles
 E2 =    -0.8844931768D+00 EUMP2 =    -0.30673788149867D+03
 Normal termination of Gaussian 09 at Thu Sep  1 15:28:08 2022.

 ---------------------------------------------------------
 #P Geom=AllCheck Guess=TCheck SCRF=Check MP4=FrzG4/GTBas3
 ---------------------------------------------------------

 Structure from the checkpoint file:  "G4.Frag_595.chk"
 --------
 Frag_595
 --------
 Charge =  0 Multiplicity = 1

 SCF Done:  E(RHF) =  -305.881641463     A.U. after   11 cycles
 E2 =    -0.1077775650D+01 EUMP2 =    -0.30695941711320D+03
 Normal termination of Gaussian 09 at Thu Sep  1 15:31:40 2022.

 -----------------------------------------------------------
 #P Geom=AllCheck Guess=TCheck SCRF=Check MP2=Full/GTLargeXP
 -----------------------------------------------------------

 Structure from the checkpoint file:  "G4.Frag_595.chk"
 --------
 Frag_595
 --------
 Charge =  0 Multiplicity = 1

 SCF Done:  E(RHF) =  -305.961845306     A.U. after   12 cycles
 E2 =    -0.1414670755D+01 EUMP2 =    -0.30737651606093D+03
 Normal termination of Gaussian 09 at Thu Sep  1 15:33:26 2022.
 SCF Done:  E(RHF) =  -305.986375440     A.U. after    9 cycles
 Normal termination of Gaussian 09 at Thu Sep  1 15:35:30 2022.

                         Standard orientation:
 ---------------------------------------------------------------------
 Center     Atomic      Atomic             Coordinates (Angstroms)
 Number     Number       Type             X           Y           Z
 ---------------------------------------------------------------------
      1          6           0        1.454795    0.946081    0.586332
      2          6           0        0.796180   -0.211352   -0.137383
      3          8           0        1.402493   -1.199121   -0.482857
      4          6           0       -0.716262   -0.108893   -0.404094
      5          6           0       -1.469507   -0.913928    0.655958
      6          8           0       -1.207867    1.223421   -0.353719
      7          1           0        1.482046    1.828174   -0.063319
      8          1           0        0.875419    1.236802    1.467649
      9          1           0        2.472619    0.670444    0.864182
     10          1           0       -0.892935   -0.564986   -1.388519
     11          1           0       -1.129217   -1.951694    0.650869
     12          1           0       -1.302334   -0.489683    1.651066
     13          1           0       -2.541946   -0.883066    0.448119
     14          1           0       -0.911893    1.688152   -1.142319
 ---------------------------------------------------------------------

 SCF Done:  E(RHF) =  -305.991617820     A.U. after    8 cycles

 The electronic state is 1-A.
 Alpha  occ. eigenvalues --  -20.57525 -20.54850 -11.33248 -11.29936 -11.23581
 Alpha  occ. eigenvalues --  -11.22849  -1.39731  -1.37848  -1.04778  -1.00196
 Alpha  occ. eigenvalues --   -0.87748  -0.75445  -0.72027  -0.67327  -0.63009
 Alpha  occ. eigenvalues --   -0.60754  -0.57918  -0.56962  -0.55040  -0.53819
 Alpha  occ. eigenvalues --   -0.52587  -0.50612  -0.47737  -0.40367
 Alpha virt. eigenvalues --    0.03293   0.03976   0.04078   0.05570   0.06484
 Alpha virt. eigenvalues --    0.06628   0.07320   0.07625   0.07850   0.09654
 Alpha virt. eigenvalues --    0.09983   0.10564   0.10949   0.13167   0.13667

 Mulliken charges:
               1
     1  C   -0.538650
     2  C    0.415741
     3  O   -0.530154
     4  C    0.088642
     5  C   -0.540739
     6  O   -0.580363
     7  H    0.173122
     8  H    0.199389
     9  H    0.212225
    10  H    0.180796
    11  H    0.205416
    12  H    0.167006
    13  H    0.178333
    14  H    0.369237
 Sum of Mulliken charges =  -0.00000

 Dipole moment (field-independent basis, Debye):
    X=             -0.8649    Y=              1.9928    Z=             -0.1521  Tot=              2.1777
 Quadrupole moment (field-independent basis, Debye-Ang):
   XX=            -41.0533   YY=            -39.0389   ZZ=            -34.1647
   XY=              6.6415   XZ=              2.5954   YZ=             -3.6799

 Normal termination of Gaussian 09 at Thu Sep  1 15:42:49 2022.
