 Gaussian 09, Revision E.01,
 Gaussian 09:  ES64L-G09RevE.01 30-Nov-2015

 -----
 #P G4
 -----

 --------
 Frag_476
 --------
 Symbolic Z-matrix:
 Charge =  0 Multiplicity = 1

 SCF Done:  E(RB3LYP) =  -302.660615203     A.U. after   15 cycles
 SCF Done:  E(RB3LYP) =  -302.677677498     A.U. after   13 cycles
 SCF Done:  E(RB3LYP) =  -302.678752874     A.U. after   13 cycles
 SCF Done:  E(RB3LYP) =  -302.678512692     A.U. after   13 cycles
 SCF Done:  E(RB3LYP) =  -302.679202351     A.U. after   10 cycles
 SCF Done:  E(RB3LYP) =  -302.679590206     A.U. after   11 cycles
 SCF Done:  E(RB3LYP) =  -302.679833207     A.U. after   12 cycles
 SCF Done:  E(RB3LYP) =  -302.679910140     A.U. after   11 cycles
 SCF Done:  E(RB3LYP) =  -302.679950856     A.U. after   10 cycles
 SCF Done:  E(RB3LYP) =  -302.679972770     A.U. after   11 cycles
 SCF Done:  E(RB3LYP) =  -302.679977238     A.U. after    8 cycles
 SCF Done:  E(RB3LYP) =  -302.679977328     A.U. after    7 cycles
 SCF Done:  E(RB3LYP) =  -302.679977377     A.U. after    7 cycles
 Optimization completed.
    -- Stationary point found.
 Normal termination of Gaussian 09 at Wed Aug 24 14:21:38 2022.

 ----------------------------------------------------------
 #P Geom=AllCheck Guess=TCheck SCRF=Check B3LYP/GTBas3 Freq
 ----------------------------------------------------------

 Structure from the checkpoint file:  "G4.Frag_476.chk"
 --------
 Frag_476
 --------
 Charge =  0 Multiplicity = 1

 SCF Done:  E(RB3LYP) =  -302.679977377     A.U. after    1 cycles

  Exact polarizability:  53.188   1.717  57.705   0.762  -0.550  32.588
 Approx polarizability:  68.900  -2.281 101.100   1.575   0.799  49.960

                      1                      2                      3
                      A                      A                      A
 Frequencies --     74.9106               162.5247               255.8408
 Red. masses --      4.3076                 1.0549                 3.6445
 Frc consts  --      0.0142                 0.0164                 0.1405
 IR Inten    --      6.2979                 0.3212                17.2619

                      4                      5                      6
                      A                      A                      A
 Frequencies --    323.5575               374.9958               394.6903
 Red. masses --      3.3580                 1.5720                 2.0410
 Frc consts  --      0.2071                 0.1302                 0.1873
 IR Inten    --      5.5896               141.7473                44.7552

                      7                      8                      9
                      A                      A                      A
 Frequencies --    539.7907               562.2309               584.1871
 Red. masses --      2.2114                 2.8393                 1.4339
 Frc consts  --      0.3796                 0.5288                 0.2883
 IR Inten    --      9.3834                 0.5881                30.0038

                     10                     11                     12
                      A                      A                      A
 Frequencies --    733.2909               739.7312               948.9407
 Red. masses --      3.2061                 2.8825                 1.6468
 Frc consts  --      1.0157                 0.9293                 0.8737
 IR Inten    --      4.1886                33.9068                36.1166

                     13                     14                     15
                      A                      A                      A
 Frequencies --    990.0182              1080.6848              1090.0659
 Red. masses --      2.0004                 1.4484                 1.8001
 Frc consts  --      1.1552                 0.9966                 1.2602
 IR Inten    --     17.2610                 6.6011                13.7780

                     16                     17                     18
                      A                      A                      A
 Frequencies --   1106.4030              1305.1170              1378.2186
 Red. masses --      1.5465                 1.9855                 1.6221
 Frc consts  --      1.1154                 1.9926                 1.8154
 IR Inten    --     27.6858               132.2776                40.2307

                     19                     20                     21
                      A                      A                      A
 Frequencies --   1415.2793              1466.8910              1471.0592
 Red. masses --      1.9854                 1.0583                 1.0495
 Frc consts  --      2.3430                 1.3417                 1.3381
 IR Inten    --      9.7513                10.1385                 8.0696

                     22                     23                     24
                      A                      A                      A
 Frequencies --   1611.3050              1714.5007              1791.2481
 Red. masses --      1.2510                 8.2312                 9.6273
 Frc consts  --      1.9137                14.2557                18.1998
 IR Inten    --     90.0221                63.4785               225.3988

                     25                     26                     27
                      A                      A                      A
 Frequencies --   3043.6669              3106.6856              3159.4905
 Red. masses --      1.0398                 1.0932                 1.1034
 Frc consts  --      5.6756                 6.2163                 6.4896
 IR Inten    --      5.5863                 5.3005                 6.1736

                     28                     29                     30
                      A                      A                      A
 Frequencies --   3429.9339              3589.4848              3718.6870
 Red. masses --      1.0737                 1.0452                 1.1030
 Frc consts  --      7.4420                 7.9343                 8.9865
 IR Inten    --      1.3971                38.4420                38.0312

 - Thermochemistry -
 -------------------
 Temperature   298.150 Kelvin.  Pressure   1.00000 Atm.
 Atom     1 has atomic number  6 and mass  12.00000

 Molecular mass:    86.04801 amu.
 Principal axes and moments of inertia in atomic units:
                           1         2         3
     Eigenvalues --   336.81179 539.18607 814.02823
           X            0.99004   0.14081   0.00078
           Y           -0.14080   0.98999  -0.00924
           Z           -0.00208   0.00903   0.99996
 This molecule is an asymmetric top.
 Rotational symmetry number  1.
 Rotational temperatures (Kelvin)      0.25716     0.16064     0.10640
 Rotational constants (GHZ):           5.35831     3.34716     2.21705
 Zero-point vibrational energy     252193.3 (Joules/Mol)
                                   60.27565 (Kcal/Mol)
 Warning -- explicit consideration of   9 degrees of freedom as
           vibrations may cause significant error
 Vibrational temperatures:    107.78   233.84   368.10   465.53   539.53
          (Kelvin)            567.87   776.64   808.92   840.51  1055.04
                             1064.31  1365.31  1424.41  1554.86  1568.36
                             1591.87  1877.77  1982.95  2036.27  2110.53
                             2116.52  2318.31  2466.78  2577.20  4379.15
                             4469.82  4545.80  4934.90  5164.46  5350.35

 Zero-point correction=                           0.096055 (Hartree/Particle)
 Thermal correction to Energy=                    0.102761
 Thermal correction to Enthalpy=                  0.103705
 Thermal correction to Gibbs Free Energy=         0.065727
 Sum of electronic and zero-point Energies=           -302.583922
 Sum of electronic and thermal Energies=              -302.577216
 Sum of electronic and thermal Enthalpies=            -302.576272
 Sum of electronic and thermal Free Energies=         -302.614251

                     E (Thermal)             CV                S
                      KCal/Mol        Cal/Mol-Kelvin    Cal/Mol-Kelvin
 Total                   64.484             23.388             79.933
 Electronic               0.000              0.000              0.000
 Translational            0.889              2.981             39.270
 Rotational               0.889              2.981             26.494
 Vibrational             62.706             17.426             14.169
 Vibration     1          0.599              1.966              4.020
 Vibration     2          0.623              1.888              2.520
 Vibration     3          0.666              1.753              1.690
 Vibration     4          0.708              1.628              1.292
 Vibration     5          0.746              1.523              1.059
 Vibration     6          0.762              1.482              0.982
 Vibration     7          0.895              1.162              0.566
 Vibration     8          0.918              1.113              0.519
 Vibration     9          0.941              1.066              0.478

 Optimization completed.
    -- Stationary point found.
 Normal termination of Gaussian 09 at Wed Aug 24 14:23:30 2022.

 -----------------------------------------------------------------
 #P Geom=AllCheck Guess=TCheck SCRF=Check CCSD(T,E4T,FrzG4)/GTBas1
 -----------------------------------------------------------------

 Structure from the checkpoint file:  "G4.Frag_476.chk"
 --------
 Frag_476
 --------
 Charge =  0 Multiplicity = 1

 SCF Done:  E(RHF) =  -300.854090618     A.U. after   14 cycles
 E2 =    -0.8806651169D+00 EUMP2 =    -0.30173475573511D+03
 CCSD(T)
 CCSD(T)= -0.30180359433D+03
 \CCSD=-301.7721512\CCSD(T)=-301.8035943\RMSD=4.571e-09\PG=C01 [X(C3H6N
 Normal termination of Gaussian 09 at Wed Aug 24 14:29:19 2022.

 ---------------------------------------------------------
 #P Geom=AllCheck Guess=TCheck SCRF=Check MP4=FrzG4/GTBas2
 ---------------------------------------------------------

 Structure from the checkpoint file:  "G4.Frag_476.chk"
 --------
 Frag_476
 --------
 Charge =  0 Multiplicity = 1

 SCF Done:  E(RHF) =  -300.863938919     A.U. after   13 cycles
 E2 =    -0.8936629823D+00 EUMP2 =    -0.30175760190093D+03
 Normal termination of Gaussian 09 at Wed Aug 24 14:35:46 2022.

 ---------------------------------------------------------
 #P Geom=AllCheck Guess=TCheck SCRF=Check MP4=FrzG4/GTBas3
 ---------------------------------------------------------

 Structure from the checkpoint file:  "G4.Frag_476.chk"
 --------
 Frag_476
 --------
 Charge =  0 Multiplicity = 1

 SCF Done:  E(RHF) =  -300.891937444     A.U. after   13 cycles
 E2 =    -0.1065699733D+01 EUMP2 =    -0.30195763717759D+03
 Normal termination of Gaussian 09 at Wed Aug 24 16:24:45 2022.

 -----------------------------------------------------------
 #P Geom=AllCheck Guess=TCheck SCRF=Check MP2=Full/GTLargeXP
 -----------------------------------------------------------

 Structure from the checkpoint file:  "G4.Frag_476.chk"
 --------
 Frag_476
 --------
 Charge =  0 Multiplicity = 1

 SCF Done:  E(RHF) =  -300.970610863     A.U. after   14 cycles
 E2 =    -0.1398618435D+01 EUMP2 =    -0.30236922929725D+03
 Normal termination of Gaussian 09 at Wed Aug 24 16:29:21 2022.
 SCF Done:  E(RHF) =  -300.993776602     A.U. after    9 cycles
 Normal termination of Gaussian 09 at Wed Aug 24 16:34:10 2022.

                         Standard orientation:
 ---------------------------------------------------------------------
 Center     Atomic      Atomic             Coordinates (Angstroms)
 Number     Number       Type             X           Y           Z
 ---------------------------------------------------------------------
      1          6           0       -1.748659   -0.760890    0.291599
      2          6           0       -0.705256    0.269887   -0.027035
      3          7           0       -1.029534    1.466588   -0.320188
      4          6           0        0.728303   -0.254926   -0.039114
      5          7           0        1.687808    0.664731    0.287896
      6          8           0        0.982314   -1.399346   -0.358571
      7          1           0       -1.629020   -1.620005   -0.374410
      8          1           0       -2.743768   -0.328443    0.186394
      9          1           0       -1.617710   -1.139400    1.312021
     10          1           0       -0.203614    2.022903   -0.556987
     11          1           0        2.633609    0.324319    0.366404
     12          1           0        1.447752    1.491736    0.808488
 ---------------------------------------------------------------------

 SCF Done:  E(RHF) =  -300.998595128     A.U. after    8 cycles

 The electronic state is 1-A.
 Alpha  occ. eigenvalues --  -20.54287 -15.60204 -15.57236 -11.37296 -11.30810
 Alpha  occ. eigenvalues --  -11.23001  -1.40590  -1.24822  -1.21384  -1.00529
 Alpha  occ. eigenvalues --   -0.88720  -0.77562  -0.75021  -0.69938  -0.63903
 Alpha  occ. eigenvalues --   -0.61234  -0.57956  -0.56525  -0.54939  -0.49928
 Alpha  occ. eigenvalues --   -0.44404  -0.44098  -0.41453
 Alpha virt. eigenvalues --    0.03075   0.04392   0.05156   0.05553   0.06873
 Alpha virt. eigenvalues --    0.07388   0.07649   0.08117   0.08604   0.09563
 Alpha virt. eigenvalues --    0.10095   0.11038   0.11959   0.13439   0.14046

 Mulliken charges:
               1
     1  C   -0.512163
     2  C    0.280463
     3  N   -0.586707
     4  C    0.516605
     5  N   -0.717581
     6  O   -0.571125
     7  H    0.221633
     8  H    0.203981
     9  H    0.181019
    10  H    0.287249
    11  H    0.357490
    12  H    0.339137
 Sum of Mulliken charges =  -0.00000

 Dipole moment (field-independent basis, Debye):
    X=              1.5114    Y=              1.9016    Z=              1.8857  Tot=              3.0751
 Quadrupole moment (field-independent basis, Debye-Ang):
   XX=            -33.7801   YY=            -39.8610   ZZ=            -35.9374
   XY=              8.7802   XZ=              1.7125   YZ=              0.0318

 Normal termination of Gaussian 09 at Wed Aug 24 18:46:14 2022.
