 Gaussian 09, Revision E.01,
 Gaussian 09:  ES64L-G09RevE.01 30-Nov-2015

 -----
 #P G4
 -----

 --------
 Frag_480
 --------
 Symbolic Z-matrix:
 Charge =  0 Multiplicity = 1

 SCF Done:  E(RB3LYP) =  -248.509915591     A.U. after   13 cycles
 SCF Done:  E(RB3LYP) =  -248.510077665     A.U. after   10 cycles
 SCF Done:  E(RB3LYP) =  -248.510100190     A.U. after    9 cycles
 SCF Done:  E(RB3LYP) =  -248.510101035     A.U. after    8 cycles
 SCF Done:  E(RB3LYP) =  -248.510102719     A.U. after    7 cycles
 SCF Done:  E(RB3LYP) =  -248.510103164     A.U. after    7 cycles
 SCF Done:  E(RB3LYP) =  -248.510105559     A.U. after    9 cycles
 SCF Done:  E(RB3LYP) =  -248.510104433     A.U. after    8 cycles
 SCF Done:  E(RB3LYP) =  -248.510106901     A.U. after    8 cycles
 SCF Done:  E(RB3LYP) =  -248.510113562     A.U. after    9 cycles
 SCF Done:  E(RB3LYP) =  -248.511658421     A.U. after   10 cycles
 SCF Done:  E(RB3LYP) =  -248.511662142     A.U. after    8 cycles
 SCF Done:  E(RB3LYP) =  -248.511663301     A.U. after    7 cycles
 Optimization completed.
    -- Stationary point found.
 Normal termination of Gaussian 09 at Fri Sep  2 19:20:21 2022.

 ----------------------------------------------------------
 #P Geom=AllCheck Guess=TCheck SCRF=Check B3LYP/GTBas3 Freq
 ----------------------------------------------------------

 Structure from the checkpoint file:  "G4.Frag_480.chk"
 --------
 Frag_480
 --------
 Charge =  0 Multiplicity = 1

 SCF Done:  E(RB3LYP) =  -248.511663301     A.U. after    1 cycles

  Exact polarizability:  61.651  -3.471  41.502  -0.003   0.002  32.157
 Approx polarizability:  86.783  -6.582  59.681  -0.005   0.007  46.487

                      1                      2                      3
                      A                      A                      A
 Frequencies --     97.9098               137.0465               249.9877
 Red. masses --      1.0410                 1.0514                 3.7003
 Frc consts  --      0.0059                 0.0116                 0.1362
 IR Inten    --      1.3968                 0.0080                 0.0093

                      4                      5                      6
                      A                      A                      A
 Frequencies --    329.7601               363.2416               451.1376
 Red. masses --      2.8727                 1.1009                 2.6738
 Frc consts  --      0.1840                 0.0856                 0.3206
 IR Inten    --      2.6045                93.6998                 3.4108

                      7                      8                      9
                      A                      A                      A
 Frequencies --    552.7173               574.8481               796.0698
 Red. masses --      2.6567                 4.5953                 4.4794
 Frc consts  --      0.4782                 0.8947                 1.6725
 IR Inten    --      0.0898                18.2857                16.0314

                     10                     11                     12
                      A                      A                      A
 Frequencies --    996.4088              1052.8529              1068.0854
 Red. masses --      1.5650                 1.6366                 3.0574
 Frc consts  --      0.9155                 1.0689                 2.0550
 IR Inten    --      6.4240                 1.5760                23.0360

                     13                     14                     15
                      A                      A                      A
 Frequencies --   1137.4540              1145.4992              1277.3861
 Red. masses --      1.3540                 1.4363                 2.8114
 Frc consts  --      1.0321                 1.1104                 2.7028
 IR Inten    --      0.4305                 2.4849                27.4284

                     16                     17                     18
                      A                      A                      A
 Frequencies --   1325.2967              1395.1733              1451.5199
 Red. masses --      1.7336                 1.3006                 1.1792
 Frc consts  --      1.7940                 1.4916                 1.4638
 IR Inten    --    319.6406                32.1396                14.3951

                     19                     20                     21
                      A                      A                      A
 Frequencies --   1482.6162              1483.2369              1486.7887
 Red. masses --      1.0497                 1.0404                 1.0438
 Frc consts  --      1.3594                 1.3486                 1.3594
 IR Inten    --      1.5290                 0.0126                 7.4274

                     22                     23                     24
                      A                      A                      A
 Frequencies --   1510.4200              1809.3035              2985.6576
 Red. masses --      1.0650                 8.1123                 1.0430
 Frc consts  --      1.4315                15.6464                 5.4781
 IR Inten    --      8.5735               221.0381                68.8787

                     25                     26                     27
                      A                      A                      A
 Frequencies --   3034.5172              3052.8158              3067.5338
 Red. masses --      1.0409                 1.0892                 1.1007
 Frc consts  --      5.6471                 5.9808                 6.1026
 IR Inten    --     10.5569                51.9410                24.9094

                     28                     29                     30
                      A                      A                      A
 Frequencies --   3088.6122              3154.9349              3830.8021
 Red. masses --      1.0998                 1.0952                 1.0659
 Frc consts  --      6.1814                 6.4229                 9.2162
 IR Inten    --     12.0089                11.0961                44.2316

 - Thermochemistry -
 -------------------
 Temperature   298.150 Kelvin.  Pressure   1.00000 Atm.
 Atom     1 has atomic number  6 and mass  12.00000

 Molecular mass:    73.05276 amu.
 Principal axes and moments of inertia in atomic units:
                           1         2         3
     Eigenvalues --   202.04954 454.42771 634.09844
           X            0.99951  -0.03120  -0.00002
           Y            0.03120   0.99951  -0.00002
           Z            0.00002   0.00002   1.00000
 This molecule is an asymmetric top.
 Rotational symmetry number  1.
 Rotational temperatures (Kelvin)      0.42868     0.19060     0.13659
 Rotational constants (GHZ):           8.93217     3.97146     2.84615
 Zero-point vibrational energy     265509.0 (Joules/Mol)
                                   63.45817 (Kcal/Mol)
 Warning -- explicit consideration of   8 degrees of freedom as
           vibrations may cause significant error
 Vibrational temperatures:    140.87   197.18   359.68   474.45   522.62
          (Kelvin)            649.09   795.24   827.08  1145.37  1433.61
                             1514.82  1536.73  1636.54  1648.12  1837.87
                             1906.80  2007.34  2088.41  2133.15  2134.04
                             2139.15  2173.15  2603.18  4295.69  4365.99
                             4392.32  4413.49  4443.82  4539.24  5511.66

 Zero-point correction=                           0.101127 (Hartree/Particle)
 Thermal correction to Energy=                    0.107482
 Thermal correction to Enthalpy=                  0.108427
 Thermal correction to Gibbs Free Energy=         0.071692
 Sum of electronic and zero-point Energies=           -248.410536
 Sum of electronic and thermal Energies=              -248.404181
 Sum of electronic and thermal Enthalpies=            -248.403237
 Sum of electronic and thermal Free Energies=         -248.439971

                     E (Thermal)             CV                S
                      KCal/Mol        Cal/Mol-Kelvin    Cal/Mol-Kelvin
 Total                   67.446             21.323             77.313
 Electronic               0.000              0.000              0.000
 Translational            0.889              2.981             38.782
 Rotational               0.889              2.981             25.568
 Vibrational             65.669             15.361             12.963
 Vibration     1          0.603              1.951              3.496
 Vibration     2          0.614              1.916              2.845
 Vibration     3          0.663              1.763              1.731
 Vibration     4          0.713              1.616              1.261
 Vibration     5          0.737              1.548              1.108
 Vibration     6          0.810              1.358              0.792
 Vibration     7          0.908              1.134              0.539
 Vibration     8          0.931              1.086              0.495

 Normal termination of Gaussian 09 at Fri Sep  2 19:20:42 2022.

 -----------------------------------------------------------------
 #P Geom=AllCheck Guess=TCheck SCRF=Check CCSD(T,E4T,FrzG4)/GTBas1
 -----------------------------------------------------------------

 Structure from the checkpoint file:  "G4.Frag_480.chk"
 --------
 Frag_480
 --------
 Charge =  0 Multiplicity = 1

 SCF Done:  E(RHF) =  -246.962831721     A.U. after   13 cycles
 E2 =    -0.7282907084D+00 EUMP2 =    -0.24769112242976D+03
 CCSD(T)
 CCSD(T)= -0.24775637552D+03
 CSD=-247.7324445\CCSD(T)=-247.7563755\RMSD=3.423e-09\PG=C01 [X(C3H7N1O
 Normal termination of Gaussian 09 at Fri Sep  2 19:21:35 2022.

 ---------------------------------------------------------
 #P Geom=AllCheck Guess=TCheck SCRF=Check MP4=FrzG4/GTBas2
 ---------------------------------------------------------

 Structure from the checkpoint file:  "G4.Frag_480.chk"
 --------
 Frag_480
 --------
 Charge =  0 Multiplicity = 1

 SCF Done:  E(RHF) =  -246.970118451     A.U. after   12 cycles
 E2 =    -0.7386782966D+00 EUMP2 =    -0.24770879674722D+03
 Normal termination of Gaussian 09 at Fri Sep  2 19:21:51 2022.

 ---------------------------------------------------------
 #P Geom=AllCheck Guess=TCheck SCRF=Check MP4=FrzG4/GTBas3
 ---------------------------------------------------------

 Structure from the checkpoint file:  "G4.Frag_480.chk"
 --------
 Frag_480
 --------
 Charge =  0 Multiplicity = 1

 SCF Done:  E(RHF) =  -246.997225146     A.U. after   12 cycles
 E2 =    -0.8952753802D+00 EUMP2 =    -0.24789250052619D+03
 Normal termination of Gaussian 09 at Fri Sep  2 19:23:16 2022.

 -----------------------------------------------------------
 #P Geom=AllCheck Guess=TCheck SCRF=Check MP2=Full/GTLargeXP
 -----------------------------------------------------------

 Structure from the checkpoint file:  "G4.Frag_480.chk"
 --------
 Frag_480
 --------
 Charge =  0 Multiplicity = 1

 SCF Done:  E(RHF) =  -247.061042366     A.U. after   12 cycles
 E2 =    -0.1174322494D+01 EUMP2 =    -0.24823536486041D+03
 Normal termination of Gaussian 09 at Fri Sep  2 19:24:08 2022.
 SCF Done:  E(RHF) =  -247.080766720     A.U. after    8 cycles
 Normal termination of Gaussian 09 at Fri Sep  2 19:25:04 2022.

                         Standard orientation:
 ---------------------------------------------------------------------
 Center     Atomic      Atomic             Coordinates (Angstroms)
 Number     Number       Type             X           Y           Z
 ---------------------------------------------------------------------
      1          6           0        1.966268    0.016971   -0.000008
      2          7           0        0.719288   -0.704288    0.000049
      3          6           0       -0.404102   -0.134866    0.000169
      4          6           0       -0.757099    1.337317   -0.000028
      5          8           0       -1.496941   -0.958167   -0.000242
      6          1           0        2.553194   -0.277021   -0.878525
      7          1           0        1.891976    1.114721    0.000310
      8          1           0        2.553345   -0.277169    0.878389
      9          1           0       -1.356382    1.581425    0.884753
     10          1           0       -1.356945    1.580301   -0.884793
     11          1           0        0.122008    1.980150   -0.000896
     12          1           0       -2.297087   -0.423584    0.001559
 ---------------------------------------------------------------------

 SCF Done:  E(RHF) =  -247.085038209     A.U. after    8 cycles

 The electronic state is 1-A.
 Alpha  occ. eigenvalues --  -20.58561 -15.53273 -11.33554 -11.25079 -11.24376
 Alpha  occ. eigenvalues --   -1.41157  -1.21001  -1.01158  -0.94223  -0.77497
 Alpha  occ. eigenvalues --   -0.69515  -0.66389  -0.63243  -0.58923  -0.57298
 Alpha  occ. eigenvalues --   -0.54668  -0.54533  -0.54156  -0.39795  -0.37955
 Alpha virt. eigenvalues --    0.02921   0.04037   0.05331   0.05365   0.06809
 Alpha virt. eigenvalues --    0.07113   0.07205   0.08339   0.08492   0.10130
 Alpha virt. eigenvalues --    0.13793   0.14399   0.14940   0.15540   0.15978

 Mulliken charges:
               1
     1  C   -0.385508
     2  N   -0.344179
     3  C    0.346090
     4  C   -0.573435
     5  O   -0.500230
     6  H    0.178094
     7  H    0.136195
     8  H    0.178084
     9  H    0.200443
    10  H    0.200475
    11  H    0.195832
    12  H    0.368138
 Sum of Mulliken charges =  -0.00000

 Dipole moment (field-independent basis, Debye):
    X=             -1.2770    Y=              3.8223    Z=              0.0029  Tot=              4.0300
 Quadrupole moment (field-independent basis, Debye-Ang):
   XX=            -25.3160   YY=            -35.1173   ZZ=            -31.4620
   XY=             -1.5497   XZ=             -0.0087   YZ=             -0.0012

 Normal termination of Gaussian 09 at Fri Sep  2 19:31:24 2022.
