 Gaussian 09, Revision E.01,
 Gaussian 09:  ES64L-G09RevE.01 30-Nov-2015

 -----
 #P G4
 -----

 --------
 Frag_501
 --------
 Symbolic Z-matrix:
 Charge =  0 Multiplicity = 1

 SCF Done:  E(RB3LYP) =  -327.123303322     A.U. after   14 cycles
 SCF Done:  E(RB3LYP) =  -327.133102226     A.U. after   12 cycles
 SCF Done:  E(RB3LYP) =  -327.133971144     A.U. after   12 cycles
 SCF Done:  E(RB3LYP) =  -327.134508256     A.U. after   11 cycles
 SCF Done:  E(RB3LYP) =  -327.134989822     A.U. after   11 cycles
 SCF Done:  E(RB3LYP) =  -327.135546834     A.U. after   11 cycles
 SCF Done:  E(RB3LYP) =  -327.136002168     A.U. after   10 cycles
 SCF Done:  E(RB3LYP) =  -327.136135396     A.U. after   10 cycles
 SCF Done:  E(RB3LYP) =  -327.136197092     A.U. after   10 cycles
 SCF Done:  E(RB3LYP) =  -327.136229064     A.U. after    9 cycles
 SCF Done:  E(RB3LYP) =  -327.136248930     A.U. after    8 cycles
 SCF Done:  E(RB3LYP) =  -327.136252831     A.U. after    8 cycles
 SCF Done:  E(RB3LYP) =  -327.136253113     A.U. after    6 cycles
 Optimization completed.
    -- Stationary point found.
 Normal termination of Gaussian 09 at Tue Aug 23 21:10:50 2022.

 ----------------------------------------------------------
 #P Geom=AllCheck Guess=TCheck SCRF=Check B3LYP/GTBas3 Freq
 ----------------------------------------------------------

 Structure from the checkpoint file:  "G4.Frag_501.chk"
 --------
 Frag_501
 --------
 Charge =  0 Multiplicity = 1

 SCF Done:  E(RB3LYP) =  -327.136253113     A.U. after    1 cycles

  Exact polarizability:  71.518   6.168  72.707  -0.146  -1.548  53.280
 Approx polarizability:  96.529   9.374 114.206  -0.965  -2.418  74.745

                      1                      2                      3
                      A                      A                      A
 Frequencies --     75.9412               201.9083               237.5144
 Red. masses --      3.1680                 1.0952                 1.3396
 Frc consts  --      0.0108                 0.0263                 0.0445
 IR Inten    --      1.0979                 0.8913                 5.2019

                      4                      5                      6
                      A                      A                      A
 Frequencies --    257.6440               286.5690               302.4363
 Red. masses --      1.4590                 2.9750                 1.0918
 Frc consts  --      0.0571                 0.1439                 0.0588
 IR Inten    --      3.0689                 0.4756                16.1921

                      7                      8                      9
                      A                      A                      A
 Frequencies --    340.0198               361.7751               395.9676
 Red. masses --      2.1196                 1.2057                 3.2427
 Frc consts  --      0.1444                 0.0930                 0.2996
 IR Inten    --      8.9394               103.5566                12.5463

                     10                     11                     12
                      A                      A                      A
 Frequencies --    425.1719               488.6855               519.8475
 Red. masses --      2.9001                 2.7297                 2.8024
 Frc consts  --      0.3089                 0.3841                 0.4462
 IR Inten    --      7.4146                 1.5481                21.7161

                     13                     14                     15
                      A                      A                      A
 Frequencies --    622.1028               693.7822               700.1782
 Red. masses --      1.7204                 2.9398                 1.5627
 Frc consts  --      0.3923                 0.8337                 0.4514
 IR Inten    --    134.3922                 2.0332                55.5287

                     16                     17                     18
                      A                      A                      A
 Frequencies --    767.9994               834.6767               889.3714
 Red. masses --      1.3283                 1.4596                 2.2566
 Frc consts  --      0.4616                 0.5991                 1.0516
 IR Inten    --     32.8310                56.9118                 2.4805

                     19                     20                     21
                      A                      A                      A
 Frequencies --    926.6791               969.4918               993.9431
 Red. masses --      1.5235                 2.0299                 1.6550
 Frc consts  --      0.7708                 1.1241                 0.9633
 IR Inten    --      0.0970                18.2210                19.9892

                     22                     23                     24
                      A                      A                      A
 Frequencies --   1016.5706              1110.9550              1123.7315
 Red. masses --      1.3152                 1.6200                 1.7005
 Frc consts  --      0.8008                 1.1780                 1.2652
 IR Inten    --      0.3998                 2.5612                35.8588

                     25                     26                     27
                      A                      A                      A
 Frequencies --   1209.2066              1221.8819              1349.4196
 Red. masses --      2.3876                 2.7026                 2.2392
 Frc consts  --      2.0569                 2.3774                 2.4023
 IR Inten    --     27.4509                58.6960                49.3352

                     28                     29                     30
                      A                      A                      A
 Frequencies --   1368.0077              1394.6661              1416.2063
 Red. masses --      1.7105                 1.3100                 1.2708
 Frc consts  --      1.8860                 1.5013                 1.5017
 IR Inten    --     17.8712                12.4203                 3.3573

                     31                     32                     33
                      A                      A                      A
 Frequencies --   1439.1605              1473.3204              1483.5339
 Red. masses --      1.1696                 1.0522                 1.0543
 Frc consts  --      1.4273                 1.3456                 1.3671
 IR Inten    --      3.1654                 0.8226                 0.5884

                     34                     35                     36
                      A                      A                      A
 Frequencies --   1491.5052              1504.7193              1653.8230
 Red. masses --      1.0682                 1.0658                 1.1519
 Frc consts  --      1.4001                 1.4218                 1.8563
 IR Inten    --      2.0547                 3.7166                40.8818

                     37                     38                     39
                      A                      A                      A
 Frequencies --   1708.4216              3038.0917              3045.9523
 Red. masses --      5.0531                 1.0355                 1.0350
 Frc consts  --      8.6896                 5.6310                 5.6577
 IR Inten    --     92.3400                18.6706                13.0116

                     40                     41                     42
                      A                      A                      A
 Frequencies --   3109.2570              3114.8771              3127.2035
 Red. masses --      1.1002                 1.1012                 1.1019
 Frc consts  --      6.2665                 6.2952                 6.3489
 IR Inten    --     24.1288                12.1722                33.6250

                     43                     44                     45
                      A                      A                      A
 Frequencies --   3131.2759              3160.9526              3267.9586
 Red. masses --      1.1025                 1.0649                 1.1090
 Frc consts  --      6.3692                 6.2691                 6.9781
 IR Inten    --     17.9763                10.9286                 3.8238

                     46                     47                     48
                      A                      A                      A
 Frequencies --   3546.9239              3641.0309              3795.4771
 Red. masses --      1.0473                 1.0965                 1.0656
 Frc consts  --      7.7627                 8.5642                 9.0443
 IR Inten    --      4.2445                 5.4910                11.8856

 - Thermochemistry -
 -------------------
 Temperature   298.150 Kelvin.  Pressure   1.00000 Atm.
 Atom     1 has atomic number  6 and mass  12.00000

 Molecular mass:   101.08406 amu.
 Principal axes and moments of inertia in atomic units:
                           1         2         3
     Eigenvalues --   550.72026 770.26793 925.90738
           X            0.99693   0.07812   0.00531
           Y           -0.07797   0.99668  -0.02353
           Z           -0.00713   0.02305   0.99971
 This molecule is an asymmetric top.
 Rotational symmetry number  1.
 Warning -- assumption of classical behavior for rotation
           may cause significant error
 Rotational temperatures (Kelvin)      0.15727     0.11245     0.09354
 Rotational constants (GHZ):           3.27706     2.34300     1.94916
 Zero-point vibrational energy     414122.3 (Joules/Mol)
                                   98.97760 (Kcal/Mol)
 Warning -- explicit consideration of  12 degrees of freedom as
           vibrations may cause significant error
 Vibrational temperatures:    109.26   290.50   341.73   370.69   412.31
          (Kelvin)            435.14   489.21   520.51   569.71   611.73
                              703.11   747.94   895.07   998.20  1007.40
                             1104.98  1200.91  1279.61  1333.28  1394.88
                             1430.06  1462.62  1598.41  1616.80  1739.78
                             1758.01  1941.51  1968.26  2006.61  2037.60
                             2070.63  2119.78  2134.47  2145.94  2164.95
                             2379.48  2458.03  4371.13  4382.44  4473.52
                             4481.61  4499.34  4505.20  4547.90  4701.86
                             5103.23  5238.62  5460.84

 Zero-point correction=                           0.157731 (Hartree/Particle)
 Thermal correction to Energy=                    0.166393
 Thermal correction to Enthalpy=                  0.167338
 Thermal correction to Gibbs Free Energy=         0.125738
 Sum of electronic and zero-point Energies=           -326.978522
 Sum of electronic and thermal Energies=              -326.969860
 Sum of electronic and thermal Enthalpies=            -326.968916
 Sum of electronic and thermal Free Energies=         -327.010515

                     E (Thermal)             CV                S
                      KCal/Mol        Cal/Mol-Kelvin    Cal/Mol-Kelvin
 Total                  104.413             33.134             87.553
 Electronic               0.000              0.000              0.000
 Translational            0.889              2.981             39.750
 Rotational               0.889              2.981             27.465
 Vibrational            102.636             27.172             20.338
 Vibration     1          0.599              1.965              3.993
 Vibration     2          0.639              1.837              2.116
 Vibration     3          0.656              1.783              1.821
 Vibration     4          0.667              1.750              1.678
 Vibration     5          0.684              1.699              1.494
 Vibration     6          0.694              1.669              1.403
 Vibration     7          0.720              1.596              1.212
 Vibration     8          0.736              1.551              1.114
 Vibration     9          0.763              1.479              0.978
 Vibration    10          0.787              1.415              0.875
 Vibration    11          0.845              1.275              0.687
 Vibration    12          0.875              1.206              0.610

 Optimization completed.
    -- Stationary point found.
 Normal termination of Gaussian 09 at Tue Aug 23 21:16:17 2022.

 -----------------------------------------------------------------
 #P Geom=AllCheck Guess=TCheck SCRF=Check CCSD(T,E4T,FrzG4)/GTBas1
 -----------------------------------------------------------------

 Structure from the checkpoint file:  "G4.Frag_501.chk"
 --------
 Frag_501
 --------
 Charge =  0 Multiplicity = 1

 SCF Done:  E(RHF) =  -325.020909249     A.U. after   12 cycles
 E2 =    -0.9959625022D+00 EUMP2 =    -0.32601687175159D+03
 CCSD(T)
 CCSD(T)= -0.32611394405D+03
 Normal termination of Gaussian 09 at Tue Aug 23 21:32:54 2022.

 ---------------------------------------------------------
 #P Geom=AllCheck Guess=TCheck SCRF=Check MP4=FrzG4/GTBas2
 ---------------------------------------------------------

 Structure from the checkpoint file:  "G4.Frag_501.chk"
 --------
 Frag_501
 --------
 Charge =  0 Multiplicity = 1

 SCF Done:  E(RHF) =  -325.031416182     A.U. after   13 cycles
 E2 =    -0.1010987416D+01 EUMP2 =    -0.32604240359789D+03
 Normal termination of Gaussian 09 at Tue Aug 23 21:54:12 2022.

 ---------------------------------------------------------
 #P Geom=AllCheck Guess=TCheck SCRF=Check MP4=FrzG4/GTBas3
 ---------------------------------------------------------

 Structure from the checkpoint file:  "G4.Frag_501.chk"
 --------
 Frag_501
 --------
 Charge =  0 Multiplicity = 1

 SCF Done:  E(RHF) =  -325.067509769     A.U. after   11 cycles
 E2 =    -0.1229849773D+01 EUMP2 =    -0.32629735954204D+03
 Normal termination of Gaussian 09 at Wed Aug 24 03:11:10 2022.

 -----------------------------------------------------------
 #P Geom=AllCheck Guess=TCheck SCRF=Check MP2=Full/GTLargeXP
 -----------------------------------------------------------

 Structure from the checkpoint file:  "G4.Frag_501.chk"
 --------
 Frag_501
 --------
 Charge =  0 Multiplicity = 1

 SCF Done:  E(RHF) =  -325.148692634     A.U. after   12 cycles
 E2 =    -0.1615282047D+01 EUMP2 =    -0.32676397468137D+03
 Normal termination of Gaussian 09 at Wed Aug 24 03:25:28 2022.
 SCF Done:  E(RHF) =  -325.174455907     A.U. after    9 cycles
 Normal termination of Gaussian 09 at Wed Aug 24 03:37:06 2022.

                         Standard orientation:
 ---------------------------------------------------------------------
 Center     Atomic      Atomic             Coordinates (Angstroms)
 Number     Number       Type             X           Y           Z
 ---------------------------------------------------------------------
      1          6           0        1.667661    1.183399   -0.008122
      2          6           0        0.952657    0.052968   -0.000460
      3          7           0        1.537085   -1.220766   -0.061179
      4          6           0       -0.580936    0.054624   -0.004370
      5          6           0       -1.117133   -0.375828    1.369464
      6          6           0       -1.130294   -0.854588   -1.120204
      7          8           0       -1.084855    1.373808   -0.188079
      8          1           0        2.752625    1.165720   -0.004062
      9          1           0        1.182473    2.147713   -0.002947
     10          1           0        1.040150   -1.938010    0.448707
     11          1           0        2.516944   -1.226499    0.188494
     12          1           0       -0.763317    0.315873    2.137523
     13          1           0       -0.793313   -1.387208    1.632994
     14          1           0       -2.210463   -0.359741    1.359915
     15          1           0       -0.752274   -0.531198   -2.095976
     16          1           0       -0.839549   -1.899749   -0.989552
     17          1           0       -2.221855   -0.790372   -1.129355
     18          1           0       -0.743909    1.694918   -1.030708
 ---------------------------------------------------------------------

 SCF Done:  E(RHF) =  -325.179972177     A.U. after    8 cycles

 The electronic state is 1-A.
 Alpha  occ. eigenvalues --  -20.55226 -15.56301 -11.29702 -11.27104 -11.21863
 Alpha  occ. eigenvalues --  -11.21807 -11.19696  -1.36612  -1.21724  -1.05073
 Alpha  occ. eigenvalues --   -0.99216  -0.94290  -0.83165  -0.75163  -0.71001
 Alpha  occ. eigenvalues --   -0.65608  -0.64555  -0.60490  -0.59495  -0.56313
 Alpha  occ. eigenvalues --   -0.55558  -0.53614  -0.53041  -0.50936  -0.48623
 Alpha  occ. eigenvalues --   -0.46645  -0.44209  -0.32030
 Alpha virt. eigenvalues --    0.03134   0.04165   0.04301   0.04945   0.06464
 Alpha virt. eigenvalues --    0.06562   0.06910   0.07096   0.07531   0.09338
 Alpha virt. eigenvalues --    0.09550   0.09853   0.10232   0.10641   0.11755

 Mulliken charges:
               1
     1  C   -0.572660
     2  C    0.222798
     3  N   -0.741014
     4  C    0.421223
     5  C   -0.553809
     6  C   -0.560315
     7  O   -0.618986
     8  H    0.158887
     9  H    0.203812
    10  H    0.308737
    11  H    0.309271
    12  H    0.188946
    13  H    0.156513
    14  H    0.179856
    15  H    0.170910
    16  H    0.173818
    17  H    0.184921
    18  H    0.367092
 Sum of Mulliken charges =  -0.00000

 Dipole moment (field-independent basis, Debye):
    X=              0.6873    Y=             -1.7706    Z=              0.1326  Tot=              1.9039
 Quadrupole moment (field-independent basis, Debye-Ang):
   XX=            -44.0253   YY=            -43.9736   ZZ=            -45.3205
   XY=              0.6480   XZ=              2.2737   YZ=             -4.3656

 Normal termination of Gaussian 09 at Wed Aug 24 08:46:23 2022.
