 Gaussian 09, Revision E.01,
 Gaussian 09:  ES64L-G09RevE.01 30-Nov-2015

 -----
 #P G4
 -----

 --------
 Frag_533
 --------
 Symbolic Z-matrix:
 Charge =  0 Multiplicity = 1

 SCF Done:  E(RB3LYP) =  -151.107619090     A.U. after   13 cycles
 SCF Done:  E(RB3LYP) =  -151.114913287     A.U. after   12 cycles
 SCF Done:  E(RB3LYP) =  -151.115885026     A.U. after   10 cycles
 SCF Done:  E(RB3LYP) =  -151.115977349     A.U. after   10 cycles
 SCF Done:  E(RB3LYP) =  -151.115984594     A.U. after    8 cycles
 Optimization completed.
    -- Stationary point found.
 Normal termination of Gaussian 09 at Fri Aug 26 07:46:10 2022.

 ----------------------------------------------------------
 #P Geom=AllCheck Guess=TCheck SCRF=Check B3LYP/GTBas3 Freq
 ----------------------------------------------------------

 Structure from the checkpoint file:  "G4.Frag_533.chk"
 --------
 Frag_533
 --------
 Charge =  0 Multiplicity = 1

 SCF Done:  E(RB3LYP) =  -151.115984594     A.U. after    1 cycles

  Exact polarizability:  39.074  -2.798  30.526   0.000  -0.000  28.308
 Approx polarizability:  50.600  -5.998  48.012   0.000  -0.000  39.098

                      1                      2                      3
                      A                      A                      A
 Frequencies --    273.3849               347.7961               415.9995
 Red. masses --      1.1836                 1.0395                 1.9411
 Frc consts  --      0.0521                 0.0741                 0.1979
 IR Inten    --     14.7958                 0.4674                16.8235

                      4                      5                      6
                      A                      A                      A
 Frequencies --    783.5611              1052.8973              1081.4114
 Red. masses --      7.5582                 1.7858                 1.1854
 Frc consts  --      2.7341                 1.1664                 0.8167
 IR Inten    --     54.2160                30.4550                25.0033

                      7                      8                      9
                      A                      A                      A
 Frequencies --   1082.2907              1151.5635              1242.7808
 Red. masses --      1.9608                 1.4310                 1.9768
 Frc consts  --      1.3532                 1.1180                 1.7988
 IR Inten    --     29.5644                 3.5676                 2.7394

                     10                     11                     12
                      A                      A                      A
 Frequencies --   1434.2310              1453.2449              1480.5475
 Red. masses --      1.1603                 1.0487                 1.0942
 Frc consts  --      1.4062                 1.3049                 1.4132
 IR Inten    --     11.6869                 4.0203                 6.7283

                     13                     14                     15
                      A                      A                      A
 Frequencies --   1520.5337              1592.4678              1665.1738
 Red. masses --      1.1069                 1.0594                 1.0496
 Frc consts  --      1.5078                 1.5829                 1.7147
 IR Inten    --     30.0793                19.5779                37.8755

                     16                     17                     18
                      A                      A                      A
 Frequencies --   2738.5903              2768.9891              2935.2737
 Red. masses --      1.0940                 1.0432                 1.0944
 Frc consts  --      4.8341                 4.7127                 5.5557
 IR Inten    --    304.3561               167.6179                69.9564

                     19                     20                     21
                      A                      A                      A
 Frequencies --   3030.2501              3090.8137              3500.7885
 Red. masses --      1.0349                 1.0850                 1.0763
 Frc consts  --      5.5991                 6.1070                 7.7716
 IR Inten    --    229.1950                29.4408                29.3516

 - Thermochemistry -
 -------------------
 Temperature   298.150 Kelvin.  Pressure   1.00000 Atm.
 Atom     1 has atomic number  6 and mass  12.00000

 Molecular mass:    46.05310 amu.
 Principal axes and moments of inertia in atomic units:
                           1         2         3
     Eigenvalues --    48.89668 177.76356 205.49400
           X            0.99998   0.00555   0.00000
           Y           -0.00555   0.99998  -0.00000
           Z           -0.00000   0.00000   1.00000
 This molecule is an asymmetric top.
 Rotational symmetry number  1.
 Rotational temperatures (Kelvin)      1.77136     0.48724     0.42149
 Rotational constants (GHZ):          36.90928    10.15248     8.78245
 Zero-point vibrational energy     207208.7 (Joules/Mol)
                                   49.52407 (Kcal/Mol)
 Warning -- explicit consideration of   3 degrees of freedom as
           vibrations may cause significant error
 Vibrational temperatures:    393.34   500.40   598.53  1127.37  1514.88
          (Kelvin)           1555.91  1557.17  1656.84  1788.08  2063.54
                             2090.89  2130.17  2187.71  2291.20  2395.81
                             3940.22  3983.95  4223.20  4359.85  4446.99
                             5036.85

 Zero-point correction=                           0.078922 (Hartree/Particle)
 Thermal correction to Energy=                    0.083096
 Thermal correction to Enthalpy=                  0.084040
 Thermal correction to Gibbs Free Energy=         0.053749
 Sum of electronic and zero-point Energies=           -151.037063
 Sum of electronic and thermal Energies=              -151.032889
 Sum of electronic and thermal Enthalpies=            -151.031944
 Sum of electronic and thermal Free Energies=         -151.062236

                     E (Thermal)             CV                S
                      KCal/Mol        Cal/Mol-Kelvin    Cal/Mol-Kelvin
 Total                   52.143             13.139             63.753
 Electronic               0.000              0.000              0.000
 Translational            0.889              2.981             37.407
 Rotational               0.889              2.981             22.106
 Vibrational             50.366              7.177              4.240
 Vibration     1          0.676              1.722              1.575
 Vibration     2          0.725              1.580              1.176
 Vibration     3          0.779              1.435              0.906

 Optimization completed.
    -- Stationary point found.
 Normal termination of Gaussian 09 at Fri Aug 26 07:46:21 2022.

 -----------------------------------------------------------------
 #P Geom=AllCheck Guess=TCheck SCRF=Check CCSD(T,E4T,FrzG4)/GTBas1
 -----------------------------------------------------------------

 Structure from the checkpoint file:  "G4.Frag_533.chk"
 --------
 Frag_533
 --------
 Charge =  0 Multiplicity = 1

 SCF Done:  E(RHF) =  -150.120769520     A.U. after   12 cycles
 E2 =    -0.4651604373D+00 EUMP2 =    -0.15058592995758D+03
 CCSD(T)
 CCSD(T)= -0.15063381047D+03
 \CCSD=-150.6203653\CCSD(T)=-150.6338105\RMSD=4.912e-09\PG=C01 [X(C1H6N
 Normal termination of Gaussian 09 at Fri Aug 26 07:46:32 2022.

 ---------------------------------------------------------
 #P Geom=AllCheck Guess=TCheck SCRF=Check MP4=FrzG4/GTBas2
 ---------------------------------------------------------

 Structure from the checkpoint file:  "G4.Frag_533.chk"
 --------
 Frag_533
 --------
 Charge =  0 Multiplicity = 1

 SCF Done:  E(RHF) =  -150.130140732     A.U. after   12 cycles
 E2 =    -0.4738431257D+00 EUMP2 =    -0.15060398385796D+03
 Normal termination of Gaussian 09 at Fri Aug 26 07:46:35 2022.

 ---------------------------------------------------------
 #P Geom=AllCheck Guess=TCheck SCRF=Check MP4=FrzG4/GTBas3
 ---------------------------------------------------------

 Structure from the checkpoint file:  "G4.Frag_533.chk"
 --------
 Frag_533
 --------
 Charge =  0 Multiplicity = 1

 SCF Done:  E(RHF) =  -150.144827171     A.U. after   11 cycles
 E2 =    -0.5752946585D+00 EUMP2 =    -0.15072012182988D+03
 Normal termination of Gaussian 09 at Fri Aug 26 07:46:49 2022.

 -----------------------------------------------------------
 #P Geom=AllCheck Guess=TCheck SCRF=Check MP2=Full/GTLargeXP
 -----------------------------------------------------------

 Structure from the checkpoint file:  "G4.Frag_533.chk"
 --------
 Frag_533
 --------
 Charge =  0 Multiplicity = 1

 SCF Done:  E(RHF) =  -150.189470975     A.U. after   12 cycles
 E2 =    -0.7483070290D+00 EUMP2 =    -0.15093777800426D+03
 Normal termination of Gaussian 09 at Fri Aug 26 07:46:59 2022.
 SCF Done:  E(RHF) =  -150.201324419     A.U. after    9 cycles
 Normal termination of Gaussian 09 at Fri Aug 26 07:47:13 2022.

                         Standard orientation:
 ---------------------------------------------------------------------
 Center     Atomic      Atomic             Coordinates (Angstroms)
 Number     Number       Type             X           Y           Z
 ---------------------------------------------------------------------
      1          6           0       -1.167772   -0.190201    0.000000
      2          7           0       -0.044230    0.697853    0.000000
      3          7           0        1.087537   -0.170922   -0.000000
      4          1           0       -2.080959    0.412612    0.000017
      5          1           0       -1.230318   -0.870756   -0.888964
      6          1           0       -1.230303   -0.870784    0.888944
      7          1           0        1.925086    0.410262   -0.000009
      8          1           0        1.159985   -0.814327   -0.824644
      9          1           0        1.159997   -0.814317    0.824651
 ---------------------------------------------------------------------

 SCF Done:  E(RHF) =  -150.204088313     A.U. after    8 cycles

 The electronic state is 1-A.
 Alpha  occ. eigenvalues --  -15.68906 -15.48448 -11.21480  -1.31230  -1.04829
 Alpha  occ. eigenvalues --   -0.84156  -0.74115  -0.73033  -0.60599  -0.53218
 Alpha  occ. eigenvalues --   -0.50697  -0.39205  -0.29113
 Alpha virt. eigenvalues --    0.02625   0.05515   0.05730   0.06738   0.08254
 Alpha virt. eigenvalues --    0.08706   0.09127   0.12583   0.14297   0.15040
 Alpha virt. eigenvalues --    0.17186   0.18876   0.19422   0.21986   0.22434

 Mulliken charges:
               1
     1  C   -0.311322
     2  N   -0.564769
     3  N   -0.436669
     4  H    0.166610
     5  H    0.075022
     6  H    0.075021
     7  H    0.361355
     8  H    0.317376
     9  H    0.317377
 Sum of Mulliken charges =  -0.00000

 Dipole moment (field-independent basis, Debye):
    X=              3.6963    Y=             -3.3242    Z=              0.0000  Tot=              4.9712
 Quadrupole moment (field-independent basis, Debye-Ang):
   XX=            -14.0493   YY=            -23.4204   ZZ=            -20.9260
   XY=             -1.3536   XZ=             -0.0000   YZ=             -0.0000

 Normal termination of Gaussian 09 at Fri Aug 26 07:48:31 2022.
