 Gaussian 09, Revision E.01,
 Gaussian 09:  ES64L-G09RevE.01 30-Nov-2015

 -----
 #P G4
 -----

 --------
 Frag_742
 --------
 Symbolic Z-matrix:
 Charge =  0 Multiplicity = 1

 SCF Done:  E(RB3LYP) =  -359.648820291     A.U. after   14 cycles
 SCF Done:  E(RB3LYP) =  -359.669497908     A.U. after   12 cycles
 SCF Done:  E(RB3LYP) =  -359.671330172     A.U. after   12 cycles
 SCF Done:  E(RB3LYP) =  -359.671725633     A.U. after   12 cycles
 SCF Done:  E(RB3LYP) =  -359.671892497     A.U. after   13 cycles
 SCF Done:  E(RB3LYP) =  -359.672531671     A.U. after   11 cycles
 SCF Done:  E(RB3LYP) =  -359.673652679     A.U. after   13 cycles
 SCF Done:  E(RB3LYP) =  -359.674336761     A.U. after   13 cycles
 SCF Done:  E(RB3LYP) =  -359.674780225     A.U. after   11 cycles
 SCF Done:  E(RB3LYP) =  -359.675218738     A.U. after   12 cycles
 SCF Done:  E(RB3LYP) =  -359.675467414     A.U. after    8 cycles
 SCF Done:  E(RB3LYP) =  -359.675467771     A.U. after    8 cycles
 SCF Done:  E(RB3LYP) =  -359.675467867     A.U. after    7 cycles
 Optimization completed.
    -- Stationary point found.
 Normal termination of Gaussian 09 at Sun Aug 21 09:41:37 2022.

 ----------------------------------------------------------
 #P Geom=AllCheck Guess=TCheck SCRF=Check B3LYP/GTBas3 Freq
 ----------------------------------------------------------

 Structure from the checkpoint file:  "G4.Frag_742.chk"
 --------
 Frag_742
 --------
 Charge =  0 Multiplicity = 1

 SCF Done:  E(RB3LYP) =  -359.675467867     A.U. after    1 cycles

  Exact polarizability:  44.109   0.305  42.616  -0.416   2.231  30.835
 Approx polarizability:  57.792   1.272  66.215  -1.465   6.837  46.951

                      1                      2                      3
                      A                      A                      A
 Frequencies --     83.8593               182.6050               256.0185
 Red. masses --      7.0588                 1.2693                 3.3390
 Frc consts  --      0.0292                 0.0249                 0.1289
 IR Inten    --      1.1629                17.2272                 6.8633

                      4                      5                      6
                      A                      A                      A
 Frequencies --    286.8938               355.4842               441.6538
 Red. masses --      1.8902                 1.7610                 3.8672
 Frc consts  --      0.0917                 0.1311                 0.4444
 IR Inten    --     51.0210                69.3806                17.6801

                      7                      8                      9
                      A                      A                      A
 Frequencies --    538.0268               606.2743               655.1755
 Red. masses --      3.7082                 1.5661                 2.5690
 Frc consts  --      0.6324                 0.3392                 0.6497
 IR Inten    --     44.9842                48.1545                20.4594

                     10                     11                     12
                      A                      A                      A
 Frequencies --    761.2132               820.7648               936.1971
 Red. masses --      3.9492                 2.0814                 1.7727
 Frc consts  --      1.3482                 0.8261                 0.9154
 IR Inten    --     91.1053                83.8679                73.2619

                     13                     14                     15
                      A                      A                      A
 Frequencies --   1017.6658              1124.5063              1170.4498
 Red. masses --      3.8068                 2.8099                 2.5335
 Frc consts  --      2.3228                 2.0934                 2.0449
 IR Inten    --     32.2912               168.9396               162.7864

                     16                     17                     18
                      A                      A                      A
 Frequencies --   1212.2662              1332.1053              1351.2207
 Red. masses --      1.1837                 1.6101                 1.4900
 Frc consts  --      1.0249                 1.6833                 1.6028
 IR Inten    --     51.9919                12.2870                23.2384

                     19                     20                     21
                      A                      A                      A
 Frequencies --   1386.0729              1478.8667              1631.8774
 Red. masses --      1.5118                 1.5741                 1.1061
 Frc consts  --      1.7113                 2.0283                 1.7354
 IR Inten    --     71.8683                13.6802                32.5468

                     22                     23                     24
                      A                      A                      A
 Frequencies --   1849.6899              2979.4109              3489.1478
 Red. masses --     10.4626                 1.0825                 1.0486
 Frc consts  --     21.0906                 5.6618                 7.5214
 IR Inten    --    248.3304                55.5050                 0.9509

                     25                     26                     27
                      A                      A                      A
 Frequencies --   3576.2452              3740.4220              3749.0772
 Red. masses --      1.0929                 1.0641                 1.0647
 Frc consts  --      8.2351                 8.7711                 8.8173
 IR Inten    --      3.1599                58.7868                44.4809

 - Thermochemistry -
 -------------------
 Temperature   298.150 Kelvin.  Pressure   1.00000 Atm.
 Atom     1 has atomic number  7 and mass  14.00307

 Molecular mass:    91.02694 amu.
 Principal axes and moments of inertia in atomic units:
                           1         2         3
     Eigenvalues --   338.25947 552.07543 775.37305
           X            0.99972  -0.02324   0.00435
           Y            0.02325   0.99973  -0.00131
           Z           -0.00432   0.00142   0.99999
 This molecule is an asymmetric top.
 Rotational symmetry number  1.
 Rotational temperatures (Kelvin)      0.25606     0.15689     0.11171
 Rotational constants (GHZ):           5.33538     3.26901     2.32758
 Zero-point vibrational energy     221388.0 (Joules/Mol)
                                   52.91301 (Kcal/Mol)
 Warning -- explicit consideration of   8 degrees of freedom as
           vibrations may cause significant error
 Vibrational temperatures:    120.65   262.73   368.35   412.78   511.46
          (Kelvin)            635.44   774.10   872.29   942.65  1095.21
                             1180.90  1346.98  1464.19  1617.91  1684.01
                             1744.18  1916.60  1944.10  1994.25  2127.76
                             2347.90  2661.29  4286.70  5020.10  5145.41
                             5381.63  5394.08

 Zero-point correction=                           0.084322 (Hartree/Particle)
 Thermal correction to Energy=                    0.090874
 Thermal correction to Enthalpy=                  0.091819
 Thermal correction to Gibbs Free Energy=         0.054094
 Sum of electronic and zero-point Energies=           -359.591146
 Sum of electronic and thermal Energies=              -359.584593
 Sum of electronic and thermal Enthalpies=            -359.583649
 Sum of electronic and thermal Free Energies=         -359.621374

                     E (Thermal)             CV                S
                      KCal/Mol        Cal/Mol-Kelvin    Cal/Mol-Kelvin
 Total                   57.025             22.625             79.398
 Electronic               0.000              0.000              0.000
 Translational            0.889              2.981             39.438
 Rotational               0.889              2.981             26.474
 Vibrational             55.247             16.664             13.487
 Vibration     1          0.601              1.960              3.798
 Vibration     2          0.630              1.863              2.302
 Vibration     3          0.666              1.753              1.689
 Vibration     4          0.684              1.698              1.492
 Vibration     5          0.731              1.564              1.142
 Vibration     6          0.801              1.379              0.821
 Vibration     7          0.893              1.166              0.570
 Vibration     8          0.965              1.019              0.439

 Optimization completed.
    -- Stationary point found.
 Normal termination of Gaussian 09 at Sun Aug 21 09:43:30 2022.

 -----------------------------------------------------------------
 #P Geom=AllCheck Guess=TCheck SCRF=Check CCSD(T,E4T,FrzG4)/GTBas1
 -----------------------------------------------------------------

 Structure from the checkpoint file:  "G4.Frag_742.chk"
 --------
 Frag_742
 --------
 Charge =  0 Multiplicity = 1

 SCF Done:  E(RHF) =  -357.682182742     A.U. after   13 cycles
 E2 =    -0.9492326521D+00 EUMP2 =    -0.35863141539409D+03
 CCSD(T)
 CCSD(T)= -0.35868820977D+03
 358.6924729\MP4SDQ=-358.6625595\CCSD=-358.6607099\CCSD(T)=-358.6882098
 Normal termination of Gaussian 09 at Sun Aug 21 09:48:01 2022.

 ---------------------------------------------------------
 #P Geom=AllCheck Guess=TCheck SCRF=Check MP4=FrzG4/GTBas2
 ---------------------------------------------------------

 Structure from the checkpoint file:  "G4.Frag_742.chk"
 --------
 Frag_742
 --------
 Charge =  0 Multiplicity = 1

 SCF Done:  E(RHF) =  -357.695590060     A.U. after   12 cycles
 E2 =    -0.9665455670D+00 EUMP2 =    -0.35866213562691D+03
 Normal termination of Gaussian 09 at Sun Aug 21 09:52:37 2022.

 ---------------------------------------------------------
 #P Geom=AllCheck Guess=TCheck SCRF=Check MP4=FrzG4/GTBas3
 ---------------------------------------------------------

 Structure from the checkpoint file:  "G4.Frag_742.chk"
 --------
 Frag_742
 --------
 Charge =  0 Multiplicity = 1

 SCF Done:  E(RHF) =  -357.730176737     A.U. after   12 cycles
 E2 =    -0.1165849790D+01 EUMP2 =    -0.35889602652710D+03
 Normal termination of Gaussian 09 at Sun Aug 21 11:36:46 2022.

 -----------------------------------------------------------
 #P Geom=AllCheck Guess=TCheck SCRF=Check MP2=Full/GTLargeXP
 -----------------------------------------------------------

 Structure from the checkpoint file:  "G4.Frag_742.chk"
 --------
 Frag_742
 --------
 Charge =  0 Multiplicity = 1

 SCF Done:  E(RHF) =  -357.833817595     A.U. after   12 cycles
 E2 =    -0.1519681673D+01 EUMP2 =    -0.35935349926867D+03
 Normal termination of Gaussian 09 at Sun Aug 21 11:41:07 2022.
 SCF Done:  E(RHF) =  -357.862663610     A.U. after    9 cycles
 Normal termination of Gaussian 09 at Sun Aug 21 11:45:26 2022.

                         Standard orientation:
 ---------------------------------------------------------------------
 Center     Atomic      Atomic             Coordinates (Angstroms)
 Number     Number       Type             X           Y           Z
 ---------------------------------------------------------------------
      1          7           0        1.150141   -1.150131    0.575551
      2          6           0        0.697145   -0.146120   -0.391218
      3          8           0        1.469489    1.007493   -0.306534
      4          6           0       -0.757829    0.169102   -0.034304
      5          8           0       -1.112053    1.195885    0.483305
      6          8           0       -1.583168   -0.851372   -0.332032
      7          1           0        0.626772   -2.012655    0.450910
      8          1           0        2.126345   -1.355044    0.382606
      9          1           0        0.745961   -0.481046   -1.439547
     10          1           0        1.089572    1.542239    0.405154
     11          1           0       -2.469684   -0.596514   -0.032755
 ---------------------------------------------------------------------

 SCF Done:  E(RHF) =  -357.868934768     A.U. after    8 cycles

 The electronic state is 1-A.
 Alpha  occ. eigenvalues --  -20.63120 -20.56961 -20.56694 -15.56430 -11.39883
 Alpha  occ. eigenvalues --  -11.34004  -1.48705  -1.39958  -1.37617  -1.19208
 Alpha  occ. eigenvalues --   -0.96662  -0.83361  -0.75620  -0.72774  -0.69228
 Alpha  occ. eigenvalues --   -0.66777  -0.64723  -0.61546  -0.61128  -0.54894
 Alpha  occ. eigenvalues --   -0.50481  -0.49687  -0.47100  -0.42403
 Alpha virt. eigenvalues --    0.03412   0.04084   0.05121   0.05749   0.07262
 Alpha virt. eigenvalues --    0.07441   0.08061   0.09898   0.10367   0.12710
 Alpha virt. eigenvalues --    0.13560   0.14230   0.14446   0.14563   0.15508

 Mulliken charges:
               1
     1  N   -0.693071
     2  C    0.183007
     3  O   -0.583238
     4  C    0.637622
     5  O   -0.610193
     6  O   -0.538992
     7  H    0.306227
     8  H    0.310216
     9  H    0.178372
    10  H    0.398923
    11  H    0.411127
 Sum of Mulliken charges =  -0.00000

 Dipole moment (field-independent basis, Debye):
    X=             -0.8784    Y=             -2.6416    Z=             -0.8622  Tot=              2.9143
 Quadrupole moment (field-independent basis, Debye-Ang):
   XX=            -31.3176   YY=            -35.3467   ZZ=            -37.1294
   XY=             -0.3020   XZ=              0.3781   YZ=              0.7445

 Normal termination of Gaussian 09 at Sun Aug 21 13:44:55 2022.
