 Gaussian 09, Revision E.01,
 Gaussian 09:  ES64L-G09RevE.01 30-Nov-2015

 -----
 #P G4
 -----

 --------
 Frag_499
 --------
 Symbolic Z-matrix:
 Charge =  0 Multiplicity = 1

 SCF Done:  E(RB3LYP) =  -387.543672743     A.U. after   12 cycles
 SCF Done:  E(RB3LYP) =  -387.549733797     A.U. after   10 cycles
 SCF Done:  E(RB3LYP) =  -387.550602149     A.U. after   11 cycles
 SCF Done:  E(RB3LYP) =  -387.551226252     A.U. after   10 cycles
 SCF Done:  E(RB3LYP) =  -387.551523161     A.U. after   10 cycles
 SCF Done:  E(RB3LYP) =  -387.551568208     A.U. after    8 cycles
 SCF Done:  E(RB3LYP) =  -387.551578491     A.U. after    7 cycles
 SCF Done:  E(RB3LYP) =  -387.551581020     A.U. after    7 cycles
 SCF Done:  E(RB3LYP) =  -387.551581844     A.U. after    7 cycles
 SCF Done:  E(RB3LYP) =  -387.551582536     A.U. after    7 cycles
 SCF Done:  E(RB3LYP) =  -387.551582841     A.U. after    7 cycles
 Optimization completed.
    -- Stationary point found.
 Normal termination of Gaussian 09 at Fri Aug 26 11:58:12 2022.

 ----------------------------------------------------------
 #P Geom=AllCheck Guess=TCheck SCRF=Check B3LYP/GTBas3 Freq
 ----------------------------------------------------------

 Structure from the checkpoint file:  "G4.Frag_499.chk"
 --------
 Frag_499
 --------
 Charge =  0 Multiplicity = 1

 SCF Done:  E(RB3LYP) =  -387.551582841     A.U. after    1 cycles

  Exact polarizability:  76.230   0.941  73.641   0.437  -0.556  70.113
 Approx polarizability: 102.731  -1.339 103.414   1.182  -0.543 104.776

                      1                      2                      3
                      A                      A                      A
 Frequencies --     97.9083               174.6304               226.5969
 Red. masses --      2.7385                 1.0514                 1.1570
 Frc consts  --      0.0155                 0.0189                 0.0350
 IR Inten    --      1.2985                 0.1571                 0.8751

                      4                      5                      6
                      A                      A                      A
 Frequencies --    243.2351               257.0976               274.6474
 Red. masses --      1.3372                 1.2065                 2.6579
 Frc consts  --      0.0466                 0.0470                 0.1181
 IR Inten    --      1.0000                 1.3342                 1.0503

                      7                      8                      9
                      A                      A                      A
 Frequencies --    286.2310               300.3401               353.6155
 Red. masses --      1.3810                 1.2690                 2.4430
 Frc consts  --      0.0667                 0.0674                 0.1800
 IR Inten    --     12.1582                31.7680                 8.2645

                     10                     11                     12
                      A                      A                      A
 Frequencies --    361.3970               363.7242               384.8831
 Red. masses --      4.0772                 1.9764                 2.4326
 Frc consts  --      0.3137                 0.1540                 0.2123
 IR Inten    --     15.6947                 4.1670                 0.9666

                     13                     14                     15
                      A                      A                      A
 Frequencies --    416.7454               485.8199               513.1843
 Red. masses --      2.9074                 2.4854                 3.0803
 Frc consts  --      0.2975                 0.3456                 0.4780
 IR Inten    --      6.9389                 6.6576                 4.1682

                     16                     17                     18
                      A                      A                      A
 Frequencies --    532.8747               575.4488               661.5306
 Red. masses --      1.9690                 1.3908                 3.2150
 Frc consts  --      0.3294                 0.2714                 0.8289
 IR Inten    --     24.9452               119.7125                 3.4909

                     19                     20                     21
                      A                      A                      A
 Frequencies --    837.8065               884.1923               924.0885
 Red. masses --      3.0493                 2.1123                 1.5085
 Frc consts  --      1.2611                 0.9730                 0.7590
 IR Inten    --      5.0459                 9.4878                 0.5844

                     22                     23                     24
                      A                      A                      A
 Frequencies --    936.0592               958.1362               966.1930
 Red. masses --      1.5133                 2.0775                 2.1823
 Frc consts  --      0.7812                 1.1237                 1.2003
 IR Inten    --      1.4716                20.1306                37.1899

                     25                     26                     27
                      A                      A                      A
 Frequencies --   1005.4782              1016.9796              1101.8231
 Red. masses --      1.2985                 1.3035                 1.7638
 Frc consts  --      0.7735                 0.7943                 1.2616
 IR Inten    --      1.4777                 3.2495                54.0282

                     28                     29                     30
                      A                      A                      A
 Frequencies --   1140.5797              1186.8841              1205.7887
 Red. masses --      1.7024                 2.2686                 2.5295
 Frc consts  --      1.3048                 1.8829                 2.1668
 IR Inten    --     17.9494                51.3126                48.0780

                     31                     32                     33
                      A                      A                      A
 Frequencies --   1220.0268              1260.6944              1351.3466
 Red. masses --      2.6312                 2.8511                 1.5711
 Frc consts  --      2.3075                 2.6698                 1.6904
 IR Inten    --     34.6032                 5.3338                33.2980

                     34                     35                     36
                      A                      A                      A
 Frequencies --   1385.0025              1395.7576              1402.4622
 Red. masses --      1.2644                 1.3338                 1.4033
 Frc consts  --      1.4290                 1.5310                 1.6263
 IR Inten    --     32.7184                28.1273                20.4048

                     37                     38                     39
                      A                      A                      A
 Frequencies --   1416.6609              1421.5885              1472.8932
 Red. masses --      1.3826                 1.2530                 1.0491
 Frc consts  --      1.6348                 1.4919                 1.3410
 IR Inten    --     48.8642                 4.2709                 0.1753

                     40                     41                     42
                      A                      A                      A
 Frequencies --   1481.5593              1485.4165              1490.5640
 Red. masses --      1.0574                 1.0494                 1.0519
 Frc consts  --      1.3675                 1.3642                 1.3770
 IR Inten    --      2.5033                 0.5352                 1.0184

                     43                     44                     45
                      A                      A                      A
 Frequencies --   1500.7498              1501.7626              1511.2697
 Red. masses --      1.0715                 1.0585                 1.0538
 Frc consts  --      1.4219                 1.4065                 1.4181
 IR Inten    --      3.9388                 7.2225                 6.0950

                     46                     47                     48
                      A                      A                      A
 Frequencies --   1515.0977              3032.5610              3039.0906
 Red. masses --      1.0606                 1.0371                 1.0358
 Frc consts  --      1.4344                 5.6193                 5.6363
 IR Inten    --      1.7676                15.5335                20.1138

                     49                     50                     51
                      A                      A                      A
 Frequencies --   3048.5839              3056.5220              3098.7915
 Red. masses --      1.0362                 1.0356                 1.0992
 Frc consts  --      5.6739                 5.7004                 6.2188
 IR Inten    --     11.0504                11.0944                30.8061

                     52                     53                     54
                      A                      A                      A
 Frequencies --   3105.8606              3112.3586              3117.2734
 Red. masses --      1.1001                 1.1016                 1.1010
 Frc consts  --      6.2522                 6.2871                 6.3036
 IR Inten    --     21.5542                20.1920                 6.3960

                     55                     56                     57
                      A                      A                      A
 Frequencies --   3122.5502              3127.6391              3135.8283
 Red. masses --      1.1006                 1.1017                 1.1006
 Frc consts  --      6.3229                 6.3493                 6.3763
 IR Inten    --     29.3541                34.5169                18.8670

                     58                     59                     60
                      A                      A                      A
 Frequencies --   3142.6925              3741.8192              3812.3408
 Red. masses --      1.1016                 1.0646                 1.0661
 Frc consts  --      6.4103                 8.7818                 9.1288
 IR Inten    --     11.1823                44.6776                12.3895

 - Thermochemistry -
 -------------------
 Temperature   298.150 Kelvin.  Pressure   1.00000 Atm.
 Atom     1 has atomic number  6 and mass  12.00000

 Molecular mass:   118.09938 amu.
 Principal axes and moments of inertia in atomic units:
                           1         2         3
     Eigenvalues --   746.032601034.770411053.11258
           X            0.99889   0.04691  -0.00365
           Y           -0.04697   0.98950  -0.13672
           Z           -0.00281   0.13674   0.99060
 This molecule is an asymmetric top.
 Rotational symmetry number  1.
 Warning -- assumption of classical behavior for rotation
           may cause significant error
 Rotational temperatures (Kelvin)      0.11610     0.08370     0.08225
 Rotational constants (GHZ):           2.41912     1.74410     1.71372
 Zero-point vibrational energy     515475.0 (Joules/Mol)
                                  123.20147 (Kcal/Mol)
 Warning -- explicit consideration of  17 degrees of freedom as
           vibrations may cause significant error
 Vibrational temperatures:    140.87   251.25   326.02   349.96   369.91
          (Kelvin)            395.16   411.82   432.12   508.77   519.97
                              523.32   553.76   599.60   698.99   738.36
                              766.69   827.94   951.79  1205.42  1272.15
                             1329.56  1346.78  1378.54  1390.13  1446.66
                             1463.21  1585.28  1641.04  1707.66  1734.86
                             1755.34  1813.86  1944.28  1992.71  2008.18
                             2017.83  2038.26  2045.35  2119.16  2131.63
                             2137.18  2144.59  2159.24  2160.70  2174.38
                             2179.88  4363.17  4372.57  4386.23  4397.65
                             4458.46  4468.64  4477.98  4485.06  4492.65
                             4499.97  4511.75  4521.63  5383.64  5485.10

 Zero-point correction=                           0.196334 (Hartree/Particle)
 Thermal correction to Energy=                    0.206506
 Thermal correction to Enthalpy=                  0.207450
 Thermal correction to Gibbs Free Energy=         0.162968
 Sum of electronic and zero-point Energies=           -387.355249
 Sum of electronic and thermal Energies=              -387.345077
 Sum of electronic and thermal Enthalpies=            -387.344133
 Sum of electronic and thermal Free Energies=         -387.388615

                     E (Thermal)             CV                S
                      KCal/Mol        Cal/Mol-Kelvin    Cal/Mol-Kelvin
 Total                  129.584             39.639             93.620
 Electronic               0.000              0.000              0.000
 Translational            0.889              2.981             40.214
 Rotational               0.889              2.981             28.188
 Vibrational            127.807             33.678             25.218
 Vibration     1          0.603              1.951              3.496
 Vibration     2          0.627              1.874              2.385
 Vibration     3          0.650              1.800              1.906
 Vibration     4          0.659              1.774              1.779
 Vibration     5          0.667              1.751              1.681
 Vibration     6          0.677              1.720              1.567
 Vibration     7          0.684              1.699              1.496
 Vibration     8          0.693              1.673              1.415
 Vibration     9          0.730              1.568              1.150
 Vibration    10          0.736              1.552              1.116
 Vibration    11          0.737              1.547              1.106
 Vibration    12          0.754              1.502              1.020
 Vibration    13          0.780              1.434              0.903
 Vibration    14          0.842              1.281              0.695
 Vibration    15          0.868              1.221              0.626
 Vibration    16          0.888              1.177              0.581
 Vibration    17          0.932              1.084              0.494

 Normal termination of Gaussian 09 at Fri Aug 26 11:59:41 2022.

 -----------------------------------------------------------------
 #P Geom=AllCheck Guess=TCheck SCRF=Check CCSD(T,E4T,FrzG4)/GTBas1
 -----------------------------------------------------------------

 Structure from the checkpoint file:  "G4.Frag_499.chk"
 --------
 Frag_499
 --------
 Charge =  0 Multiplicity = 1

 SCF Done:  E(RHF) =  -385.070998175     A.U. after   11 cycles
 E2 =    -0.1160312465D+01 EUMP2 =    -0.38623131063977D+03
 CCSD(T)
 CCSD(T)= -0.38634344109D+03
 \MP4SDQ=-386.3074423\CCSD=-386.3079603\CCSD(T)=-386.3434411\RMSD=7.256
 Normal termination of Gaussian 09 at Fri Aug 26 12:09:50 2022.

 ---------------------------------------------------------
 #P Geom=AllCheck Guess=TCheck SCRF=Check MP4=FrzG4/GTBas2
 ---------------------------------------------------------

 Structure from the checkpoint file:  "G4.Frag_499.chk"
 --------
 Frag_499
 --------
 Charge =  0 Multiplicity = 1

 SCF Done:  E(RHF) =  -385.080858780     A.U. after   11 cycles
 E2 =    -0.1178314024D+01 EUMP2 =    -0.38625917280353D+03
 Normal termination of Gaussian 09 at Fri Aug 26 12:13:27 2022.

 ---------------------------------------------------------
 #P Geom=AllCheck Guess=TCheck SCRF=Check MP4=FrzG4/GTBas3
 ---------------------------------------------------------

 Structure from the checkpoint file:  "G4.Frag_499.chk"
 --------
 Frag_499
 --------
 Charge =  0 Multiplicity = 1

 SCF Done:  E(RHF) =  -385.123832384     A.U. after   10 cycles
 E2 =    -0.1448976239D+01 EUMP2 =    -0.38657280862279D+03
 Normal termination of Gaussian 09 at Fri Aug 26 12:44:57 2022.

 -----------------------------------------------------------
 #P Geom=AllCheck Guess=TCheck SCRF=Check MP2=Full/GTLargeXP
 -----------------------------------------------------------

 Structure from the checkpoint file:  "G4.Frag_499.chk"
 --------
 Frag_499
 --------
 Charge =  0 Multiplicity = 1

 SCF Done:  E(RHF) =  -385.218472347     A.U. after   12 cycles
 E2 =    -0.1896231269D+01 EUMP2 =    -0.38711470361670D+03
 Normal termination of Gaussian 09 at Fri Aug 26 12:53:02 2022.
 SCF Done:  E(RHF) =  -385.249093751     A.U. after    8 cycles
 Normal termination of Gaussian 09 at Fri Aug 26 12:56:01 2022.

                         Standard orientation:
 ---------------------------------------------------------------------
 Center     Atomic      Atomic             Coordinates (Angstroms)
 Number     Number       Type             X           Y           Z
 ---------------------------------------------------------------------
      1          6           0       -1.409119   -1.365981   -0.044791
      2          6           0       -0.779214    0.028743    0.025436
      3          6           0       -1.334839    0.807024    1.221794
      4          8           0       -1.194600    0.671309   -1.201608
      5          6           0        0.791894   -0.047847   -0.012382
      6          6           0        1.379707   -0.970498    1.058564
      7          6           0        1.436479    1.347641    0.098338
      8          8           0        1.155995   -0.618957   -1.268287
      9          1           0       -2.476470   -1.267024   -0.258104
     10          1           0       -1.294638   -1.901444    0.900686
     11          1           0       -0.943831   -1.953929   -0.838198
     12          1           0       -0.995808    1.848065    1.223447
     13          1           0       -2.428181    0.808203    1.184376
     14          1           0       -1.028842    0.356829    2.170386
     15          1           0       -1.069177    1.620464   -1.100276
     16          1           0        1.133197   -0.627971    2.067564
     17          1           0        1.022082   -1.994122    0.934083
     18          1           0        2.469341   -0.985810    0.963404
     19          1           0        2.503807    1.255387   -0.117764
     20          1           0        1.018113    2.046512   -0.634406
     21          1           0        1.324948    1.785983    1.094553
     22          1           0        0.564851   -0.204435   -1.912349
 ---------------------------------------------------------------------

 SCF Done:  E(RHF) =  -385.255822931     A.U. after    8 cycles

 The electronic state is 1-A.
 Alpha  occ. eigenvalues --  -20.56219 -20.53842 -11.29275 -11.28570 -11.22572
 Alpha  occ. eigenvalues --  -11.21712 -11.21273 -11.20974  -1.37957  -1.34188
 Alpha  occ. eigenvalues --   -1.07659  -1.01313  -0.95204  -0.93104  -0.84014
 Alpha  occ. eigenvalues --   -0.75476  -0.70654  -0.66322  -0.63200  -0.62480
 Alpha  occ. eigenvalues --   -0.60623  -0.56610  -0.55767  -0.54277  -0.53835
 Alpha  occ. eigenvalues --   -0.53514  -0.52633  -0.51937  -0.50782  -0.49030
 Alpha  occ. eigenvalues --   -0.47713  -0.44622  -0.41400
 Alpha virt. eigenvalues --    0.02802   0.03848   0.04113   0.04623   0.05963
 Alpha virt. eigenvalues --    0.06492   0.06609   0.06810   0.07018   0.09072
 Alpha virt. eigenvalues --    0.09092   0.09311   0.09473   0.09646   0.09896

 Mulliken charges:
               1
     1  C   -0.627914
     2  C    0.399465
     3  C   -0.610607
     4  O   -0.642282
     5  C    0.426165
     6  C   -0.595859
     7  C   -0.631742
     8  O   -0.641852
     9  H    0.186536
    10  H    0.178632
    11  H    0.199912
    12  H    0.170148
    13  H    0.187854
    14  H    0.181719
    15  H    0.369840
    16  H    0.169052
    17  H    0.176889
    18  H    0.182006
    19  H    0.195950
    20  H    0.153712
    21  H    0.178304
    22  H    0.394071
 Sum of Mulliken charges =  -0.00000

 Dipole moment (field-independent basis, Debye):
    X=             -0.7106    Y=              1.7463    Z=              1.8977  Tot=              2.6750
 Quadrupole moment (field-independent basis, Debye-Ang):
   XX=            -55.1560   YY=            -49.7536   ZZ=            -52.9262
   XY=              1.0534   XZ=              0.4019   YZ=             -2.2819

 Normal termination of Gaussian 09 at Fri Aug 26 13:19:06 2022.
