 Gaussian 09, Revision E.01,
 Gaussian 09:  ES64L-G09RevE.01 30-Nov-2015

 -----
 #P G4
 -----

 ---------
 Frag_1075
 ---------
 Symbolic Z-matrix:
 Charge =  0 Multiplicity = 1

 SCF Done:  E(RB3LYP) =  -263.262053215     A.U. after   15 cycles
 SCF Done:  E(RB3LYP) =  -263.279740136     A.U. after   13 cycles
 SCF Done:  E(RB3LYP) =  -263.280523651     A.U. after   11 cycles
 SCF Done:  E(RB3LYP) =  -263.280680799     A.U. after   10 cycles
 SCF Done:  E(RB3LYP) =  -263.280697058     A.U. after    9 cycles
 SCF Done:  E(RB3LYP) =  -263.280699132     A.U. after    8 cycles
 Optimization completed.
    -- Stationary point found.
 Normal termination of Gaussian 09 at Fri Aug 26 09:15:58 2022.

 ----------------------------------------------------------
 #P Geom=AllCheck Guess=TCheck SCRF=Check B3LYP/GTBas3 Freq
 ----------------------------------------------------------

 Structure from the checkpoint file:  "G4.Frag_1075.chk"
 ---------
 Frag_1075
 ---------
 Charge =  0 Multiplicity = 1

 SCF Done:  E(RB3LYP) =  -263.280699132     A.U. after    1 cycles

  Exact polarizability:  64.174  -7.821  40.646   0.000  -0.000  20.223
 Approx polarizability: 113.715 -20.779  63.320  -0.000  -0.000  31.292

                      1                      2                      3
                      A                      A                      A
 Frequencies --    164.8299               324.0915               347.5798
 Red. masses --      3.2688                 1.1132                 3.9713
 Frc consts  --      0.0523                 0.0689                 0.2827
 IR Inten    --     30.4467                95.6013                 1.3252

                      4                      5                      6
                      A                      A                      A
 Frequencies --    450.9250               567.6175               681.9088
 Red. masses --      2.7799                 2.8963                 4.0326
 Frc consts  --      0.3330                 0.5498                 1.1048
 IR Inten    --      9.6553                21.6149                10.6788

                      7                      8                      9
                      A                      A                      A
 Frequencies --    733.5923               844.5384               872.2725
 Red. masses --      1.1290                 4.9466                 1.3578
 Frc consts  --      0.3580                 2.0787                 0.6087
 IR Inten    --      0.0317                 0.5804                54.4715

                     10                     11                     12
                      A                      A                      A
 Frequencies --    967.8664              1016.4629              1135.4328
 Red. masses --      1.9271                 1.5504                 1.6050
 Frc consts  --      1.0636                 0.9438                 1.2191
 IR Inten    --     26.9143                39.9117               164.6867

                     13                     14                     15
                      A                      A                      A
 Frequencies --   1355.6812              1429.3445              1512.0459
 Red. masses --      2.3872                 1.1784                 1.2969
 Frc consts  --      2.5850                 1.4185                 1.7469
 IR Inten    --      9.6755                15.4280                94.0404

                     16                     17                     18
                      A                      A                      A
 Frequencies --   1615.6271              1716.2580              3176.0490
 Red. masses --      7.7287                 6.6081                 1.0625
 Frc consts  --     11.8861                11.4680                 6.3147
 IR Inten    --     20.7638                89.6582                 6.3441

                     19                     20                     21
                      A                      A                      A
 Frequencies --   3179.2023              3280.2372              3839.2303
 Red. masses --      1.0695                 1.1148                 1.0661
 Frc consts  --      6.3690                 7.0677                 9.2588
 IR Inten    --      8.6040                 0.4274                59.2365

 - Thermochemistry -
 -------------------
 Temperature   298.150 Kelvin.  Pressure   1.00000 Atm.
 Atom     1 has atomic number  6 and mass  12.00000

 Molecular mass:    72.03236 amu.
 Principal axes and moments of inertia in atomic units:
                           1         2         3
     Eigenvalues --   177.25851 371.04424 548.30275
           X            0.99875  -0.04998   0.00000
           Y            0.04998   0.99875  -0.00000
           Z           -0.00000   0.00000   1.00000
 This molecule is an asymmetric top.
 Rotational symmetry number  1.
 Rotational temperatures (Kelvin)      0.48863     0.23343     0.15797
 Rotational constants (GHZ):          10.18141     4.86395     3.29150
 Zero-point vibrational energy     174719.3 (Joules/Mol)
                                   41.75892 (Kcal/Mol)
 Warning -- explicit consideration of   5 degrees of freedom as
           vibrations may cause significant error
 Vibrational temperatures:    237.15   466.29   500.09   648.78   816.67
          (Kelvin)            981.11  1055.47  1215.10  1255.00  1392.54
                             1462.46  1633.63  1950.52  2056.51  2175.49
                             2324.52  2469.31  4569.62  4574.16  4719.52
                             5523.79

 Zero-point correction=                           0.066547 (Hartree/Particle)
 Thermal correction to Energy=                    0.071664
 Thermal correction to Enthalpy=                  0.072608
 Thermal correction to Gibbs Free Energy=         0.038717
 Sum of electronic and zero-point Energies=           -263.214152
 Sum of electronic and thermal Energies=              -263.209035
 Sum of electronic and thermal Enthalpies=            -263.208091
 Sum of electronic and thermal Free Energies=         -263.241982

                     E (Thermal)             CV                S
                      KCal/Mol        Cal/Mol-Kelvin    Cal/Mol-Kelvin
 Total                   44.970             17.664             71.330
 Electronic               0.000              0.000              0.000
 Translational            0.889              2.981             38.740
 Rotational               0.889              2.981             25.092
 Vibrational             43.192             11.702              7.497
 Vibration     1          0.623              1.886              2.494
 Vibration     2          0.709              1.627              1.289
 Vibration     3          0.725              1.580              1.177
 Vibration     4          0.810              1.359              0.793
 Vibration     5          0.924              1.101              0.509

 Optimization completed.
    -- Stationary point found.
 Normal termination of Gaussian 09 at Fri Aug 26 09:16:15 2022.

 -----------------------------------------------------------------
 #P Geom=AllCheck Guess=TCheck SCRF=Check CCSD(T,E4T,FrzG4)/GTBas1
 -----------------------------------------------------------------

 Structure from the checkpoint file:  "G4.Frag_1075.chk"
 ---------
 Frag_1075
 ---------
 Charge =  0 Multiplicity = 1

 SCF Done:  E(RHF) =  -261.727272450     A.U. after   13 cycles
 E2 =    -0.7524452108D+00 EUMP2 =    -0.26247971766063D+03
 CCSD(T)
 CCSD(T)= -0.26253939915D+03
 5110877\CCSD=-262.5109508\CCSD(T)=-262.5393991\RMSD=5.490e-09\PG=C01 [
 Normal termination of Gaussian 09 at Fri Aug 26 09:17:01 2022.

 ---------------------------------------------------------
 #P Geom=AllCheck Guess=TCheck SCRF=Check MP4=FrzG4/GTBas2
 ---------------------------------------------------------

 Structure from the checkpoint file:  "G4.Frag_1075.chk"
 ---------
 Frag_1075
 ---------
 Charge =  0 Multiplicity = 1

 SCF Done:  E(RHF) =  -261.736613292     A.U. after   13 cycles
 E2 =    -0.7628822935D+00 EUMP2 =    -0.26249949558512D+03
 Normal termination of Gaussian 09 at Fri Aug 26 09:17:13 2022.

 ---------------------------------------------------------
 #P Geom=AllCheck Guess=TCheck SCRF=Check MP4=FrzG4/GTBas3
 ---------------------------------------------------------

 Structure from the checkpoint file:  "G4.Frag_1075.chk"
 ---------
 Frag_1075
 ---------
 Charge =  0 Multiplicity = 1

 SCF Done:  E(RHF) =  -261.762059293     A.U. after   12 cycles
 E2 =    -0.9051205795D+00 EUMP2 =    -0.26266717987254D+03
 Normal termination of Gaussian 09 at Fri Aug 26 09:18:10 2022.

 -----------------------------------------------------------
 #P Geom=AllCheck Guess=TCheck SCRF=Check MP2=Full/GTLargeXP
 -----------------------------------------------------------

 Structure from the checkpoint file:  "G4.Frag_1075.chk"
 ---------
 Frag_1075
 ---------
 Charge =  0 Multiplicity = 1

 SCF Done:  E(RHF) =  -261.831906313     A.U. after   12 cycles
 E2 =    -0.1184748177D+01 EUMP2 =    -0.26301665448947D+03
 Normal termination of Gaussian 09 at Fri Aug 26 09:18:48 2022.
 SCF Done:  E(RHF) =  -261.852982163     A.U. after    8 cycles
 Normal termination of Gaussian 09 at Fri Aug 26 09:19:24 2022.

                         Standard orientation:
 ---------------------------------------------------------------------
 Center     Atomic      Atomic             Coordinates (Angstroms)
 Number     Number       Type             X           Y           Z
 ---------------------------------------------------------------------
      1          6           0        1.607267   -0.697212   -0.000014
      2          6           0        0.450738   -0.029991    0.000008
      3          8           0        0.286388    1.317188    0.000012
      4          7           0       -0.756663   -0.786704    0.000020
      5          7           0       -1.846652   -0.184158   -0.000000
      6          1           0        1.576889   -1.777283   -0.000019
      7          1           0        2.570244   -0.200741   -0.000031
      8          1           0        1.144890    1.752048    0.000016
      9          1           0       -1.707950    0.847720   -0.000161
 ---------------------------------------------------------------------

 SCF Done:  E(RHF) =  -261.857240852     A.U. after    8 cycles

 The electronic state is 1-A.
 Alpha  occ. eigenvalues --  -20.61844 -15.63711 -15.62444 -11.34386 -11.24325
 Alpha  occ. eigenvalues --   -1.44934  -1.35376  -1.07887  -0.92953  -0.84058
 Alpha  occ. eigenvalues --   -0.74230  -0.70984  -0.63022  -0.61497  -0.57548
 Alpha  occ. eigenvalues --   -0.55724  -0.52066  -0.41179  -0.36530
 Alpha virt. eigenvalues --    0.03217   0.04297   0.05083   0.05711   0.07327
 Alpha virt. eigenvalues --    0.07952   0.08063   0.08411   0.10886   0.11163
 Alpha virt. eigenvalues --    0.12319   0.13338   0.14657   0.14758   0.15535

 Mulliken charges:
               1
     1  C   -0.423946
     2  C    0.340246
     3  O   -0.579030
     4  N   -0.096600
     5  N   -0.342225
     6  H    0.228845
     7  H    0.172776
     8  H    0.402059
     9  H    0.297875
 Sum of Mulliken charges =  -0.00000

 Dipole moment (field-independent basis, Debye):
    X=              3.2822    Y=              2.4115    Z=             -0.0003  Tot=              4.0729
 Quadrupole moment (field-independent basis, Debye-Ang):
   XX=            -29.0032   YY=            -28.3772   ZZ=            -31.2143
   XY=             -1.0513   XZ=              0.0004   YZ=             -0.0000

 Normal termination of Gaussian 09 at Fri Aug 26 09:23:13 2022.
