 Gaussian 09, Revision E.01,
 Gaussian 09:  ES64L-G09RevE.01 30-Nov-2015

 -----
 #P G4
 -----

 ---------
 Frag_1140
 ---------
 Symbolic Z-matrix:
 Charge =  0 Multiplicity = 1

 SCF Done:  E(RB3LYP) =  -260.612866474     A.U. after   16 cycles
 SCF Done:  E(RB3LYP) =  -260.635973584     A.U. after   13 cycles
 SCF Done:  E(RB3LYP) =  -260.638721780     A.U. after   12 cycles
 SCF Done:  E(RB3LYP) =  -260.638909374     A.U. after   11 cycles
 SCF Done:  E(RB3LYP) =  -260.638948533     A.U. after   10 cycles
 SCF Done:  E(RB3LYP) =  -260.638966471     A.U. after    8 cycles
 SCF Done:  E(RB3LYP) =  -260.638972841     A.U. after    8 cycles
 SCF Done:  E(RB3LYP) =  -260.638973602     A.U. after    8 cycles
 SCF Done:  E(RB3LYP) =  -260.638974615     A.U. after    8 cycles
 SCF Done:  E(RB3LYP) =  -260.586622935     A.U. after   14 cycles
 SCF Done:  E(RB3LYP) =  -260.655103624     A.U. after    8 cycles
 SCF Done:  E(RB3LYP) =  -260.655104330     A.U. after    8 cycles
 SCF Done:  E(RB3LYP) =  -260.655104361     A.U. after    7 cycles
 Optimization completed.
    -- Stationary point found.
 Normal termination of Gaussian 09 at Tue Aug 23 18:31:44 2022.

 ----------------------------------------------------------
 #P Geom=AllCheck Guess=TCheck SCRF=Check B3LYP/GTBas3 Freq
 ----------------------------------------------------------

 Structure from the checkpoint file:  "G4.Frag_1140.chk"
 ---------
 Frag_1140
 ---------
 Charge =  0 Multiplicity = 1

 SCF Done:  E(RB3LYP) =  -260.655104361     A.U. after    1 cycles

  Exact polarizability:  60.573   2.140  41.828   0.894   0.527  27.748
 Approx polarizability:  95.011   2.035  60.427   2.696   0.033  41.883

                      1                      2                      3
                      A                      A                      A
 Frequencies --    114.7587               215.4510               384.7557
 Red. masses --      2.1615                 1.2910                 2.7718
 Frc consts  --      0.0168                 0.0353                 0.2418
 IR Inten    --      7.1915                48.5502                57.9025

                      4                      5                      6
                      A                      A                      A
 Frequencies --    455.2417               523.1991               582.5719
 Red. masses --      1.2180                 2.7151                 2.9300
 Frc consts  --      0.1487                 0.4379                 0.5859
 IR Inten    --      7.7961                29.8386                 8.4731

                      7                      8                      9
                      A                      A                      A
 Frequencies --    651.7578               805.7477               816.3891
 Red. masses --      3.6463                 6.4585                 1.3150
 Frc consts  --      0.9126                 2.4705                 0.5164
 IR Inten    --     28.2632                17.0871                68.4325

                     10                     11                     12
                      A                      A                      A
 Frequencies --    899.5234               950.6377              1105.9092
 Red. masses --      5.2580                 1.5452                 1.1848
 Frc consts  --      2.5067                 0.8227                 0.8538
 IR Inten    --     37.8123               120.8928                12.0064

                     13                     14                     15
                      A                      A                      A
 Frequencies --   1109.9260              1174.0211              1193.4398
 Red. masses --      1.4736                 1.3406                 1.6073
 Frc consts  --      1.0696                 1.0887                 1.3488
 IR Inten    --     47.3634                 2.2628                73.4106

                     16                     17                     18
                      A                      A                      A
 Frequencies --   1333.9934              1451.0018              1612.4371
 Red. masses --      1.4520                 1.9088                 1.2207
 Frc consts  --      1.5224                 2.3678                 1.8700
 IR Inten    --     21.3457               184.1886               109.5723

                     19                     20                     21
                      A                      A                      A
 Frequencies --   1642.9417              1672.4193              1695.1156
 Red. masses --      1.0979                 1.2010                 2.7530
 Frc consts  --      1.7461                 1.9791                 4.6607
 IR Inten    --     29.0174                67.3116               242.1081

                     22                     23                     24
                      A                      A                      A
 Frequencies --   2889.2293              3386.9325              3421.3571
 Red. masses --      1.0671                 1.0533                 1.0949
 Frc consts  --      5.2484                 7.1190                 7.5514
 IR Inten    --    327.1721                13.7586                10.9997

                     25                     26                     27
                      A                      A                      A
 Frequencies --   3459.6890              3485.5092              3569.9193
 Red. masses --      1.0724                 1.0528                 1.0880
 Frc consts  --      7.5629                 7.5356                 8.1692
 IR Inten    --      4.9834                 5.5110                14.3217

 - Thermochemistry -
 -------------------
 Temperature   298.150 Kelvin.  Pressure   1.00000 Atm.
 Atom     1 has atomic number  7 and mass  14.00307

 Molecular mass:    74.05925 amu.
 Principal axes and moments of inertia in atomic units:
                           1         2         3
     Eigenvalues --   186.99612 414.52087 581.06371
           X            0.99999   0.00526  -0.00150
           Y           -0.00523   0.99984   0.01719
           Z            0.00159  -0.01718   0.99985
 This molecule is an asymmetric top.
 Rotational symmetry number  1.
 Rotational temperatures (Kelvin)      0.46319     0.20895     0.14906
 Rotational constants (GHZ):           9.65122     4.35380     3.10593
 Zero-point vibrational energy     242865.1 (Joules/Mol)
                                   58.04615 (Kcal/Mol)
 Warning -- explicit consideration of   6 degrees of freedom as
           vibrations may cause significant error
 Vibrational temperatures:    165.11   309.99   553.58   654.99   752.77
          (Kelvin)            838.19   937.73  1159.29  1174.60  1294.21
                             1367.75  1591.15  1596.93  1689.15  1717.09
                             1919.32  2087.67  2319.93  2363.82  2406.24
                             2438.89  4156.95  4873.03  4922.56  4977.71
                             5014.86  5136.31

 Zero-point correction=                           0.092502 (Hartree/Particle)
 Thermal correction to Energy=                    0.098033
 Thermal correction to Enthalpy=                  0.098977
 Thermal correction to Gibbs Free Energy=         0.064057
 Sum of electronic and zero-point Energies=           -260.562602
 Sum of electronic and thermal Energies=              -260.557071
 Sum of electronic and thermal Enthalpies=            -260.556127
 Sum of electronic and thermal Free Energies=         -260.591047

                     E (Thermal)             CV                S
                      KCal/Mol        Cal/Mol-Kelvin    Cal/Mol-Kelvin
 Total                   61.517             19.334             73.495
 Electronic               0.000              0.000              0.000
 Translational            0.889              2.981             38.823
 Rotational               0.889              2.981             25.313
 Vibrational             59.739             13.372              9.359
 Vibration     1          0.608              1.937              3.187
 Vibration     2          0.645              1.817              1.997
 Vibration     3          0.754              1.503              1.020
 Vibration     4          0.814              1.349              0.780
 Vibration     5          0.878              1.199              0.603
 Vibration     6          0.939              1.069              0.481

 Optimization completed.
    -- Stationary point found.
 Normal termination of Gaussian 09 at Tue Aug 23 18:32:59 2022.

 -----------------------------------------------------------------
 #P Geom=AllCheck Guess=TCheck SCRF=Check CCSD(T,E4T,FrzG4)/GTBas1
 -----------------------------------------------------------------

 Structure from the checkpoint file:  "G4.Frag_1140.chk"
 ---------
 Frag_1140
 ---------
 Charge =  0 Multiplicity = 1

 SCF Done:  E(RHF) =  -259.042515836     A.U. after   14 cycles
 E2 =    -0.7880336956D+00 EUMP2 =    -0.25983054953173D+03
 CCSD(T)
 CCSD(T)= -0.25989143960D+03
 4211\MP4SDQ=-259.8644847\CCSD=-259.8646248\CCSD(T)=-259.8914396\RMSD=2
 Normal termination of Gaussian 09 at Tue Aug 23 18:34:44 2022.

 ---------------------------------------------------------
 #P Geom=AllCheck Guess=TCheck SCRF=Check MP4=FrzG4/GTBas2
 ---------------------------------------------------------

 Structure from the checkpoint file:  "G4.Frag_1140.chk"
 ---------
 Frag_1140
 ---------
 Charge =  0 Multiplicity = 1

 SCF Done:  E(RHF) =  -259.055678358     A.U. after   13 cycles
 E2 =    -0.8020569893D+00 EUMP2 =    -0.25985773534779D+03
 Normal termination of Gaussian 09 at Tue Aug 23 18:36:38 2022.

 ---------------------------------------------------------
 #P Geom=AllCheck Guess=TCheck SCRF=Check MP4=FrzG4/GTBas3
 ---------------------------------------------------------

 Structure from the checkpoint file:  "G4.Frag_1140.chk"
 ---------
 Frag_1140
 ---------
 Charge =  0 Multiplicity = 1

 SCF Done:  E(RHF) =  -259.081927753     A.U. after   12 cycles
 E2 =    -0.9504242099D+00 EUMP2 =    -0.26003235196256D+03
 Normal termination of Gaussian 09 at Tue Aug 23 19:12:13 2022.

 -----------------------------------------------------------
 #P Geom=AllCheck Guess=TCheck SCRF=Check MP2=Full/GTLargeXP
 -----------------------------------------------------------

 Structure from the checkpoint file:  "G4.Frag_1140.chk"
 ---------
 Frag_1140
 ---------
 Charge =  0 Multiplicity = 1

 SCF Done:  E(RHF) =  -259.155557830     A.U. after   13 cycles
 E2 =    -0.1234453293D+01 EUMP2 =    -0.26039001112286D+03
 Normal termination of Gaussian 09 at Tue Aug 23 19:14:30 2022.
 SCF Done:  E(RHF) =  -259.175431475     A.U. after    9 cycles
 Normal termination of Gaussian 09 at Tue Aug 23 19:17:27 2022.

                         Standard orientation:
 ---------------------------------------------------------------------
 Center     Atomic      Atomic             Coordinates (Angstroms)
 Number     Number       Type             X           Y           Z
 ---------------------------------------------------------------------
      1          7           0       -1.789905   -0.542786   -0.044449
      2          6           0       -0.572432   -0.136966    0.023867
      3          7           0       -0.351794    1.316058   -0.021395
      4          7           0        0.543274   -0.910227    0.124859
      5          7           0        1.720209   -0.068511   -0.069129
      6          1           0       -1.795422   -1.563682   -0.084025
      7          1           0       -1.121393    1.708510   -0.554471
      8          1           0       -0.444945    1.691659    0.920146
      9          1           0        2.329700   -0.076535    0.753084
     10          1           0        1.342328    0.904263   -0.244746
     11          1           0        2.271833   -0.404160   -0.862389
 ---------------------------------------------------------------------

 SCF Done:  E(RHF) =  -259.179695997     A.U. after    8 cycles

 The electronic state is 1-A.
 Alpha  occ. eigenvalues --  -15.68979 -15.56594 -15.53437 -15.47810 -11.30874
 Alpha  occ. eigenvalues --   -1.33795  -1.22500  -1.12129  -1.04089  -0.78309
 Alpha  occ. eigenvalues --   -0.75670  -0.73110  -0.68019  -0.65318  -0.59681
 Alpha  occ. eigenvalues --   -0.48655  -0.44696  -0.42710  -0.39385  -0.30778
 Alpha virt. eigenvalues --    0.02077   0.04567   0.05134   0.06415   0.07943
 Alpha virt. eigenvalues --    0.08366   0.08453   0.09792   0.10435   0.13291
 Alpha virt. eigenvalues --    0.13518   0.14837   0.15225   0.15507   0.15832

 Mulliken charges:
               1
     1  N   -0.771433
     2  C    0.516896
     3  N   -0.737355
     4  N   -0.588997
     5  N   -0.429369
     6  H    0.279013
     7  H    0.343725
     8  H    0.307351
     9  H    0.351859
    10  H    0.371886
    11  H    0.356423
 Sum of Mulliken charges =  -0.00000

 Dipole moment (field-independent basis, Debye):
    X=              6.1978    Y=              3.1179    Z=             -0.0455  Tot=              6.9380
 Quadrupole moment (field-independent basis, Debye-Ang):
   XX=            -27.5159   YY=            -31.0625   ZZ=            -29.7454
   XY=             -0.6122   XZ=             -0.3866   YZ=              1.9150

 Normal termination of Gaussian 09 at Tue Aug 23 20:39:20 2022.
