 Gaussian 09, Revision E.01,
 Gaussian 09:  ES64L-G09RevE.01 30-Nov-2015

 -----
 #P G4
 -----

 --------
 Frag_570
 --------
 Symbolic Z-matrix:
 Charge =  0 Multiplicity = 1

 SCF Done:  E(RB3LYP) =  -299.194214044     A.U. after   15 cycles
 SCF Done:  E(RB3LYP) =  -299.222588441     A.U. after   13 cycles
 SCF Done:  E(RB3LYP) =  -299.227955762     A.U. after   13 cycles
 SCF Done:  E(RB3LYP) =  -299.228371036     A.U. after   11 cycles
 SCF Done:  E(RB3LYP) =  -299.228472970     A.U. after   11 cycles
 SCF Done:  E(RB3LYP) =  -299.228470277     A.U. after   10 cycles
 SCF Done:  E(RB3LYP) =  -299.228469620     A.U. after   10 cycles
 SCF Done:  E(RB3LYP) =  -299.228487289     A.U. after   10 cycles
 SCF Done:  E(RB3LYP) =  -299.228487772     A.U. after    8 cycles
 Optimization completed.
    -- Stationary point found.
 Normal termination of Gaussian 09 at Mon Aug 22 15:23:43 2022.

 ----------------------------------------------------------
 #P Geom=AllCheck Guess=TCheck SCRF=Check B3LYP/GTBas3 Freq
 ----------------------------------------------------------

 Structure from the checkpoint file:  "G4.Frag_570.chk"
 --------
 Frag_570
 --------
 Charge =  0 Multiplicity = 1

 SCF Done:  E(RB3LYP) =  -299.228487772     A.U. after    1 cycles

  Exact polarizability:  38.456  -4.160  33.746  -0.000   0.000  17.542
 Approx polarizability:  60.157  -9.732  58.425  -0.000   0.000  26.959

                      1                      2                      3
                      A                      A                      A
 Frequencies --    156.6684               348.7879               501.1735
 Red. masses --      5.2768                 5.5626                 6.0172
 Frc consts  --      0.0763                 0.3987                 0.8905
 IR Inten    --      4.0397                33.0977                 0.8995

                      4                      5                      6
                      A                      A                      A
 Frequencies --    635.3250               644.0946               720.1123
 Red. masses --      1.8906                 1.5939                 7.5273
 Frc consts  --      0.4496                 0.3896                 2.2998
 IR Inten    --    186.9954                 2.5896                 7.2611

                      7                      8                      9
                      A                      A                      A
 Frequencies --    794.1942              1070.0711              1209.7468
 Red. masses --      6.6350                 1.5252                 2.3793
 Frc consts  --      2.4657                 1.0290                 2.0516
 IR Inten    --     15.4726                27.4904                 8.5515

                     10                     11                     12
                      A                      A                      A
 Frequencies --   1356.2187              1502.6510              1683.6584
 Red. masses --      2.1601                 1.2892                 9.4124
 Frc consts  --      2.3409                 1.7151                15.7202
 IR Inten    --    448.2693                91.5578                 3.5846

                     13                     14                     15
                      A                      A                      A
 Frequencies --   1910.3718              3071.7264              3727.6770
 Red. masses --     10.2127                 1.0680                 1.0644
 Frc consts  --     21.9596                 5.9374                 8.7146
 IR Inten    --    206.7739                16.8503                87.0821

 - Thermochemistry -
 -------------------
 Temperature   298.150 Kelvin.  Pressure   1.00000 Atm.
 Atom     1 has atomic number  7 and mass  14.00307

 Molecular mass:    74.01163 amu.
 Principal axes and moments of inertia in atomic units:
                           1         2         3
     Eigenvalues --   162.43611 367.54982 529.98593
           X            0.99826  -0.05898  -0.00000
           Y            0.05898   0.99826   0.00000
           Z            0.00000  -0.00000   1.00000
 This molecule is an asymmetric top.
 Rotational symmetry number  1.
 Rotational temperatures (Kelvin)      0.53322     0.23565     0.16343
 Rotational constants (GHZ):          11.11047     4.91019     3.40526
 Zero-point vibrational energy     115633.9 (Joules/Mol)
                                   27.63716 (Kcal/Mol)
 Warning -- explicit consideration of   3 degrees of freedom as
           vibrations may cause significant error
 Vibrational temperatures:    225.41   501.83   721.08   914.09   926.71
          (Kelvin)           1036.08  1142.67  1539.59  1740.55  1951.29
                             2161.98  2422.41  2748.60  4419.52  5363.29

 Zero-point correction=                           0.044043 (Hartree/Particle)
 Thermal correction to Energy=                    0.048618
 Thermal correction to Enthalpy=                  0.049562
 Thermal correction to Gibbs Free Energy=         0.016484
 Sum of electronic and zero-point Energies=           -299.184445
 Sum of electronic and thermal Energies=              -299.179870
 Sum of electronic and thermal Enthalpies=            -299.178926
 Sum of electronic and thermal Free Energies=         -299.212004

                     E (Thermal)             CV                S
                      KCal/Mol        Cal/Mol-Kelvin    Cal/Mol-Kelvin
 Total                   30.508             14.789             69.618
 Electronic               0.000              0.000              0.000
 Translational            0.889              2.981             38.821
 Rotational               0.889              2.981             24.962
 Vibrational             28.731              8.828              5.835
 Vibration     1          0.620              1.895              2.590
 Vibration     2          0.726              1.578              1.172
 Vibration     3          0.857              1.247              0.655

 Optimization completed.
    -- Stationary point found.
 Normal termination of Gaussian 09 at Mon Aug 22 15:24:30 2022.

 -----------------------------------------------------------------
 #P Geom=AllCheck Guess=TCheck SCRF=Check CCSD(T,E4T,FrzG4)/GTBas1
 -----------------------------------------------------------------

 Structure from the checkpoint file:  "G4.Frag_570.chk"
 --------
 Frag_570
 --------
 Charge =  0 Multiplicity = 1

 SCF Done:  E(RHF) =  -297.597457285     A.U. after   14 cycles
 E2 =    -0.7986889783D+00 EUMP2 =    -0.29839614626342D+03
 CCSD(T)
 CCSD(T)= -0.29844204825D+03
 CCSD(T)=-298.4420483\RMSD=6.555e-09\PG=C01 [X(C1H2N2O2)]\\@
 Normal termination of Gaussian 09 at Mon Aug 22 15:25:24 2022.

 ---------------------------------------------------------
 #P Geom=AllCheck Guess=TCheck SCRF=Check MP4=FrzG4/GTBas2
 ---------------------------------------------------------

 Structure from the checkpoint file:  "G4.Frag_570.chk"
 --------
 Frag_570
 --------
 Charge =  0 Multiplicity = 1

 SCF Done:  E(RHF) =  -297.605936431     A.U. after   13 cycles
 E2 =    -0.8100872863D+00 EUMP2 =    -0.29841602371690D+03
 Normal termination of Gaussian 09 at Mon Aug 22 15:26:14 2022.

 ---------------------------------------------------------
 #P Geom=AllCheck Guess=TCheck SCRF=Check MP4=FrzG4/GTBas3
 ---------------------------------------------------------

 Structure from the checkpoint file:  "G4.Frag_570.chk"
 --------
 Frag_570
 --------
 Charge =  0 Multiplicity = 1

 SCF Done:  E(RHF) =  -297.634002885     A.U. after   12 cycles
 E2 =    -0.9588514408D+00 EUMP2 =    -0.29859285432598D+03
 Normal termination of Gaussian 09 at Mon Aug 22 15:47:21 2022.

 -----------------------------------------------------------
 #P Geom=AllCheck Guess=TCheck SCRF=Check MP2=Full/GTLargeXP
 -----------------------------------------------------------

 Structure from the checkpoint file:  "G4.Frag_570.chk"
 --------
 Frag_570
 --------
 Charge =  0 Multiplicity = 1

 SCF Done:  E(RHF) =  -297.716569626     A.U. after   13 cycles
 E2 =    -0.1248288001D+01 EUMP2 =    -0.29896485762756D+03
 Normal termination of Gaussian 09 at Mon Aug 22 15:48:36 2022.
 SCF Done:  E(RHF) =  -297.740443487     A.U. after    9 cycles
 Normal termination of Gaussian 09 at Mon Aug 22 15:50:30 2022.

                         Standard orientation:
 ---------------------------------------------------------------------
 Center     Atomic      Atomic             Coordinates (Angstroms)
 Number     Number       Type             X           Y           Z
 ---------------------------------------------------------------------
      1          7           0       -1.823730   -0.158624   -0.000004
      2          7           0       -0.745782   -0.756024   -0.000016
      3          6           0        0.452290    0.148264    0.000010
      4          8           0        0.390781    1.340810   -0.000016
      5          8           0        1.561942   -0.572923    0.000008
      6          1           0       -1.649020    0.877431    0.000136
      7          1           0        1.300086   -1.507575    0.000010
 ---------------------------------------------------------------------

 SCF Done:  E(RHF) =  -297.745316034     A.U. after    8 cycles

 The electronic state is 1-A.
 Alpha  occ. eigenvalues --  -20.64959 -20.58529 -15.67076 -15.66864 -11.43908
 Alpha  occ. eigenvalues --   -1.51406  -1.42172  -1.38793  -0.99308  -0.86171
 Alpha  occ. eigenvalues --   -0.82268  -0.71224  -0.68145  -0.66020  -0.59987
 Alpha  occ. eigenvalues --   -0.55770  -0.52913  -0.51367  -0.43759
 Alpha virt. eigenvalues --    0.03978   0.04439   0.05200   0.05355   0.05817
 Alpha virt. eigenvalues --    0.08401   0.09819   0.11148   0.11264   0.12154
 Alpha virt. eigenvalues --    0.12997   0.14651   0.15651   0.15983   0.17453

 Mulliken charges:
               1
     1  N   -0.259195
     2  N   -0.176198
     3  C    0.721185
     4  O   -0.528799
     5  O   -0.496937
     6  H    0.319720
     7  H    0.420224
 Sum of Mulliken charges =  -0.00000

 Dipole moment (field-independent basis, Debye):
    X=              0.0783    Y=             -1.5279    Z=              0.0003  Tot=              1.5299
 Quadrupole moment (field-independent basis, Debye-Ang):
   XX=            -31.7394   YY=            -29.0455   ZZ=            -27.1395
   XY=             -6.3351   XZ=             -0.0004   YZ=              0.0001

 Normal termination of Gaussian 09 at Mon Aug 22 16:41:48 2022.
