 Gaussian 09, Revision E.01,
 Gaussian 09:  ES64L-G09RevE.01 30-Nov-2015

 -----
 #P G4
 -----

 ---------
 Frag_1150
 ---------
 Symbolic Z-matrix:
 Charge =  0 Multiplicity = 1

 SCF Done:  E(RB3LYP) =  -339.598040894     A.U. after   15 cycles
 SCF Done:  E(RB3LYP) =  -339.616344093     A.U. after   13 cycles
 SCF Done:  E(RB3LYP) =  -339.618094555     A.U. after   13 cycles
 SCF Done:  E(RB3LYP) =  -339.618449105     A.U. after   11 cycles
 SCF Done:  E(RB3LYP) =  -339.618600542     A.U. after   11 cycles
 SCF Done:  E(RB3LYP) =  -339.620842329     A.U. after   15 cycles
 SCF Done:  E(RB3LYP) =  -339.624089873     A.U. after   12 cycles
 SCF Done:  E(RB3LYP) =  -339.629170773     A.U. after   14 cycles
 SCF Done:  E(RB3LYP) =  -339.630176729     A.U. after   13 cycles
 SCF Done:  E(RB3LYP) =  -339.631857195     A.U. after   12 cycles
 SCF Done:  E(RB3LYP) =  -339.632361784     A.U. after   11 cycles
 SCF Done:  E(RB3LYP) =  -339.632367334     A.U. after   10 cycles
 SCF Done:  E(RB3LYP) =  -339.632367582     A.U. after    8 cycles
 Optimization completed.
    -- Stationary point found.
 Normal termination of Gaussian 09 at Fri Aug 26 07:09:59 2022.

 ----------------------------------------------------------
 #P Geom=AllCheck Guess=TCheck SCRF=Check B3LYP/GTBas3 Freq
 ----------------------------------------------------------

 Structure from the checkpoint file:  "G4.Frag_1150.chk"
 ---------
 Frag_1150
 ---------
 Charge =  0 Multiplicity = 1

 SCF Done:  E(RB3LYP) =  -339.632367582     A.U. after    1 cycles

  Exact polarizability:  56.970   5.509  56.582   0.863   2.424  32.066
 Approx polarizability:  77.172   6.552 107.977   3.994   6.036  50.429

                      1                      2                      3
                      A                      A                      A
 Frequencies --     75.6074               203.9762               353.1606
 Red. masses --      3.8842                 1.1259                 2.9160
 Frc consts  --      0.0131                 0.0276                 0.2143
 IR Inten    --      7.2746                 0.4783                 6.8456

                      4                      5                      6
                      A                      A                      A
 Frequencies --    365.4884               394.2320               483.5335
 Red. masses --      2.6335                 2.0207                 1.9719
 Frc consts  --      0.2073                 0.1850                 0.2716
 IR Inten    --     17.1098                14.5489                58.9470

                      7                      8                      9
                      A                      A                      A
 Frequencies --    523.8935               557.2412               681.4684
 Red. masses --      4.5146                 2.8513                 1.3823
 Frc consts  --      0.7301                 0.5216                 0.3782
 IR Inten    --      1.6430                40.8393                 2.2987

                     10                     11                     12
                      A                      A                      A
 Frequencies --    709.6019               719.4202               765.9502
 Red. masses --      2.5325                 2.1343                 1.8656
 Frc consts  --      0.7513                 0.6508                 0.6449
 IR Inten    --     29.1816                13.6794                47.3590

                     13                     14                     15
                      A                      A                      A
 Frequencies --    909.3724              1094.6141              1125.5600
 Red. masses --      4.3955                 2.0889                 2.0721
 Frc consts  --      2.1416                 1.4746                 1.5467
 IR Inten    --     14.2746                20.2207                16.7772

                     16                     17                     18
                      A                      A                      A
 Frequencies --   1169.0590              1181.8466              1298.9287
 Red. masses --      1.7260                 2.6152                 2.3298
 Frc consts  --      1.3898                 2.1522                 2.3160
 IR Inten    --      4.1397                27.9586                36.4223

                     19                     20                     21
                      A                      A                      A
 Frequencies --   1413.0745              1436.5895              1453.2572
 Red. masses --      1.1648                 1.1627                 1.3827
 Frc consts  --      1.3704                 1.4138                 1.7206
 IR Inten    --     14.2659                12.2624                26.4888

                     22                     23                     24
                      A                      A                      A
 Frequencies --   1486.1453              1495.9601              1668.3110
 Red. masses --      1.0522                 1.0906                 9.1280
 Frc consts  --      1.3692                 1.4380                14.9685
 IR Inten    --      7.8479                39.3622               196.8275

                     25                     26                     27
                      A                      A                      A
 Frequencies --   2978.0342              3131.5630              3202.9697
 Red. masses --      1.0567                 1.0794                 1.1003
 Frc consts  --      5.5216                 6.2364                 6.6508
 IR Inten    --     48.1749                11.3747                 0.0100

                     28                     29                     30
                      A                      A                      A
 Frequencies --   3220.1844              3358.7771              3582.1554
 Red. masses --      1.0509                 1.1242                 1.0665
 Frc consts  --      6.4207                 7.4720                 8.0628
 IR Inten    --      6.3122                 3.1516                 1.3557

 - Thermochemistry -
 -------------------
 Temperature   298.150 Kelvin.  Pressure   1.00000 Atm.
 Atom     1 has atomic number  6 and mass  12.00000

 Molecular mass:    90.04293 amu.
 Principal axes and moments of inertia in atomic units:
                           1         2         3
     Eigenvalues --   336.20590 473.99254 766.91721
           X            0.97890   0.20403  -0.01149
           Y           -0.20394   0.97895   0.00844
           Z            0.01297  -0.00592   0.99990
 This molecule is an asymmetric top.
 Rotational symmetry number  1.
 Rotational temperatures (Kelvin)      0.25762     0.18273     0.11294
 Rotational constants (GHZ):           5.36796     3.80753     2.35324
 Zero-point vibrational energy     245473.6 (Joules/Mol)
                                   58.66959 (Kcal/Mol)
 Warning -- explicit consideration of   8 degrees of freedom as
           vibrations may cause significant error
 Vibrational temperatures:    108.78   293.48   508.12   525.86   567.21
          (Kelvin)            695.70   753.76   801.74   980.48  1020.96
                             1035.08  1102.03  1308.38  1574.90  1619.43
                             1682.01  1700.41  1868.87  2033.10  2066.93
                             2090.91  2138.23  2152.35  2400.32  4284.72
                             4505.62  4608.35  4633.12  4832.53  5153.92

 Zero-point correction=                           0.093496 (Hartree/Particle)
 Thermal correction to Energy=                    0.099915
 Thermal correction to Enthalpy=                  0.100859
 Thermal correction to Gibbs Free Energy=         0.063576
 Sum of electronic and zero-point Energies=           -339.538872
 Sum of electronic and thermal Energies=              -339.532453
 Sum of electronic and thermal Enthalpies=            -339.531509
 Sum of electronic and thermal Free Energies=         -339.568792

                     E (Thermal)             CV                S
                      KCal/Mol        Cal/Mol-Kelvin    Cal/Mol-Kelvin
 Total                   62.698             23.242             78.470
 Electronic               0.000              0.000              0.000
 Translational            0.889              2.981             39.405
 Rotational               0.889              2.981             26.305
 Vibrational             60.920             17.280             12.759
 Vibration     1          0.599              1.965              4.002
 Vibration     2          0.640              1.834              2.097
 Vibration     3          0.729              1.569              1.152
 Vibration     4          0.739              1.543              1.099
 Vibration     5          0.761              1.483              0.984
 Vibration     6          0.840              1.287              0.701
 Vibration     7          0.879              1.197              0.601
 Vibration     8          0.913              1.124              0.529

 Optimization completed.
    -- Stationary point found.
 Normal termination of Gaussian 09 at Fri Aug 26 07:10:26 2022.

 -----------------------------------------------------------------
 #P Geom=AllCheck Guess=TCheck SCRF=Check CCSD(T,E4T,FrzG4)/GTBas1
 -----------------------------------------------------------------

 Structure from the checkpoint file:  "G4.Frag_1150.chk"
 ---------
 Frag_1150
 ---------
 Charge =  0 Multiplicity = 1

 SCF Done:  E(RHF) =  -337.636450591     A.U. after   14 cycles
 E2 =    -0.9667698563D+00 EUMP2 =    -0.33860322044693D+03
 CCSD(T)
 CCSD(T)= -0.33867053900D+03
 D=-338.6343446\CCSD(T)=-338.670539\RMSD=5.856e-09\PG=C01 [X(C2H6N2O2)]
 Normal termination of Gaussian 09 at Fri Aug 26 07:12:22 2022.

 ---------------------------------------------------------
 #P Geom=AllCheck Guess=TCheck SCRF=Check MP4=FrzG4/GTBas2
 ---------------------------------------------------------

 Structure from the checkpoint file:  "G4.Frag_1150.chk"
 ---------
 Frag_1150
 ---------
 Charge =  0 Multiplicity = 1

 SCF Done:  E(RHF) =  -337.648738838     A.U. after   13 cycles
 E2 =    -0.9812490718D+00 EUMP2 =    -0.33862998790945D+03
 Normal termination of Gaussian 09 at Fri Aug 26 07:13:01 2022.

 ---------------------------------------------------------
 #P Geom=AllCheck Guess=TCheck SCRF=Check MP4=FrzG4/GTBas3
 ---------------------------------------------------------

 Structure from the checkpoint file:  "G4.Frag_1150.chk"
 ---------
 Frag_1150
 ---------
 Charge =  0 Multiplicity = 1

 SCF Done:  E(RHF) =  -337.679139231     A.U. after   12 cycles
 E2 =    -0.1175097823D+01 EUMP2 =    -0.33885423705324D+03
 Normal termination of Gaussian 09 at Fri Aug 26 07:15:53 2022.

 -----------------------------------------------------------
 #P Geom=AllCheck Guess=TCheck SCRF=Check MP2=Full/GTLargeXP
 -----------------------------------------------------------

 Structure from the checkpoint file:  "G4.Frag_1150.chk"
 ---------
 Frag_1150
 ---------
 Charge =  0 Multiplicity = 1

 SCF Done:  E(RHF) =  -337.771702106     A.U. after   13 cycles
 E2 =    -0.1522177160D+01 EUMP2 =    -0.33929387926562D+03
 Normal termination of Gaussian 09 at Fri Aug 26 07:17:35 2022.
 SCF Done:  E(RHF) =  -337.799166032     A.U. after   10 cycles
 Normal termination of Gaussian 09 at Fri Aug 26 07:19:18 2022.

                         Standard orientation:
 ---------------------------------------------------------------------
 Center     Atomic      Atomic             Coordinates (Angstroms)
 Number     Number       Type             X           Y           Z
 ---------------------------------------------------------------------
      1          6           0        1.541964    0.909572    0.140484
      2          7           0        0.789171   -0.135542   -0.058478
      3          8           0        1.136667   -1.332060   -0.038041
      4          7           0       -0.620947    0.077596   -0.435154
      5          6           0       -1.465575   -0.940599    0.191067
      6          8           0       -1.040444    1.353824   -0.064899
      7          1           0        2.583105    0.709594    0.336366
      8          1           0        1.122328    1.893152    0.037342
      9          1           0       -1.088260   -1.922110   -0.081164
     10          1           0       -1.477555   -0.845237    1.289390
     11          1           0       -2.471136   -0.793425   -0.203259
     12          1           0       -1.074163    1.375703    0.910961
 ---------------------------------------------------------------------

 SCF Done:  E(RHF) =  -337.804959935     A.U. after    8 cycles

 The electronic state is 1-A.
 Alpha  occ. eigenvalues --  -20.63020 -20.53023 -15.76775 -15.68372 -11.28389
 Alpha  occ. eigenvalues --  -11.26949  -1.50859  -1.44056  -1.18633  -1.12671
 Alpha  occ. eigenvalues --   -0.94303  -0.83219  -0.76525  -0.72120  -0.69866
 Alpha  occ. eigenvalues --   -0.66031  -0.62675  -0.60835  -0.57871  -0.55938
 Alpha  occ. eigenvalues --   -0.53855  -0.45839  -0.42274  -0.35156
 Alpha virt. eigenvalues --    0.03522   0.03718   0.04764   0.05262   0.06549
 Alpha virt. eigenvalues --    0.06793   0.07506   0.09716   0.10824   0.11589
 Alpha virt. eigenvalues --    0.12080   0.12715   0.14035   0.14560   0.15943

 Mulliken charges:
               1
     1  C   -0.378212
     2  N    0.293987
     3  O   -0.585674
     4  N    0.126358
     5  C   -0.460132
     6  O   -0.466075
     7  H    0.250428
     8  H    0.256742
     9  H    0.249527
    10  H    0.150344
    11  H    0.205374
    12  H    0.357333
 Sum of Mulliken charges =  -0.00000

 Dipole moment (field-independent basis, Debye):
    X=             -1.3136    Y=              2.3915    Z=              2.1956  Tot=              3.5022
 Quadrupole moment (field-independent basis, Debye-Ang):
   XX=            -33.2854   YY=            -38.0318   ZZ=            -36.2867
   XY=              7.1224   XZ=             -1.7504   YZ=              2.2371

 Normal termination of Gaussian 09 at Fri Aug 26 07:25:33 2022.
