 Gaussian 09, Revision E.01,
 Gaussian 09:  ES64L-G09RevE.01 30-Nov-2015

 -----
 #P G4
 -----

 --------
 Frag_873
 --------
 Symbolic Z-matrix:
 Charge =  0 Multiplicity = 1

 SCF Done:  E(RB3LYP) =  -262.130439520     A.U. after   14 cycles
 SCF Done:  E(RB3LYP) =  -262.142119584     A.U. after   13 cycles
 SCF Done:  E(RB3LYP) =  -262.141069863     A.U. after   14 cycles
 SCF Done:  E(RB3LYP) =  -262.142644269     A.U. after   11 cycles
 SCF Done:  E(RB3LYP) =  -262.143131887     A.U. after   12 cycles
 SCF Done:  E(RB3LYP) =  -262.143142434     A.U. after    9 cycles
 SCF Done:  E(RB3LYP) =  -262.143139551     A.U. after    9 cycles
 SCF Done:  E(RB3LYP) =  -262.143143288     A.U. after    9 cycles
 Optimization completed.
    -- Stationary point found.
 Normal termination of Gaussian 09 at Wed Aug 24 07:35:35 2022.

 ----------------------------------------------------------
 #P Geom=AllCheck Guess=TCheck SCRF=Check B3LYP/GTBas3 Freq
 ----------------------------------------------------------

 Structure from the checkpoint file:  "G4.Frag_873.chk"
 --------
 Frag_873
 --------
 Charge =  0 Multiplicity = 1

 SCF Done:  E(RB3LYP) =  -262.143143288     A.U. after    1 cycles

  Exact polarizability:  46.467   0.157  35.177  -0.000   0.000  19.154
 Approx polarizability:  76.824   5.841  61.096  -0.001  -0.001  28.406

                      1                      2                      3
                      A                      A                      A
 Frequencies --    194.8070               242.2602               286.2939
 Red. masses --      7.0952                 1.2612                 5.4378
 Frc consts  --      0.1586                 0.0436                 0.2626
 IR Inten    --     12.6789               162.4936                45.5595

                      4                      5                      6
                      A                      A                      A
 Frequencies --    482.7948               571.2377               609.2387
 Red. masses --      3.8454                 1.1519                 8.3233
 Frc consts  --      0.5281                 0.2215                 1.8202
 IR Inten    --      6.0811                10.2849                 0.4446

                      7                      8                      9
                      A                      A                      A
 Frequencies --    770.9122               773.1192              1099.5590
 Red. masses --      8.0235                 4.1899                 1.9119
 Frc consts  --      2.8095                 1.4755                 1.3619
 IR Inten    --      7.1636                23.8259                 0.4544

                     10                     11                     12
                      A                      A                      A
 Frequencies --   1335.8620              1616.2107              1813.3565
 Red. masses --      3.8630                 1.2333                10.7874
 Frc consts  --      4.0616                 1.8981                20.8995
 IR Inten    --    164.8949                97.5337               331.6040

                     13                     14                     15
                      A                      A                      A
 Frequencies --   2352.3723              3597.3924              3735.6644
 Red. masses --     12.7197                 1.0449                 1.1057
 Frc consts  --     41.4705                 7.9674                 9.0917
 IR Inten    --     12.1302                75.6159                62.9294

 - Thermochemistry -
 -------------------
 Temperature   298.150 Kelvin.  Pressure   1.00000 Atm.
 Atom     1 has atomic number  7 and mass  14.00307

 Molecular mass:    70.01671 amu.
 Principal axes and moments of inertia in atomic units:
                           1         2         3
     Eigenvalues --   159.42420 421.62287 581.04707
           X            0.99889  -0.04716  -0.00000
           Y            0.04716   0.99889   0.00000
           Z            0.00000  -0.00000   1.00000
 This molecule is an asymmetric top.
 Rotational symmetry number  1.
 Rotational temperatures (Kelvin)      0.54329     0.20543     0.14907
 Rotational constants (GHZ):          11.32037     4.28046     3.10602
 Zero-point vibrational energy     116522.7 (Joules/Mol)
                                   27.84960 (Kcal/Mol)
 Warning -- explicit consideration of   6 degrees of freedom as
           vibrations may cause significant error
 Vibrational temperatures:    280.28   348.56   411.91   694.63   821.88
          (Kelvin)            876.56  1109.17  1112.34  1582.02  1922.01
                             2325.36  2609.01  3384.53  5175.84  5374.78

 Zero-point correction=                           0.044381 (Hartree/Particle)
 Thermal correction to Energy=                    0.049499
 Thermal correction to Enthalpy=                  0.050443
 Thermal correction to Gibbs Free Energy=         0.016477
 Sum of electronic and zero-point Energies=           -262.098762
 Sum of electronic and thermal Energies=              -262.093644
 Sum of electronic and thermal Enthalpies=            -262.092700
 Sum of electronic and thermal Free Energies=         -262.126666

                     E (Thermal)             CV                S
                      KCal/Mol        Cal/Mol-Kelvin    Cal/Mol-Kelvin
 Total                   31.061             16.562             71.488
 Electronic               0.000              0.000              0.000
 Translational            0.889              2.981             38.656
 Rotational               0.889              2.981             25.172
 Vibrational             29.284             10.600              7.661
 Vibration     1          0.635              1.847              2.182
 Vibration     2          0.658              1.776              1.786
 Vibration     3          0.684              1.699              1.496
 Vibration     4          0.839              1.288              0.703
 Vibration     5          0.927              1.093              0.502
 Vibration     6          0.968              1.012              0.434

 Optimization completed.
    -- Stationary point found.
 Normal termination of Gaussian 09 at Wed Aug 24 07:36:13 2022.

 -----------------------------------------------------------------
 #P Geom=AllCheck Guess=TCheck SCRF=Check CCSD(T,E4T,FrzG4)/GTBas1
 -----------------------------------------------------------------

 Structure from the checkpoint file:  "G4.Frag_873.chk"
 --------
 Frag_873
 --------
 Charge =  0 Multiplicity = 1

 SCF Done:  E(RHF) =  -260.651572940     A.U. after   15 cycles
 E2 =    -0.7442677458D+00 EUMP2 =    -0.26139584068549D+03
 CCSD(T)
 CCSD(T)= -0.26143738366D+03
 408408\CCSD(T)=-261.4373837\RMSD=4.346e-09\PG=C01 [X(C2H2N2O1)]\\@
 Normal termination of Gaussian 09 at Wed Aug 24 07:37:04 2022.

 ---------------------------------------------------------
 #P Geom=AllCheck Guess=TCheck SCRF=Check MP4=FrzG4/GTBas2
 ---------------------------------------------------------

 Structure from the checkpoint file:  "G4.Frag_873.chk"
 --------
 Frag_873
 --------
 Charge =  0 Multiplicity = 1

 SCF Done:  E(RHF) =  -260.659958423     A.U. after   13 cycles
 E2 =    -0.7540067306D+00 EUMP2 =    -0.26141396515355D+03
 Normal termination of Gaussian 09 at Wed Aug 24 07:37:37 2022.

 ---------------------------------------------------------
 #P Geom=AllCheck Guess=TCheck SCRF=Check MP4=FrzG4/GTBas3
 ---------------------------------------------------------

 Structure from the checkpoint file:  "G4.Frag_873.chk"
 --------
 Frag_873
 --------
 Charge =  0 Multiplicity = 1

 SCF Done:  E(RHF) =  -260.679951252     A.U. after   14 cycles
 E2 =    -0.8818743532D+00 EUMP2 =    -0.26156182560481D+03
 Normal termination of Gaussian 09 at Wed Aug 24 07:55:22 2022.

 -----------------------------------------------------------
 #P Geom=AllCheck Guess=TCheck SCRF=Check MP2=Full/GTLargeXP
 -----------------------------------------------------------

 Structure from the checkpoint file:  "G4.Frag_873.chk"
 --------
 Frag_873
 --------
 Charge =  0 Multiplicity = 1

 SCF Done:  E(RHF) =  -260.749494910     A.U. after   12 cycles
 E2 =    -0.1158121258D+01 EUMP2 =    -0.26190761616874D+03
 Normal termination of Gaussian 09 at Wed Aug 24 07:56:36 2022.
 SCF Done:  E(RHF) =  -260.769252895     A.U. after    9 cycles
 Normal termination of Gaussian 09 at Wed Aug 24 07:58:24 2022.

                         Standard orientation:
 ---------------------------------------------------------------------
 Center     Atomic      Atomic             Coordinates (Angstroms)
 Number     Number       Type             X           Y           Z
 ---------------------------------------------------------------------
      1          7           0       -2.161762   -0.083534   -0.000032
      2          6           0       -1.009422   -0.001795    0.000022
      3          6           0        0.464332    0.150692    0.000106
      4          7           0        1.111888   -1.040173   -0.000022
      5          8           0        0.985460    1.240748   -0.000037
      6          1           0        2.119402   -1.037720   -0.000092
      7          1           0        0.616581   -1.915702    0.000001
 ---------------------------------------------------------------------

 SCF Done:  E(RHF) =  -260.773152608     A.U. after    7 cycles

 The electronic state is 1-A.
 Alpha  occ. eigenvalues --  -20.57274 -15.63145 -15.61368 -11.42710 -11.30439
 Alpha  occ. eigenvalues --   -1.43924  -1.26895  -1.24669  -0.94955  -0.80647
 Alpha  occ. eigenvalues --   -0.73962  -0.66975  -0.63489  -0.59927  -0.51633
 Alpha  occ. eigenvalues --   -0.49968  -0.48632  -0.46042
 Alpha virt. eigenvalues --    0.02553   0.04536   0.05648   0.05684   0.07377
 Alpha virt. eigenvalues --    0.07535   0.07749   0.07912   0.09355   0.10762
 Alpha virt. eigenvalues --    0.11667   0.13150   0.14736   0.15503   0.15942

 Mulliken charges:
               1
     1  N   -0.395723
     2  C    0.365592
     3  C    0.530698
     4  N   -0.686052
     5  O   -0.541794
     6  H    0.375522
     7  H    0.351756
 Sum of Mulliken charges =  -0.00000

 Dipole moment (field-independent basis, Debye):
    X=              2.7238    Y=             -3.8600    Z=              0.0003  Tot=              4.7243
 Quadrupole moment (field-independent basis, Debye-Ang):
   XX=            -32.7252   YY=            -27.6029   ZZ=            -28.6320
   XY=             -5.1791   XZ=             -0.0003   YZ=              0.0002

 Normal termination of Gaussian 09 at Wed Aug 24 08:42:29 2022.
