 Gaussian 09, Revision E.01,
 Gaussian 09:  ES64L-G09RevE.01 30-Nov-2015

 -----
 #P G4
 -----

 ---------
 Frag_1115
 ---------
 Symbolic Z-matrix:
 Charge =  0 Multiplicity = 1

 SCF Done:  E(RB3LYP) =  -205.297371193     A.U. after   13 cycles
 SCF Done:  E(RB3LYP) =  -205.305296847     A.U. after   14 cycles
 SCF Done:  E(RB3LYP) =  -205.307822933     A.U. after   13 cycles
 SCF Done:  E(RB3LYP) =  -205.309924237     A.U. after   15 cycles
 SCF Done:  E(RB3LYP) =  -205.310772018     A.U. after   13 cycles
 SCF Done:  E(RB3LYP) =  -205.311231535     A.U. after   13 cycles
 SCF Done:  E(RB3LYP) =  -205.311276024     A.U. after   13 cycles
 SCF Done:  E(RB3LYP) =  -205.311392493     A.U. after   11 cycles
 SCF Done:  E(RB3LYP) =  -205.311396983     A.U. after   10 cycles
 SCF Done:  E(RB3LYP) =  -205.311399212     A.U. after    8 cycles
 SCF Done:  E(RB3LYP) =  -205.311399495     A.U. after    7 cycles
 SCF Done:  E(RB3LYP) =  -205.311399560     A.U. after    8 cycles
 SCF Done:  E(RB3LYP) =  -205.311399586     A.U. after    8 cycles
 Optimization completed.
    -- Stationary point found.
 Normal termination of Gaussian 09 at Fri Aug 26 10:28:20 2022.

 ----------------------------------------------------------
 #P Geom=AllCheck Guess=TCheck SCRF=Check B3LYP/GTBas3 Freq
 ----------------------------------------------------------

 Structure from the checkpoint file:  "G4.Frag_1115.chk"
 ---------
 Frag_1115
 ---------
 Charge =  0 Multiplicity = 1

 SCF Done:  E(RB3LYP) =  -205.311399586     A.U. after    1 cycles

  Exact polarizability:  43.523  -0.073  28.081   4.036   1.513  29.555
 Approx polarizability:  61.356   0.334  41.371   9.580   3.529  46.453

                      1                      2                      3
                      A                      A                      A
 Frequencies --    105.4034               208.2669               428.2726
 Red. masses --      3.5351                 1.0947                 3.3354
 Frc consts  --      0.0231                 0.0280                 0.3604
 IR Inten    --      1.2624                36.9860                 9.2958

                      4                      5                      6
                      A                      A                      A
 Frequencies --    577.0446               738.2826               831.2032
 Red. masses --      2.9632                 1.5045                 1.6867
 Frc consts  --      0.5813                 0.4831                 0.6866
 IR Inten    --     12.9015               139.9381                52.7912

                      7                      8                      9
                      A                      A                      A
 Frequencies --    986.0895              1048.3247              1123.8488
 Red. masses --      1.3286                 2.0879                 2.8094
 Frc consts  --      0.7611                 1.3519                 2.0907
 IR Inten    --     27.1337                22.8270                15.1124

                     10                     11                     12
                      A                      A                      A
 Frequencies --   1219.0626              1332.5905              1404.4179
 Red. masses --      1.2837                 1.1957                 1.3059
 Frc consts  --      1.1240                 1.2511                 1.5176
 IR Inten    --      1.6233                13.8424                14.4862

                     13                     14                     15
                      A                      A                      A
 Frequencies --   1469.7660              1495.2163              1664.9919
 Red. masses --      1.1229                 1.2249                 1.1259
 Frc consts  --      1.4292                 1.6134                 1.8390
 IR Inten    --     14.7921                86.6030                15.5375

                     16                     17                     18
                      A                      A                      A
 Frequencies --   1682.0538              2849.0723              2977.8184
 Red. masses --      8.9175                 1.0710                 1.0683
 Frc consts  --     14.8652                 5.1223                 5.5816
 IR Inten    --     24.5964                90.5492               101.6520

                     19                     20                     21
                      A                      A                      A
 Frequencies --   3062.4873              3529.6916              3616.7100
 Red. masses --      1.0873                 1.0492                 1.0940
 Frc consts  --      6.0084                 7.7016                 8.4313
 IR Inten    --     13.2017                 1.4748                 5.3138

 - Thermochemistry -
 -------------------
 Temperature   298.150 Kelvin.  Pressure   1.00000 Atm.
 Atom     1 has atomic number  7 and mass  14.00307

 Molecular mass:    59.04835 amu.
 Principal axes and moments of inertia in atomic units:
                           1         2         3
     Eigenvalues --    59.92128 386.78964 397.73298
           X            0.99996   0.00757   0.00358
           Y           -0.00716   0.99446  -0.10484
           Z           -0.00436   0.10481   0.99448
 This molecule is an asymmetric top.
 Rotational symmetry number  1.
 Rotational temperatures (Kelvin)      1.44546     0.22393     0.21777
 Rotational constants (GHZ):          30.11854     4.66595     4.53757
 Zero-point vibrational energy     193499.6 (Joules/Mol)
                                   46.24753 (Kcal/Mol)
 Warning -- explicit consideration of   4 degrees of freedom as
           vibrations may cause significant error
 Vibrational temperatures:    151.65   299.65   616.19   830.24  1062.22
          (Kelvin)           1195.91  1418.76  1508.30  1616.97  1753.96
                             1917.30  2020.64  2114.66  2151.28  2395.55
                             2420.10  4099.17  4284.41  4406.23  5078.43
                             5203.63

 Zero-point correction=                           0.073700 (Hartree/Particle)
 Thermal correction to Energy=                    0.078569
 Thermal correction to Enthalpy=                  0.079513
 Thermal correction to Gibbs Free Energy=         0.046517
 Sum of electronic and zero-point Energies=           -205.237699
 Sum of electronic and thermal Energies=              -205.232831
 Sum of electronic and thermal Enthalpies=            -205.231886
 Sum of electronic and thermal Free Energies=         -205.264883

                     E (Thermal)             CV                S
                      KCal/Mol        Cal/Mol-Kelvin    Cal/Mol-Kelvin
 Total                   49.303             15.234             69.447
 Electronic               0.000              0.000              0.000
 Translational            0.889              2.981             38.148
 Rotational               0.889              2.981             23.737
 Vibrational             47.525              9.272              7.562
 Vibration     1          0.605              1.945              3.352
 Vibration     2          0.642              1.828              2.059
 Vibration     3          0.790              1.409              0.864
 Vibration     4          0.934              1.081              0.491

 Optimization completed.
    -- Stationary point found.
 Normal termination of Gaussian 09 at Fri Aug 26 10:28:34 2022.

 -----------------------------------------------------------------
 #P Geom=AllCheck Guess=TCheck SCRF=Check CCSD(T,E4T,FrzG4)/GTBas1
 -----------------------------------------------------------------

 Structure from the checkpoint file:  "G4.Frag_1115.chk"
 ---------
 Frag_1115
 ---------
 Charge =  0 Multiplicity = 1

 SCF Done:  E(RHF) =  -204.039526714     A.U. after   14 cycles
 E2 =    -0.6163734875D+00 EUMP2 =    -0.20465590020143D+03
 CCSD(T)
 CCSD(T)= -0.20471101938D+03
 5949\CCSD=-204.6900641\CCSD(T)=-204.7110194\RMSD=7.571e-09\PG=C01 [X(C
 Normal termination of Gaussian 09 at Fri Aug 26 10:28:58 2022.

 ---------------------------------------------------------
 #P Geom=AllCheck Guess=TCheck SCRF=Check MP4=FrzG4/GTBas2
 ---------------------------------------------------------

 Structure from the checkpoint file:  "G4.Frag_1115.chk"
 ---------
 Frag_1115
 ---------
 Charge =  0 Multiplicity = 1

 SCF Done:  E(RHF) =  -204.047618951     A.U. after   14 cycles
 E2 =    -0.6257154677D+00 EUMP2 =    -0.20467333441873D+03
 Normal termination of Gaussian 09 at Fri Aug 26 10:29:05 2022.

 ---------------------------------------------------------
 #P Geom=AllCheck Guess=TCheck SCRF=Check MP4=FrzG4/GTBas3
 ---------------------------------------------------------

 Structure from the checkpoint file:  "G4.Frag_1115.chk"
 ---------
 Frag_1115
 ---------
 Charge =  0 Multiplicity = 1

 SCF Done:  E(RHF) =  -204.069137749     A.U. after   12 cycles
 E2 =    -0.7435054961D+00 EUMP2 =    -0.20481264324543D+03
 Normal termination of Gaussian 09 at Fri Aug 26 10:29:32 2022.

 -----------------------------------------------------------
 #P Geom=AllCheck Guess=TCheck SCRF=Check MP2=Full/GTLargeXP
 -----------------------------------------------------------

 Structure from the checkpoint file:  "G4.Frag_1115.chk"
 ---------
 Frag_1115
 ---------
 Charge =  0 Multiplicity = 1

 SCF Done:  E(RHF) =  -204.124066117     A.U. after   13 cycles
 E2 =    -0.9686115100D+00 EUMP2 =    -0.20509267762729D+03
 Normal termination of Gaussian 09 at Fri Aug 26 10:29:51 2022.
 SCF Done:  E(RHF) =  -204.140007382     A.U. after    9 cycles
 Normal termination of Gaussian 09 at Fri Aug 26 10:30:15 2022.

                         Standard orientation:
 ---------------------------------------------------------------------
 Center     Atomic      Atomic             Coordinates (Angstroms)
 Number     Number       Type             X           Y           Z
 ---------------------------------------------------------------------
      1          7           0        1.759237   -0.142314    0.188453
      2          7           0        0.721606   -0.283061   -0.461067
      3          6           0       -0.461296    0.517994   -0.060835
      4          7           0       -1.613735   -0.339232    0.059841
      5          1           0        1.631967    0.550488    0.972626
      6          1           0       -0.634063    1.222286   -0.883303
      7          1           0       -0.194085    1.102819    0.846931
      8          1           0       -2.474692    0.183760   -0.036127
      9          1           0       -1.631110   -0.815061    0.954293
 ---------------------------------------------------------------------

 SCF Done:  E(RHF) =  -204.143399534     A.U. after    8 cycles

 The electronic state is 1-A.
 Alpha  occ. eigenvalues --  -15.62853 -15.62167 -15.56240 -11.30340  -1.36429
 Alpha  occ. eigenvalues --   -1.20381  -0.98064  -0.84668  -0.71561  -0.67258
 Alpha  occ. eigenvalues --   -0.65585  -0.59581  -0.53333  -0.49122  -0.42802
 Alpha  occ. eigenvalues --   -0.38832
 Alpha virt. eigenvalues --    0.03591   0.04694   0.04855   0.06216   0.08686
 Alpha virt. eigenvalues --    0.08800   0.10195   0.11023   0.11149   0.11871
 Alpha virt. eigenvalues --    0.13574   0.14777   0.15690   0.16966   0.18344

 Mulliken charges:
               1
     1  N   -0.313431
     2  N   -0.062463
     3  C   -0.128785
     4  N   -0.611140
     5  H    0.235213
     6  H    0.183220
     7  H    0.116250
     8  H    0.295303
     9  H    0.285832
 Sum of Mulliken charges =   0.00000

 Dipole moment (field-independent basis, Debye):
    X=             -2.3786    Y=              2.6929    Z=              2.3521  Tot=              4.2944
 Quadrupole moment (field-independent basis, Debye-Ang):
   XX=            -26.1318   YY=            -25.4625   ZZ=            -24.2224
   XY=              0.7331   XZ=              0.2919   YZ=             -2.2079

 Normal termination of Gaussian 09 at Fri Aug 26 10:32:37 2022.
