 Gaussian 09, Revision E.01,
 Gaussian 09:  ES64L-G09RevE.01 30-Nov-2015

 -----
 #P G4
 -----

 --------
 Frag_856
 --------
 Symbolic Z-matrix:
 Charge =  0 Multiplicity = 1

 SCF Done:  E(RB3LYP) =  -344.392950155     A.U. after   12 cycles
 SCF Done:  E(RB3LYP) =  -344.400943632     A.U. after   11 cycles
 SCF Done:  E(RB3LYP) =  -344.401429651     A.U. after   10 cycles
 SCF Done:  E(RB3LYP) =  -344.401458697     A.U. after   10 cycles
 SCF Done:  E(RB3LYP) =  -344.401559079     A.U. after   10 cycles
 SCF Done:  E(RB3LYP) =  -344.401582324     A.U. after    9 cycles
 SCF Done:  E(RB3LYP) =  -344.401584385     A.U. after    7 cycles
 SCF Done:  E(RB3LYP) =  -344.401584695     A.U. after    6 cycles
 SCF Done:  E(RB3LYP) =  -344.401584877     A.U. after    6 cycles
 SCF Done:  E(RB3LYP) =  -344.401584931     A.U. after    6 cycles
 SCF Done:  E(RB3LYP) =  -344.401585055     A.U. after    6 cycles
 SCF Done:  E(RB3LYP) =  -344.401585134     A.U. after    6 cycles
 Optimization completed.
    -- Stationary point found.
 Normal termination of Gaussian 09 at Fri Aug 26 13:31:24 2022.

 ----------------------------------------------------------
 #P Geom=AllCheck Guess=TCheck SCRF=Check B3LYP/GTBas3 Freq
 ----------------------------------------------------------

 Structure from the checkpoint file:  "G4.Frag_856.chk"
 --------
 Frag_856
 --------
 Charge =  0 Multiplicity = 1

 SCF Done:  E(RB3LYP) =  -344.401585134     A.U. after    1 cycles

  Exact polarizability:  68.643   0.614  62.371  -1.124   0.461  58.936
 Approx polarizability:  91.348   0.803  88.660  -1.584   1.318  84.398

                      1                      2                      3
                      A                      A                      A
 Frequencies --    109.1271               201.9111               224.6773
 Red. masses --      3.5975                 1.0675                 1.0458
 Frc consts  --      0.0252                 0.0256                 0.0311
 IR Inten    --      0.8172                 1.2385                62.9199

                      4                      5                      6
                      A                      A                      A
 Frequencies --    251.3748               265.0618               287.4754
 Red. masses --      1.8378                 1.7140                 1.8310
 Frc consts  --      0.0684                 0.0709                 0.0892
 IR Inten    --      8.0581                11.8248                 6.1085

                      7                      8                      9
                      A                      A                      A
 Frequencies --    299.2866               325.0656               354.5368
 Red. masses --      1.0593                 1.1978                 2.5637
 Frc consts  --      0.0559                 0.0746                 0.1899
 IR Inten    --     29.3898                58.0893                 1.9607

                     10                     11                     12
                      A                      A                      A
 Frequencies --    374.1215               424.1898               483.3796
 Red. masses --      3.2517                 2.6875                 2.2469
 Frc consts  --      0.2682                 0.2849                 0.3093
 IR Inten    --      2.9832                 0.2333                31.8205

                     13                     14                     15
                      A                      A                      A
 Frequencies --    510.5406               589.5879               736.7712
 Red. masses --      3.4191                 2.8908                 2.9635
 Frc consts  --      0.5251                 0.5921                 0.9478
 IR Inten    --     13.2835                25.8856                 3.0427

                     16                     17                     18
                      A                      A                      A
 Frequencies --    836.4388               871.1804               923.4340
 Red. masses --      1.8007                 2.0700                 1.3816
 Frc consts  --      0.7423                 0.9256                 0.6941
 IR Inten    --    106.1598                47.1958                69.5050

                     19                     20                     21
                      A                      A                      A
 Frequencies --    933.7658               972.7677               995.8834
 Red. masses --      1.6050                 1.7259                 2.1335
 Frc consts  --      0.8245                 0.9623                 1.2467
 IR Inten    --     24.3683                 7.3074               106.2412

                     22                     23                     24
                      A                      A                      A
 Frequencies --   1035.4722              1085.0826              1095.0893
 Red. masses --      2.0155                 1.4806                 1.6429
 Frc consts  --      1.2733                 1.0271                 1.1608
 IR Inten    --     73.7289                10.7757                16.4646

                     25                     26                     27
                      A                      A                      A
 Frequencies --   1167.1147              1203.6523              1262.7139
 Red. masses --      1.4347                 1.8239                 2.4581
 Frc consts  --      1.1514                 1.5569                 2.3092
 IR Inten    --     35.7519                32.2147                 5.6347

                     28                     29                     30
                      A                      A                      A
 Frequencies --   1288.0784              1348.4263              1386.3958
 Red. masses --      1.7475                 1.6612                 1.1882
 Frc consts  --      1.7082                 1.7797                 1.3456
 IR Inten    --     14.0080                 5.7289                 4.7890

                     31                     32                     33
                      A                      A                      A
 Frequencies --   1393.5418              1409.4256              1449.1292
 Red. masses --      1.2432                 1.3122                 1.5532
 Frc consts  --      1.4224                 1.5358                 1.9217
 IR Inten    --      6.1258                 8.4984                 7.7471

                     34                     35                     36
                      A                      A                      A
 Frequencies --   1481.1636              1486.3077              1500.4411
 Red. masses --      1.0518                 1.0505                 1.0581
 Frc consts  --      1.3595                 1.3674                 1.4035
 IR Inten    --      0.9289                 0.6410                 1.7822

                     37                     38                     39
                      A                      A                      A
 Frequencies --   1516.3485              1640.7584              1662.8957
 Red. masses --      1.0931                 1.0957                 1.0977
 Frc consts  --      1.4808                 1.7380                 1.7884
 IR Inten    --      8.2385                43.9408                21.3465

                     40                     41                     42
                      A                      A                      A
 Frequencies --   3026.8172              3027.8466              3036.7416
 Red. masses --      1.0783                 1.0409                 1.0410
 Frc consts  --      5.8205                 5.6224                 5.6559
 IR Inten    --     50.0196                 7.4591                25.3077

                     43                     44                     45
                      A                      A                      A
 Frequencies --   3088.7724              3101.1703              3119.9941
 Red. masses --      1.1000                 1.0982                 1.1005
 Frc consts  --      6.1832                 6.2228                 6.3120
 IR Inten    --     26.8896                34.3870                18.9293

                     46                     47                     48
                      A                      A                      A
 Frequencies --   3138.5968              3484.4467              3499.3803
 Red. masses --      1.1002                 1.0490                 1.0484
 Frc consts  --      6.3857                 7.5038                 7.5642
 IR Inten    --     18.0121                 2.7502                 0.1881

                     49                     50                     51
                      A                      A                      A
 Frequencies --   3568.9996              3578.8708              3826.2835
 Red. masses --      1.0917                 1.0927                 1.0665
 Frc consts  --      8.1928                 8.2462                 9.1997
 IR Inten    --      0.9333                 1.1530                17.7355

 - Thermochemistry -
 -------------------
 Temperature   298.150 Kelvin.  Pressure   1.00000 Atm.
 Atom     1 has atomic number  6 and mass  12.00000

 Molecular mass:   104.09496 amu.
 Principal axes and moments of inertia in atomic units:
                           1         2         3
     Eigenvalues --   570.55232 781.84124 936.15010
           X            0.99984  -0.00019  -0.01781
           Y           -0.00015   0.99982  -0.01907
           Z            0.01781   0.01907   0.99966
 This molecule is an asymmetric top.
 Rotational symmetry number  1.
 Warning -- assumption of classical behavior for rotation
           may cause significant error
 Rotational temperatures (Kelvin)      0.15181     0.11078     0.09252
 Rotational constants (GHZ):           3.16315     2.30832     1.92783
 Zero-point vibrational energy     447885.1 (Joules/Mol)
                                  107.04710 (Kcal/Mol)
 Warning -- explicit consideration of  14 degrees of freedom as
           vibrations may cause significant error
 Vibrational temperatures:    157.01   290.50   323.26   361.67   381.36
          (Kelvin)            413.61   430.61   467.70   510.10   538.28
                              610.31   695.47   734.55   848.28  1060.05
                             1203.45  1253.43  1328.61  1343.48  1399.59
                             1432.85  1489.81  1561.19  1575.59  1679.22
                             1731.79  1816.76  1853.26  1940.08  1994.71
                             2004.99  2027.85  2084.97  2131.06  2138.46
                             2158.80  2181.68  2360.68  2392.53  4354.91
                             4356.39  4369.19  4444.05  4461.89  4488.97
                             4515.74  5013.34  5034.82  5134.99  5149.19
                             5505.16

 Zero-point correction=                           0.170590 (Hartree/Particle)
 Thermal correction to Energy=                    0.179626
 Thermal correction to Enthalpy=                  0.180570
 Thermal correction to Gibbs Free Energy=         0.138436
 Sum of electronic and zero-point Energies=           -344.230995
 Sum of electronic and thermal Energies=              -344.221960
 Sum of electronic and thermal Enthalpies=            -344.221015
 Sum of electronic and thermal Free Energies=         -344.263149

                     E (Thermal)             CV                S
                      KCal/Mol        Cal/Mol-Kelvin    Cal/Mol-Kelvin
 Total                  112.717             34.321             88.678
 Electronic               0.000              0.000              0.000
 Translational            0.889              2.981             39.838
 Rotational               0.889              2.981             27.526
 Vibrational            110.939             28.359             21.314
 Vibration     1          0.606              1.942              3.284
 Vibration     2          0.639              1.837              2.116
 Vibration     3          0.649              1.803              1.921
 Vibration     4          0.663              1.760              1.721
 Vibration     5          0.671              1.737              1.628
 Vibration     6          0.685              1.697              1.489
 Vibration     7          0.692              1.675              1.421
 Vibration     8          0.709              1.625              1.285
 Vibration     9          0.730              1.566              1.146
 Vibration    10          0.745              1.525              1.063
 Vibration    11          0.786              1.418              0.878
 Vibration    12          0.840              1.287              0.701
 Vibration    13          0.866              1.227              0.632
 Vibration    14          0.947              1.054              0.468

 Optimization completed.
    -- Stationary point found.
 Normal termination of Gaussian 09 at Fri Aug 26 13:32:25 2022.

 -----------------------------------------------------------------
 #P Geom=AllCheck Guess=TCheck SCRF=Check CCSD(T,E4T,FrzG4)/GTBas1
 -----------------------------------------------------------------

 Structure from the checkpoint file:  "G4.Frag_856.chk"
 --------
 Frag_856
 --------
 Charge =  0 Multiplicity = 1

 SCF Done:  E(RHF) =  -342.199095861     A.U. after   12 cycles
 E2 =    -0.1040024262D+01 EUMP2 =    -0.34323912012206D+03
 CCSD(T)
 CCSD(T)= -0.34333619598D+03
 -343.3351492\MP4SDQ=-343.3047567\CCSD=-343.3057407\CCSD(T)=-343.336196
 Normal termination of Gaussian 09 at Fri Aug 26 13:37:16 2022.

 ---------------------------------------------------------
 #P Geom=AllCheck Guess=TCheck SCRF=Check MP4=FrzG4/GTBas2
 ---------------------------------------------------------

 Structure from the checkpoint file:  "G4.Frag_856.chk"
 --------
 Frag_856
 --------
 Charge =  0 Multiplicity = 1

 SCF Done:  E(RHF) =  -342.211190221     A.U. after   12 cycles
 E2 =    -0.1058534458D+01 EUMP2 =    -0.34326972467979D+03
 Normal termination of Gaussian 09 at Fri Aug 26 13:38:50 2022.

 ---------------------------------------------------------
 #P Geom=AllCheck Guess=TCheck SCRF=Check MP4=FrzG4/GTBas3
 ---------------------------------------------------------

 Structure from the checkpoint file:  "G4.Frag_856.chk"
 --------
 Frag_856
 --------
 Charge =  0 Multiplicity = 1

 SCF Done:  E(RHF) =  -342.250088120     A.U. after   10 cycles
 E2 =    -0.1290892536D+01 EUMP2 =    -0.34354098065648D+03
 Normal termination of Gaussian 09 at Fri Aug 26 13:53:36 2022.

 -----------------------------------------------------------
 #P Geom=AllCheck Guess=TCheck SCRF=Check MP2=Full/GTLargeXP
 -----------------------------------------------------------

 Structure from the checkpoint file:  "G4.Frag_856.chk"
 --------
 Frag_856
 --------
 Charge =  0 Multiplicity = 1

 SCF Done:  E(RHF) =  -342.338241013     A.U. after   12 cycles
 E2 =    -0.1685926099D+01 EUMP2 =    -0.34402416711188D+03
 Normal termination of Gaussian 09 at Fri Aug 26 13:58:37 2022.
 SCF Done:  E(RHF) =  -342.365226112     A.U. after    8 cycles
 Normal termination of Gaussian 09 at Fri Aug 26 14:03:06 2022.

                         Standard orientation:
 ---------------------------------------------------------------------
 Center     Atomic      Atomic             Coordinates (Angstroms)
 Number     Number       Type             X           Y           Z
 ---------------------------------------------------------------------
      1          6           0       -1.363519    1.214299   -0.587120
      2          6           0       -0.629182   -0.006571   -0.020437
      3          6           0       -0.749394   -0.037747    1.517772
      4          7           0       -1.194049   -1.208831   -0.659521
      5          6           0        0.856474    0.031932   -0.449384
      6          7           0        1.534224    1.218570    0.024851
      7          8           0        1.436960   -1.192883    0.023741
      8          1           0       -2.425093    1.172654   -0.317635
      9          1           0       -0.941010    2.142299   -0.198293
     10          1           0       -1.296865    1.226433   -1.678927
     11          1           0       -0.374458    0.882240    1.980822
     12          1           0       -0.196785   -0.884957    1.932107
     13          1           0       -1.801654   -0.137320    1.805084
     14          1           0       -0.682429   -2.021708   -0.328784
     15          1           0       -2.159243   -1.324640   -0.362466
     16          1           0        0.880355    0.050217   -1.546660
     17          1           0        2.440773    1.316655   -0.420401
     18          1           0        1.700405    1.143480    1.024115
     19          1           0        2.292824   -1.301940   -0.401190
 ---------------------------------------------------------------------

 SCF Done:  E(RHF) =  -342.371184944     A.U. after    8 cycles

 The electronic state is 1-A.
 Alpha  occ. eigenvalues --  -20.55705 -15.54637 -15.52599 -11.30495 -11.25618
 Alpha  occ. eigenvalues --  -11.20709 -11.20099  -1.36989  -1.19045  -1.16715
 Alpha  occ. eigenvalues --   -1.00979  -0.92841  -0.89459  -0.74649  -0.71690
 Alpha  occ. eigenvalues --   -0.67229  -0.65454  -0.61527  -0.59152  -0.58568
 Alpha  occ. eigenvalues --   -0.55524  -0.54812  -0.52768  -0.50261  -0.48238
 Alpha  occ. eigenvalues --   -0.46545  -0.45940  -0.41229  -0.38367
 Alpha virt. eigenvalues --    0.03070   0.03856   0.04584   0.05198   0.06665
 Alpha virt. eigenvalues --    0.06921   0.06948   0.07442   0.07893   0.09754
 Alpha virt. eigenvalues --    0.10216   0.10731   0.11022   0.11955   0.12269

 Mulliken charges:
               1
     1  C   -0.585870
     2  C    0.465643
     3  C   -0.605120
     4  N   -0.804711
     5  C    0.114758
     6  N   -0.721195
     7  O   -0.603462
     8  H    0.153575
     9  H    0.194327
    10  H    0.167285
    11  H    0.162035
    12  H    0.194483
    13  H    0.162400
    14  H    0.319965
    15  H    0.284169
    16  H    0.164346
    17  H    0.277388
    18  H    0.297736
    19  H    0.362250
 Sum of Mulliken charges =  -0.00000

 Dipole moment (field-independent basis, Debye):
    X=              1.6031    Y=              0.0525    Z=              0.5651  Tot=              1.7006
 Quadrupole moment (field-independent basis, Debye-Ang):
   XX=            -36.5833   YY=            -48.4389   ZZ=            -46.7620
   XY=              0.5463   XZ=             -3.8727   YZ=             -0.0363

 Normal termination of Gaussian 09 at Fri Aug 26 14:17:36 2022.
