 Gaussian 09, Revision E.01,
 Gaussian 09:  ES64L-G09RevE.01 30-Nov-2015

 -----
 #P G4
 -----

 ---------
 Frag_1160
 ---------
 Symbolic Z-matrix:
 Charge =  0 Multiplicity = 1

 SCF Done:  E(RB3LYP) =  -323.601101386     A.U. after   14 cycles
 SCF Done:  E(RB3LYP) =  -323.608081220     A.U. after   12 cycles
 SCF Done:  E(RB3LYP) =  -323.608991375     A.U. after   11 cycles
 SCF Done:  E(RB3LYP) =  -323.609702974     A.U. after   12 cycles
 SCF Done:  E(RB3LYP) =  -323.569546901     A.U. after   13 cycles
 SCF Done:  E(RB3LYP) =  -323.609757884     A.U. after    9 cycles
 SCF Done:  E(RB3LYP) =  -323.614613484     A.U. after   13 cycles
 SCF Done:  E(RB3LYP) =  -323.604935505     A.U. after   12 cycles
 SCF Done:  E(RB3LYP) =  -323.616554199     A.U. after   10 cycles
 SCF Done:  E(RB3LYP) =  -323.584628336     A.U. after   14 cycles
 SCF Done:  E(RB3LYP) =  -323.624268473     A.U. after   10 cycles
 SCF Done:  E(RB3LYP) =  -323.624273454     A.U. after    8 cycles
 SCF Done:  E(RB3LYP) =  -323.624273815     A.U. after    7 cycles
 Optimization completed.
    -- Stationary point found.
 Normal termination of Gaussian 09 at Fri Aug 19 23:21:56 2022.

 ----------------------------------------------------------
 #P Geom=AllCheck Guess=TCheck SCRF=Check B3LYP/GTBas3 Freq
 ----------------------------------------------------------

 Structure from the checkpoint file:  "G4.Frag_1160.chk"
 ---------
 Frag_1160
 ---------
 Charge =  0 Multiplicity = 1

 SCF Done:  E(RB3LYP) =  -323.624273815     A.U. after    1 cycles

  Exact polarizability:  53.598   2.574  62.024  -0.667   2.042  36.334
 Approx polarizability:  72.578   7.569  97.560   1.853   5.728  58.058

                      1                      2                      3
                      A                      A                      A
 Frequencies --     96.4729               166.7102               307.9625
 Red. masses --      3.7100                 1.0848                 3.3754
 Frc consts  --      0.0203                 0.0178                 0.1886
 IR Inten    --      2.1708                 0.3399                 0.7306

                      4                      5                      6
                      A                      A                      A
 Frequencies --    337.8348               385.1393               419.1889
 Red. masses --      3.1218                 1.1105                 2.6887
 Frc consts  --      0.2099                 0.0970                 0.2784
 IR Inten    --     34.8037                39.3010                 5.9574

                      7                      8                      9
                      A                      A                      A
 Frequencies --    479.8188               540.4887               573.0657
 Red. masses --      1.5406                 3.1645                 2.6074
 Frc consts  --      0.2090                 0.5447                 0.5045
 IR Inten    --     28.7651                 8.6014               122.5051

                     10                     11                     12
                      A                      A                      A
 Frequencies --    587.0179               733.1470               788.6006
 Red. masses --      2.0306                 4.5199                 1.3804
 Frc consts  --      0.4123                 1.4314                 0.5058
 IR Inten    --      3.0071                17.2995                24.8660

                     13                     14                     15
                      A                      A                      A
 Frequencies --    888.3099               930.1878               976.6070
 Red. masses --      1.3597                 1.9674                 4.0335
 Frc consts  --      0.6322                 1.0030                 2.2666
 IR Inten    --     40.4798                 7.4422                59.8763

                     16                     17                     18
                      A                      A                      A
 Frequencies --   1034.5815              1069.8416              1086.1693
 Red. masses --      1.8857                 1.8084                 2.6827
 Frc consts  --      1.1892                 1.2195                 1.8647
 IR Inten    --      7.5606                 7.7711                 6.7250

                     19                     20                     21
                      A                      A                      A
 Frequencies --   1306.2126              1382.0785              1408.3994
 Red. masses --      3.5515                 1.1070                 1.2119
 Frc consts  --      3.5702                 1.2458                 1.4163
 IR Inten    --     15.5807                32.5608                 3.7757

                     22                     23                     24
                      A                      A                      A
 Frequencies --   1442.3168              1471.6188              1477.0123
 Red. masses --      1.2259                 1.0953                 1.1658
 Frc consts  --      1.5026                 1.3975                 1.4984
 IR Inten    --      2.2182                 7.0071                40.8510

                     25                     26                     27
                      A                      A                      A
 Frequencies --   1489.8414              1703.9155              3049.8209
 Red. masses --      1.0596                 5.4238                 1.0360
 Frc consts  --      1.3857                 9.2779                 5.6773
 IR Inten    --      9.7241                40.8498                12.0515

                     28                     29                     30
                      A                      A                      A
 Frequencies --   3107.7889              3139.3762              3180.4143
 Red. masses --      1.0994                 1.1021                 1.0610
 Frc consts  --      6.2559                 6.3995                 6.3231
 IR Inten    --      9.8952                12.4092                 0.7718

                     31                     32                     33
                      A                      A                      A
 Frequencies --   3267.8697              3553.1889              3602.3427
 Red. masses --      1.1146                 1.0660                 1.0674
 Frc consts  --      7.0128                 7.9298                 8.1609
 IR Inten    --      3.5005                11.1868                 4.7358

 - Thermochemistry -
 -------------------
 Temperature   298.150 Kelvin.  Pressure   1.00000 Atm.
 Atom     1 has atomic number  6 and mass  12.00000

 Molecular mass:    89.04768 amu.
 Principal axes and moments of inertia in atomic units:
                           1         2         3
     Eigenvalues --   364.75556 504.88106 813.54793
           X            0.99818  -0.05842  -0.01472
           Y            0.05857   0.99824   0.00957
           Z            0.01413  -0.01041   0.99985
 This molecule is an asymmetric top.
 Rotational symmetry number  1.
 Rotational temperatures (Kelvin)      0.23746     0.17155     0.10646
 Rotational constants (GHZ):           4.94781     3.57459     2.21836
 Zero-point vibrational energy     275041.5 (Joules/Mol)
                                   65.73649 (Kcal/Mol)
 Warning -- explicit consideration of  10 degrees of freedom as
           vibrations may cause significant error
 Vibrational temperatures:    138.80   239.86   443.09   486.07   554.13
          (Kelvin)            603.12   690.35   777.64   824.51   844.59
                             1054.83  1134.62  1278.08  1338.33  1405.12
                             1488.53  1539.26  1562.75  1879.35  1988.50
                             2026.37  2075.17  2117.33  2125.09  2143.55
                             2451.55  4388.01  4471.41  4516.86  4575.90
                             4701.73  5112.24  5182.96

 Zero-point correction=                           0.104758 (Hartree/Particle)
 Thermal correction to Energy=                    0.111589
 Thermal correction to Enthalpy=                  0.112533
 Thermal correction to Gibbs Free Energy=         0.074603
 Sum of electronic and zero-point Energies=           -323.519516
 Sum of electronic and thermal Energies=              -323.512685
 Sum of electronic and thermal Enthalpies=            -323.511741
 Sum of electronic and thermal Free Energies=         -323.549671

                     E (Thermal)             CV                S
                      KCal/Mol        Cal/Mol-Kelvin    Cal/Mol-Kelvin
 Total                   70.023             25.076             79.830
 Electronic               0.000              0.000              0.000
 Translational            0.889              2.981             39.372
 Rotational               0.889              2.981             26.507
 Vibrational             68.246             19.115             13.950
 Vibration     1          0.603              1.952              3.524
 Vibration     2          0.624              1.883              2.472
 Vibration     3          0.698              1.659              1.373
 Vibration     4          0.718              1.600              1.222
 Vibration     5          0.754              1.502              1.019
 Vibration     6          0.782              1.429              0.895
 Vibration     7          0.836              1.295              0.711
 Vibration     8          0.896              1.161              0.564
 Vibration     9          0.929              1.090              0.498
 Vibration    10          0.944              1.059              0.473

 Normal termination of Gaussian 09 at Fri Aug 19 23:24:01 2022.

 -----------------------------------------------------------------
 #P Geom=AllCheck Guess=TCheck SCRF=Check CCSD(T,E4T,FrzG4)/GTBas1
 -----------------------------------------------------------------

 Structure from the checkpoint file:  "G4.Frag_1160.chk"
 ---------
 Frag_1160
 ---------
 Charge =  0 Multiplicity = 1

 SCF Done:  E(RHF) =  -321.691424314     A.U. after   13 cycles
 E2 =    -0.9139725539D+00 EUMP2 =    -0.32260539686743D+03
 CCSD(T)
 CCSD(T)= -0.32268078700D+03
 51\MP4SDTQ=-322.6810157\MP4SDQ=-322.6500873\CCSD=-322.6503439\CCSD(T)=
 Normal termination of Gaussian 09 at Fri Aug 19 23:29:25 2022.

 ---------------------------------------------------------
 #P Geom=AllCheck Guess=TCheck SCRF=Check MP4=FrzG4/GTBas2
 ---------------------------------------------------------

 Structure from the checkpoint file:  "G4.Frag_1160.chk"
 ---------
 Frag_1160
 ---------
 Charge =  0 Multiplicity = 1

 SCF Done:  E(RHF) =  -321.702239295     A.U. after   13 cycles
 E2 =    -0.9278545144D+00 EUMP2 =    -0.32263009380937D+03
 Normal termination of Gaussian 09 at Fri Aug 19 23:34:43 2022.

 ---------------------------------------------------------
 #P Geom=AllCheck Guess=TCheck SCRF=Check MP4=FrzG4/GTBas3
 ---------------------------------------------------------

 Structure from the checkpoint file:  "G4.Frag_1160.chk"
 ---------
 Frag_1160
 ---------
 Charge =  0 Multiplicity = 1

 SCF Done:  E(RHF) =  -321.736859195     A.U. after   11 cycles
 E2 =    -0.1121242817D+01 EUMP2 =    -0.32285810201215D+03
 Normal termination of Gaussian 09 at Sat Aug 20 01:50:19 2022.

 -----------------------------------------------------------
 #P Geom=AllCheck Guess=TCheck SCRF=Check MP2=Full/GTLargeXP
 -----------------------------------------------------------

 Structure from the checkpoint file:  "G4.Frag_1160.chk"
 ---------
 Frag_1160
 ---------
 Charge =  0 Multiplicity = 1

 SCF Done:  E(RHF) =  -321.823584335     A.U. after   13 cycles
 E2 =    -0.1464340337D+01 EUMP2 =    -0.32328792467199D+03
 Normal termination of Gaussian 09 at Sat Aug 20 01:58:03 2022.
 SCF Done:  E(RHF) =  -321.850352731     A.U. after    9 cycles
 Normal termination of Gaussian 09 at Sat Aug 20 02:03:32 2022.

                         Standard orientation:
 ---------------------------------------------------------------------
 Center     Atomic      Atomic             Coordinates (Angstroms)
 Number     Number       Type             X           Y           Z
 ---------------------------------------------------------------------
      1          6           0        0.984866    1.504638    0.190934
      2          6           0        0.669810    0.229812   -0.057710
      3          6           0        1.670500   -0.892058   -0.094758
      4          7           0       -0.653674   -0.162329   -0.418361
      5          8           0       -1.603999    0.815979   -0.151439
      6          8           0       -1.027313   -1.363733    0.222764
      7          1           0        2.014151    1.777069    0.387193
      8          1           0        0.260880    2.305479    0.138165
      9          1           0        1.595219   -1.434735   -1.042044
     10          1           0        1.498762   -1.622137    0.701116
     11          1           0        2.681761   -0.494446    0.006781
     12          1           0       -1.429479    1.142320    0.753779
     13          1           0       -0.946136   -1.209571    1.182135
 ---------------------------------------------------------------------

 SCF Done:  E(RHF) =  -321.856023292     A.U. after    8 cycles

 The electronic state is 1-A.
 Alpha  occ. eigenvalues --  -20.60923 -20.60920 -15.68541 -11.29021 -11.23679
 Alpha  occ. eigenvalues --  -11.23070  -1.48866  -1.35995  -1.13926  -1.00325
 Alpha  occ. eigenvalues --   -0.95443  -0.80327  -0.73743  -0.69968  -0.68016
 Alpha  occ. eigenvalues --   -0.63193  -0.59190  -0.57752  -0.56141  -0.53938
 Alpha  occ. eigenvalues --   -0.51464  -0.49821  -0.45741  -0.35726
 Alpha virt. eigenvalues --    0.03533   0.04122   0.04897   0.05739   0.06562
 Alpha virt. eigenvalues --    0.07117   0.07762   0.08550   0.09196   0.10280
 Alpha virt. eigenvalues --    0.11324   0.12122   0.13399   0.14216   0.14752

 Mulliken charges:
               1
     1  C   -0.495534
     2  C    0.106282
     3  C   -0.472982
     4  N    0.140245
     5  O   -0.461347
     6  O   -0.454531
     7  H    0.192244
     8  H    0.211809
     9  H    0.201289
    10  H    0.169517
    11  H    0.174022
    12  H    0.341307
    13  H    0.347680
 Sum of Mulliken charges =  -0.00000

 Dipole moment (field-independent basis, Debye):
    X=              2.0881    Y=              0.6292    Z=              2.8234  Tot=              3.5676
 Quadrupole moment (field-independent basis, Debye-Ang):
   XX=            -38.1056   YY=            -36.4886   ZZ=            -35.6503
   XY=             -1.6398   XZ=             -3.9003   YZ=              0.0688

 Normal termination of Gaussian 09 at Sat Aug 20 04:31:10 2022.
