 Gaussian 09, Revision E.01,
 Gaussian 09:  ES64L-G09RevE.01 30-Nov-2015

 -----
 #P G4
 -----

 --------
 Frag_681
 --------
 Symbolic Z-matrix:
 Charge =  0 Multiplicity = 1

 SCF Done:  E(RB3LYP) =  -287.803560337     A.U. after   14 cycles
 SCF Done:  E(RB3LYP) =  -287.808745074     A.U. after   11 cycles
 SCF Done:  E(RB3LYP) =  -287.809938827     A.U. after   12 cycles
 SCF Done:  E(RB3LYP) =  -287.812778915     A.U. after   14 cycles
 SCF Done:  E(RB3LYP) =  -287.813581375     A.U. after   10 cycles
 SCF Done:  E(RB3LYP) =  -287.814358256     A.U. after   11 cycles
 SCF Done:  E(RB3LYP) =  -287.814681431     A.U. after   11 cycles
 SCF Done:  E(RB3LYP) =  -287.814791932     A.U. after   11 cycles
 SCF Done:  E(RB3LYP) =  -287.814811362     A.U. after    9 cycles
 SCF Done:  E(RB3LYP) =  -287.814814746     A.U. after    8 cycles
 SCF Done:  E(RB3LYP) =  -287.814816010     A.U. after    7 cycles
 SCF Done:  E(RB3LYP) =  -287.814816314     A.U. after    7 cycles
 SCF Done:  E(RB3LYP) =  -287.814816379     A.U. after    7 cycles
 Optimization completed.
    -- Stationary point found.
 Normal termination of Gaussian 09 at Fri Aug 26 10:52:57 2022.

 ----------------------------------------------------------
 #P Geom=AllCheck Guess=TCheck SCRF=Check B3LYP/GTBas3 Freq
 ----------------------------------------------------------

 Structure from the checkpoint file:  "G4.Frag_681.chk"
 --------
 Frag_681
 --------
 Charge =  0 Multiplicity = 1

 SCF Done:  E(RB3LYP) =  -287.814816380     A.U. after    1 cycles

  Exact polarizability:  68.391  -1.770  49.020   3.402  -3.864  49.082
 Approx polarizability:  95.383  -4.091  70.092   9.869  -8.042  71.976

                      1                      2                      3
                      A                      A                      A
 Frequencies --    108.3348               212.8802               248.0155
 Red. masses --      2.6094                 1.0619                 1.0615
 Frc consts  --      0.0180                 0.0284                 0.0385
 IR Inten    --      1.0255                21.3550                 6.5778

                      4                      5                      6
                      A                      A                      A
 Frequencies --    283.3964               317.2019               347.9975
 Red. masses --      2.7509                 1.9853                 1.6268
 Frc consts  --      0.1302                 0.1177                 0.1161
 IR Inten    --      9.9456                 0.5088                29.6496

                      7                      8                      9
                      A                      A                      A
 Frequencies --    390.3551               431.2927               508.2396
 Red. masses --      1.6207                 2.5916                 2.5086
 Frc consts  --      0.1455                 0.2840                 0.3818
 IR Inten    --     41.7009                 6.8354                28.1758

                     10                     11                     12
                      A                      A                      A
 Frequencies --    573.9918               709.0480               754.1814
 Red. masses --      2.8035                 1.8074                 3.3272
 Frc consts  --      0.5442                 0.5354                 1.1150
 IR Inten    --      6.1483                18.6150                 8.0948

                     13                     14                     15
                      A                      A                      A
 Frequencies --    877.8388               923.1497               963.4379
 Red. masses --      1.7015                 1.9984                 1.3648
 Frc consts  --      0.7725                 1.0034                 0.7464
 IR Inten    --    146.1688                 9.6850                27.0880

                     16                     17                     18
                      A                      A                      A
 Frequencies --    975.4287              1006.3739              1040.6591
 Red. masses --      1.4043                 1.9482                 1.1166
 Frc consts  --      0.7872                 1.1625                 0.7125
 IR Inten    --     29.0817                43.9681                15.3187

                     19                     20                     21
                      A                      A                      A
 Frequencies --   1046.3399              1139.4043              1228.5847
 Red. masses --      1.3582                 1.8500                 2.9014
 Frc consts  --      0.8761                 1.4151                 2.5803
 IR Inten    --      8.7436                40.0871                89.2113

                     22                     23                     24
                      A                      A                      A
 Frequencies --   1302.1869              1343.7145              1364.3587
 Red. masses --      1.5193                 1.4523                 1.5175
 Frc consts  --      1.5179                 1.5450                 1.6643
 IR Inten    --     21.2109                11.3736                31.6685

                     25                     26                     27
                      A                      A                      A
 Frequencies --   1399.3887              1447.8239              1487.4502
 Red. masses --      1.2976                 1.2194                 1.0565
 Frc consts  --      1.4972                 1.5060                 1.3773
 IR Inten    --     11.2965                19.7104                 2.9765

                     28                     29                     30
                      A                      A                      A
 Frequencies --   1491.2598              1647.3214              1714.3306
 Red. masses --      1.0762                 1.1087                 5.1652
 Frc consts  --      1.4102                 1.7727                 8.9438
 IR Inten    --      3.1451                35.4950                 1.7486

                     31                     32                     33
                      A                      A                      A
 Frequencies --   3034.5791              3103.0906              3135.8863
 Red. masses --      1.0367                 1.1006                 1.0964
 Frc consts  --      5.6246                 6.2440                 6.3522
 IR Inten    --     15.8980                23.2653                 8.7421

                     34                     35                     36
                      A                      A                      A
 Frequencies --   3138.1534              3159.2420              3246.1529
 Red. masses --      1.0827                 1.0717                 1.1139
 Frc consts  --      6.2822                 6.3021                 6.9156
 IR Inten    --     20.6581                10.0841                 5.9094

                     37                     38                     39
                      A                      A                      A
 Frequencies --   3485.6089              3571.3044              3803.1551
 Red. masses --      1.0492                 1.0925                 1.0651
 Frc consts  --      7.5103                 8.2093                 9.0768
 IR Inten    --      0.3745                 1.0291                28.5426

 - Thermochemistry -
 -------------------
 Temperature   298.150 Kelvin.  Pressure   1.00000 Atm.
 Atom     1 has atomic number  6 and mass  12.00000

 Molecular mass:    87.06841 amu.
 Principal axes and moments of inertia in atomic units:
                           1         2         3
     Eigenvalues --   371.06767 648.65402 659.41305
           X            0.99952  -0.02790  -0.01329
           Y            0.02963   0.98723   0.15652
           Z            0.00876  -0.15684   0.98759
 This molecule is an asymmetric top.
 Rotational symmetry number  1.
 Rotational temperatures (Kelvin)      0.23342     0.13353     0.13135
 Rotational constants (GHZ):           4.86364     2.78229     2.73689
 Zero-point vibrational energy     340703.4 (Joules/Mol)
                                   81.43006 (Kcal/Mol)
 Warning -- explicit consideration of  10 degrees of freedom as
           vibrations may cause significant error
 Vibrational temperatures:    155.87   306.29   356.84   407.74   456.38
          (Kelvin)            500.69   561.63   620.53   731.24   825.85
                             1020.16  1085.10  1263.01  1328.20  1386.17
                             1403.42  1447.95  1497.27  1505.45  1639.35
                             1767.66  1873.55  1933.30  1963.01  2013.41
                             2083.09  2140.11  2145.59  2370.13  2466.54
                             4366.08  4464.65  4511.84  4515.10  4545.44
                             4670.48  5015.01  5138.30  5471.89

 Zero-point correction=                           0.129767 (Hartree/Particle)
 Thermal correction to Energy=                    0.137129
 Thermal correction to Enthalpy=                  0.138073
 Thermal correction to Gibbs Free Energy=         0.099376
 Sum of electronic and zero-point Energies=           -287.685049
 Sum of electronic and thermal Energies=              -287.677687
 Sum of electronic and thermal Enthalpies=            -287.676743
 Sum of electronic and thermal Free Energies=         -287.715440

                     E (Thermal)             CV                S
                      KCal/Mol        Cal/Mol-Kelvin    Cal/Mol-Kelvin
 Total                   86.050             27.288             81.444
 Electronic               0.000              0.000              0.000
 Translational            0.889              2.981             39.305
 Rotational               0.889              2.981             26.565
 Vibrational             84.272             21.327             15.574
 Vibration     1          0.606              1.943              3.299
 Vibration     2          0.644              1.821              2.019
 Vibration     3          0.662              1.766              1.745
 Vibration     4          0.682              1.704              1.513
 Vibration     5          0.704              1.641              1.324
 Vibration     6          0.726              1.579              1.175
 Vibration     7          0.758              1.491              0.999
 Vibration     8          0.792              1.402              0.854
 Vibration     9          0.863              1.232              0.638
 Vibration    10          0.930              1.088              0.497

 Optimization completed.
    -- Stationary point found.
 Normal termination of Gaussian 09 at Fri Aug 26 10:53:32 2022.

 -----------------------------------------------------------------
 #P Geom=AllCheck Guess=TCheck SCRF=Check CCSD(T,E4T,FrzG4)/GTBas1
 -----------------------------------------------------------------

 Structure from the checkpoint file:  "G4.Frag_681.chk"
 --------
 Frag_681
 --------
 Charge =  0 Multiplicity = 1

 SCF Done:  E(RHF) =  -285.986605443     A.U. after   12 cycles
 E2 =    -0.8607988256D+00 EUMP2 =    -0.28684740426894D+03
 CCSD(T)
 CCSD(T)= -0.28693017588D+03
 =-286.9024648\CCSD(T)=-286.9301759\RMSD=7.918e-09\PG=C01 [X(C4H9N1O1)]
 Normal termination of Gaussian 09 at Fri Aug 26 10:55:39 2022.

 ---------------------------------------------------------
 #P Geom=AllCheck Guess=TCheck SCRF=Check MP4=FrzG4/GTBas2
 ---------------------------------------------------------

 Structure from the checkpoint file:  "G4.Frag_681.chk"
 --------
 Frag_681
 --------
 Charge =  0 Multiplicity = 1

 SCF Done:  E(RHF) =  -285.998173355     A.U. after   12 cycles
 E2 =    -0.8743588848D+00 EUMP2 =    -0.28687253223992D+03
 Normal termination of Gaussian 09 at Fri Aug 26 10:56:18 2022.

 ---------------------------------------------------------
 #P Geom=AllCheck Guess=TCheck SCRF=Check MP4=FrzG4/GTBas3
 ---------------------------------------------------------

 Structure from the checkpoint file:  "G4.Frag_681.chk"
 --------
 Frag_681
 --------
 Charge =  0 Multiplicity = 1

 SCF Done:  E(RHF) =  -286.027355819     A.U. after   11 cycles
 E2 =    -0.1061329348D+01 EUMP2 =    -0.28708868516763D+03
 Normal termination of Gaussian 09 at Fri Aug 26 11:00:13 2022.

 -----------------------------------------------------------
 #P Geom=AllCheck Guess=TCheck SCRF=Check MP2=Full/GTLargeXP
 -----------------------------------------------------------

 Structure from the checkpoint file:  "G4.Frag_681.chk"
 --------
 Frag_681
 --------
 Charge =  0 Multiplicity = 1

 SCF Done:  E(RHF) =  -286.101885726     A.U. after   12 cycles
 E2 =    -0.1393472819D+01 EUMP2 =    -0.28749535854503D+03
 Normal termination of Gaussian 09 at Fri Aug 26 11:02:13 2022.
 SCF Done:  E(RHF) =  -286.124638835     A.U. after    8 cycles
 Normal termination of Gaussian 09 at Fri Aug 26 11:04:13 2022.

                         Standard orientation:
 ---------------------------------------------------------------------
 Center     Atomic      Atomic             Coordinates (Angstroms)
 Number     Number       Type             X           Y           Z
 ---------------------------------------------------------------------
      1          6           0        2.173314    0.097947    0.016943
      2          6           0        0.995010    0.504961   -0.440079
      3          6           0       -0.354015   -0.019584    0.003757
      4          6           0       -1.262887    1.133925    0.455627
      5          7           0       -1.042092   -0.757090   -1.068706
      6          8           0       -0.139695   -0.927404    1.069067
      7          1           0        2.241723   -0.650717    0.797220
      8          1           0        3.101671    0.501800   -0.373349
      9          1           0        0.939466    1.263382   -1.219736
     10          1           0       -2.257611    0.746792    0.697793
     11          1           0       -1.369313    1.895225   -0.325101
     12          1           0       -0.838043    1.605988    1.343745
     13          1           0       -1.411473   -0.116422   -1.765112
     14          1           0       -0.370445   -1.355262   -1.543263
     15          1           0       -0.932308   -1.475424    1.098723
 ---------------------------------------------------------------------

 SCF Done:  E(RHF) =  -286.129529308     A.U. after    8 cycles

 The electronic state is 1-A.
 Alpha  occ. eigenvalues --  -20.55084 -15.55067 -11.32065 -11.22913 -11.22030
 Alpha  occ. eigenvalues --  -11.21873  -1.37399  -1.17983  -1.04876  -0.98373
 Alpha  occ. eigenvalues --   -0.84781  -0.75657  -0.70389  -0.66733  -0.63424
 Alpha  occ. eigenvalues --   -0.61239  -0.58877  -0.54578  -0.53246  -0.51953
 Alpha  occ. eigenvalues --   -0.50322  -0.46049  -0.41751  -0.36308
 Alpha virt. eigenvalues --    0.03368   0.04360   0.04948   0.05140   0.06511
 Alpha virt. eigenvalues --    0.07101   0.07202   0.07438   0.07894   0.09883
 Alpha virt. eigenvalues --    0.09981   0.10508   0.11667   0.12130   0.14039

 Mulliken charges:
               1
     1  C   -0.448422
     2  C   -0.252307
     3  C    0.520861
     4  C   -0.566188
     5  N   -0.741479
     6  O   -0.638818
     7  H    0.215999
     8  H    0.192537
     9  H    0.196511
    10  H    0.180266
    11  H    0.164032
    12  H    0.192532
    13  H    0.294298
    14  H    0.303280
    15  H    0.386895
 Sum of Mulliken charges =  -0.00000

 Dipole moment (field-independent basis, Debye):
    X=             -0.5587    Y=              0.7719    Z=             -1.5396  Tot=              1.8107
 Quadrupole moment (field-independent basis, Debye-Ang):
   XX=            -37.3713   YY=            -37.7103   ZZ=            -37.1138
   XY=             -0.6765   XZ=             -1.0278   YZ=             -1.2596

 Normal termination of Gaussian 09 at Fri Aug 26 11:12:15 2022.
