 Gaussian 09, Revision E.01,
 Gaussian 09:  ES64L-G09RevE.01 30-Nov-2015

 -----
 #P G4
 -----

 --------
 Frag_569
 --------
 Symbolic Z-matrix:
 Charge =  0 Multiplicity = 1

 SCF Done:  E(RB3LYP) =  -358.424271355     A.U. after   15 cycles
 SCF Done:  E(RB3LYP) =  -358.457880747     A.U. after   13 cycles
 SCF Done:  E(RB3LYP) =  -358.467046697     A.U. after   12 cycles
 SCF Done:  E(RB3LYP) =  -358.467261379     A.U. after   11 cycles
 SCF Done:  E(RB3LYP) =  -358.467280342     A.U. after    9 cycles
 SCF Done:  E(RB3LYP) =  -358.467281150     A.U. after    8 cycles
 Optimization completed.
    -- Stationary point found.
 Normal termination of Gaussian 09 at Thu Aug 25 10:11:18 2022.

 ----------------------------------------------------------
 #P Geom=AllCheck Guess=TCheck SCRF=Check B3LYP/GTBas3 Freq
 ----------------------------------------------------------

 Structure from the checkpoint file:  "G4.Frag_569.chk"
 --------
 Frag_569
 --------
 Charge =  0 Multiplicity = 1

 SCF Done:  E(RB3LYP) =  -358.467281150     A.U. after    1 cycles

  Exact polarizability:  44.068  -1.570  46.527   0.000  -0.000  20.876
 Approx polarizability:  58.732  -7.804  86.705   0.001  -0.001  31.564

                      1                      2                      3
                      A                      A                      A
 Frequencies --     57.4090               272.6900               409.6945
 Red. masses --      8.6723                 6.7472                 2.5549
 Frc consts  --      0.0168                 0.2956                 0.2527
 IR Inten    --      0.6884                 0.7403                10.1688

                      4                      5                      6
                      A                      A                      A
 Frequencies --    431.7250               529.5124               587.3302
 Red. masses --      6.0845                 7.5202                 1.1260
 Frc consts  --      0.6682                 1.2423                 0.2289
 IR Inten    --      2.2379                 3.8872                10.5387

                      7                      8                      9
                      A                      A                      A
 Frequencies --    618.1673               634.5238               790.8305
 Red. masses --      3.5913                 1.4965                 3.9091
 Frc consts  --      0.8086                 0.3550                 1.4404
 IR Inten    --     98.0574               260.6762                 7.3958

                     10                     11                     12
                      A                      A                      A
 Frequencies --    816.8768               891.1356              1109.0311
 Red. masses --      5.7115                 1.2559                 2.1035
 Frc consts  --      2.2455                 0.5876                 1.5244
 IR Inten    --      9.3655                16.2174               263.4902

                     13                     14                     15
                      A                      A                      A
 Frequencies --   1161.2701              1253.1712              1351.2791
 Red. masses --      2.1665                 1.4080                 1.9423
 Frc consts  --      1.7214                 1.3028                 2.0896
 IR Inten    --    223.1913                39.3241                45.1778

                     16                     17                     18
                      A                      A                      A
 Frequencies --   1467.3055              1738.7891              1856.2764
 Red. masses --      3.2047                 9.0387                10.8650
 Frc consts  --      4.0652                16.1008                22.0580
 IR Inten    --     11.9350               203.6117               224.1944

                     19                     20                     21
                      A                      A                      A
 Frequencies --   3532.8467              3758.7380              3764.0630
 Red. masses --      1.0745                 1.0641                 1.0643
 Frc consts  --      7.9015                 8.8573                 8.8847
 IR Inten    --     18.2688                52.2725                90.7017

 - Thermochemistry -
 -------------------
 Temperature   298.150 Kelvin.  Pressure   1.00000 Atm.
 Atom     1 has atomic number  7 and mass  14.00307

 Molecular mass:    89.01129 amu.
 Principal axes and moments of inertia in atomic units:
                           1         2         3
     Eigenvalues --   304.81967 501.85624 806.67591
           X            0.99916   0.04095   0.00000
           Y           -0.04095   0.99916  -0.00000
           Z           -0.00000   0.00000   1.00000
 This molecule is an asymmetric top.
 Rotational symmetry number  1.
 Rotational temperatures (Kelvin)      0.28415     0.17259     0.10737
 Rotational constants (GHZ):           5.92068     3.59613     2.23726
 Zero-point vibrational energy     161691.2 (Joules/Mol)
                                   38.64513 (Kcal/Mol)
 Warning -- explicit consideration of   7 degrees of freedom as
           vibrations may cause significant error
 Vibrational temperatures:     82.60   392.34   589.46   621.16   761.85
          (Kelvin)            845.04   889.40   912.94  1137.83  1175.30
                             1282.14  1595.65  1670.81  1803.03  1944.19
                             2111.12  2501.73  2670.76  5082.97  5407.98
                             5415.64

 Zero-point correction=                           0.061585 (Hartree/Particle)
 Thermal correction to Energy=                    0.067220
 Thermal correction to Enthalpy=                  0.068164
 Thermal correction to Gibbs Free Energy=         0.031958
 Sum of electronic and zero-point Energies=           -358.405696
 Sum of electronic and thermal Energies=              -358.400061
 Sum of electronic and thermal Enthalpies=            -358.399117
 Sum of electronic and thermal Free Energies=         -358.435323

                     E (Thermal)             CV                S
                      KCal/Mol        Cal/Mol-Kelvin    Cal/Mol-Kelvin
 Total                   42.181             19.446             76.201
 Electronic               0.000              0.000              0.000
 Translational            0.889              2.981             39.371
 Rotational               0.889              2.981             26.315
 Vibrational             40.404             13.484             10.515
 Vibration     1          0.596              1.975              4.544
 Vibration     2          0.676              1.724              1.579
 Vibration     3          0.774              1.449              0.928
 Vibration     4          0.793              1.401              0.853
 Vibration     5          0.884              1.185              0.588
 Vibration     6          0.944              1.059              0.472
 Vibration     7          0.978              0.994              0.419

 Optimization completed.
    -- Stationary point found.
 Normal termination of Gaussian 09 at Thu Aug 25 10:12:46 2022.

 -----------------------------------------------------------------
 #P Geom=AllCheck Guess=TCheck SCRF=Check CCSD(T,E4T,FrzG4)/GTBas1
 -----------------------------------------------------------------

 Structure from the checkpoint file:  "G4.Frag_569.chk"
 --------
 Frag_569
 --------
 Charge =  0 Multiplicity = 1

 SCF Done:  E(RHF) =  -356.514616119     A.U. after   13 cycles
 E2 =    -0.9427928103D+00 EUMP2 =    -0.35745740892944D+03
 CCSD(T)
 CCSD(T)= -0.35750725278D+03
 911\CCSD=-357.4759931\CCSD(T)=-357.5072528\RMSD=7.795e-09\PG=C01 [X(C2
 Normal termination of Gaussian 09 at Thu Aug 25 10:16:46 2022.

 ---------------------------------------------------------
 #P Geom=AllCheck Guess=TCheck SCRF=Check MP4=FrzG4/GTBas2
 ---------------------------------------------------------

 Structure from the checkpoint file:  "G4.Frag_569.chk"
 --------
 Frag_569
 --------
 Charge =  0 Multiplicity = 1

 SCF Done:  E(RHF) =  -356.526399152     A.U. after   12 cycles
 E2 =    -0.9575320375D+00 EUMP2 =    -0.35748393118948D+03
 Normal termination of Gaussian 09 at Thu Aug 25 10:21:53 2022.

 ---------------------------------------------------------
 #P Geom=AllCheck Guess=TCheck SCRF=Check MP4=FrzG4/GTBas3
 ---------------------------------------------------------

 Structure from the checkpoint file:  "G4.Frag_569.chk"
 --------
 Frag_569
 --------
 Charge =  0 Multiplicity = 1

 SCF Done:  E(RHF) =  -356.560254957     A.U. after   12 cycles
 E2 =    -0.1143798593D+01 EUMP2 =    -0.35770405355002D+03
 Normal termination of Gaussian 09 at Thu Aug 25 11:41:37 2022.

 -----------------------------------------------------------
 #P Geom=AllCheck Guess=TCheck SCRF=Check MP2=Full/GTLargeXP
 -----------------------------------------------------------

 Structure from the checkpoint file:  "G4.Frag_569.chk"
 --------
 Frag_569
 --------
 Charge =  0 Multiplicity = 1

 SCF Done:  E(RHF) =  -356.661230114     A.U. after   12 cycles
 E2 =    -0.1493420815D+01 EUMP2 =    -0.35815465092960D+03
 Normal termination of Gaussian 09 at Thu Aug 25 11:44:44 2022.
 SCF Done:  E(RHF) =  -356.689972605     A.U. after   10 cycles
 Normal termination of Gaussian 09 at Thu Aug 25 11:48:34 2022.

                         Standard orientation:
 ---------------------------------------------------------------------
 Center     Atomic      Atomic             Coordinates (Angstroms)
 Number     Number       Type             X           Y           Z
 ---------------------------------------------------------------------
      1          7           0       -1.285259    1.273789    0.000004
      2          6           0       -0.749172    0.127174   -0.000013
      3          8           0       -1.468376   -1.003910    0.000020
      4          6           0        0.738306   -0.180322   -0.000105
      5          8           0        1.216895   -1.279337    0.000017
      6          8           0        1.457427    0.961985    0.000033
      7          1           0       -0.577331    2.004787   -0.000042
      8          1           0       -2.398283   -0.733158    0.000064
      9          1           0        2.390058    0.700831    0.000107
 ---------------------------------------------------------------------

 SCF Done:  E(RHF) =  -356.696017440     A.U. after    8 cycles

 The electronic state is 1-A.
 Alpha  occ. eigenvalues --  -20.63863 -20.61501 -20.58077 -15.57318 -11.41911
 Alpha  occ. eigenvalues --  -11.37485  -1.49848  -1.44825  -1.39400  -1.22504
 Alpha  occ. eigenvalues --   -0.96265  -0.83993  -0.76317  -0.73133  -0.70237
 Alpha  occ. eigenvalues --   -0.67190  -0.64067  -0.61243  -0.59757  -0.52876
 Alpha  occ. eigenvalues --   -0.51205  -0.45460  -0.43662
 Alpha virt. eigenvalues --    0.03429   0.04304   0.05688   0.05741   0.07214
 Alpha virt. eigenvalues --    0.07247   0.07646   0.07875   0.10711   0.12415
 Alpha virt. eigenvalues --    0.12769   0.13492   0.14220   0.15589   0.15816

 Mulliken charges:
               1
     1  N   -0.653288
     2  C    0.445958
     3  O   -0.504283
     4  C    0.617290
     5  O   -0.520590
     6  O   -0.538325
     7  H    0.321675
     8  H    0.411016
     9  H    0.420548
 Sum of Mulliken charges =  -0.00000

 Dipole moment (field-independent basis, Debye):
    X=              0.8376    Y=              1.7261    Z=             -0.0002  Tot=              1.9186
 Quadrupole moment (field-independent basis, Debye-Ang):
   XX=            -27.4325   YY=            -39.5286   ZZ=            -33.9197
   XY=              6.3425   XZ=              0.0001   YZ=             -0.0001

 Normal termination of Gaussian 09 at Thu Aug 25 13:26:04 2022.
