 Gaussian 09, Revision E.01,
 Gaussian 09:  ES64L-G09RevE.01 30-Nov-2015

 -----
 #P G4
 -----

 ---------
 Frag_1071
 ---------
 Symbolic Z-matrix:
 Charge =  0 Multiplicity = 1

 SCF Done:  E(RB3LYP) =  -157.183561917     A.U. after   11 cycles
 SCF Done:  E(RB3LYP) =  -157.222357828     A.U. after    9 cycles
 SCF Done:  E(RB3LYP) =  -157.234394686     A.U. after   10 cycles
 SCF Done:  E(RB3LYP) =  -157.235930768     A.U. after   10 cycles
 SCF Done:  E(RB3LYP) =  -157.237691302     A.U. after   10 cycles
 SCF Done:  E(RB3LYP) =  -157.239659799     A.U. after   11 cycles
 SCF Done:  E(RB3LYP) =  -157.240500814     A.U. after    9 cycles
 SCF Done:  E(RB3LYP) =  -157.240993383     A.U. after   10 cycles
 SCF Done:  E(RB3LYP) =  -157.241017290     A.U. after    9 cycles
 SCF Done:  E(RB3LYP) =  -157.241019587     A.U. after    7 cycles
 SCF Done:  E(RB3LYP) =  -157.241019706     A.U. after    6 cycles
 Optimization completed.
    -- Stationary point found.
 Normal termination of Gaussian 09 at Tue Aug 30 09:24:34 2022.

 ----------------------------------------------------------
 #P Geom=AllCheck Guess=TCheck SCRF=Check B3LYP/GTBas3 Freq
 ----------------------------------------------------------

 Structure from the checkpoint file:  "G4.Frag_1071.chk"
 ---------
 Frag_1071
 ---------
 Charge =  0 Multiplicity = 1

 SCF Done:  E(RB3LYP) =  -157.241019706     A.U. after    1 cycles

  Exact polarizability:  62.125  -4.657  42.600   0.003  -0.000  31.558
 Approx polarizability:  79.402 -12.016  63.709   0.002  -0.001  45.271

                      1                      2                      3
                      A                      A                      A
 Frequencies --    184.3139               238.1826               247.8804
 Red. masses --      1.0769                 1.2607                 2.0931
 Frc consts  --      0.0216                 0.0421                 0.0758
 IR Inten    --      1.0877                 0.0000                 2.4487

                      4                      5                      6
                      A                      A                      A
 Frequencies --    280.7852               499.7111               761.6320
 Red. masses --      2.3425                 2.7398                 1.2921
 Frc consts  --      0.1088                 0.4031                 0.4416
 IR Inten    --      1.0899                 0.0000                 0.0000

                      7                      8                      9
                      A                      A                      A
 Frequencies --    874.8809               987.9649              1015.2513
 Red. masses --      1.7642                 1.2282                 1.0559
 Frc consts  --      0.7956                 0.7063                 0.6412
 IR Inten    --      0.0000                13.8638                20.2519

                     10                     11                     12
                      A                      A                      A
 Frequencies --   1067.5288              1070.8631              1078.6676
 Red. masses --      1.6281                 1.4440                 3.4070
 Frc consts  --      1.0931                 0.9756                 2.3356
 IR Inten    --      0.0000                 1.0697                 2.4812

                     13                     14                     15
                      A                      A                      A
 Frequencies --   1167.5312              1328.6816              1336.6662
 Red. masses --      2.0361                 1.2857                 1.2418
 Frc consts  --      1.6352                 1.3373                 1.3072
 IR Inten    --      0.0000                 6.2454                 0.0000

                     16                     17                     18
                      A                      A                      A
 Frequencies --   1411.6219              1413.7476              1480.8512
 Red. masses --      1.2714                 1.2450                 1.0442
 Frc consts  --      1.4927                 1.4661                 1.3491
 IR Inten    --      2.2645                 0.0000                 9.1329

                     19                     20                     21
                      A                      A                      A
 Frequencies --   1480.9512              1489.5370              1497.6284
 Red. masses --      1.0454                 1.0590                 1.0449
 Frc consts  --      1.3509                 1.3843                 1.3808
 IR Inten    --      0.0001                 0.0000                12.8220

                     22                     23                     24
                      A                      A                      A
 Frequencies --   1751.1958              3016.2327              3016.8194
 Red. masses --      5.9270                 1.0374                 1.0372
 Frc consts  --     10.7091                 5.5608                 5.5617
 IR Inten    --      0.0000                68.7027                 0.0000

                     25                     26                     27
                      A                      A                      A
 Frequencies --   3061.9680              3062.2879              3100.0256
 Red. masses --      1.0987                 1.0988                 1.0969
 Frc consts  --      6.0692                 6.0711                 6.2108
 IR Inten    --     49.1116                 0.0351                17.5515

                     28                     29                     30
                      A                      A                      A
 Frequencies --   3101.7398              3122.0994              3129.7228
 Red. masses --      1.0967                 1.0929                 1.0877
 Frc consts  --      6.2163                 6.2766                 6.2774
 IR Inten    --      0.0001                 0.0004                73.1198

 - Thermochemistry -
 -------------------
 Temperature   298.150 Kelvin.  Pressure   1.00000 Atm.
 Atom     1 has atomic number  6 and mass  12.00000

 Molecular mass:    56.06260 amu.
 Principal axes and moments of inertia in atomic units:
                           1         2         3
     Eigenvalues --    51.67243 485.86095 515.30021
           X            0.99998   0.00548   0.00000
           Y           -0.00548   0.99998  -0.00000
           Z           -0.00000   0.00000   1.00000
 This molecule is an asymmetric top.
 Rotational symmetry number  1.
 Rotational temperatures (Kelvin)      1.67621     0.17827     0.16808
 Rotational constants (GHZ):          34.92658     3.71452     3.50231
 Zero-point vibrational energy     282779.1 (Joules/Mol)
                                   67.58582 (Kcal/Mol)
 Warning -- explicit consideration of   5 degrees of freedom as
           vibrations may cause significant error
 Vibrational temperatures:    265.19   342.69   356.64   403.99   718.97
          (Kelvin)           1095.82  1258.76  1421.46  1460.72  1535.93
                             1540.73  1551.96  1679.81  1911.67  1923.16
                             2031.01  2034.06  2130.61  2130.76  2143.11
                             2154.75  2519.58  4339.68  4340.52  4405.48
                             4405.94  4460.24  4462.71  4492.00  4502.97

 Zero-point correction=                           0.107705 (Hartree/Particle)
 Thermal correction to Energy=                    0.113167
 Thermal correction to Enthalpy=                  0.114111
 Thermal correction to Gibbs Free Energy=         0.080341
 Sum of electronic and zero-point Energies=           -157.133315
 Sum of electronic and thermal Energies=              -157.127853
 Sum of electronic and thermal Enthalpies=            -157.126909
 Sum of electronic and thermal Free Energies=         -157.160679

                     E (Thermal)             CV                S
                      KCal/Mol        Cal/Mol-Kelvin    Cal/Mol-Kelvin
 Total                   71.013             18.288             71.074
 Electronic               0.000              0.000              0.000
 Translational            0.889              2.981             37.993
 Rotational               0.889              2.981             24.074
 Vibrational             69.236             12.326              9.008
 Vibration     1          0.631              1.861              2.284
 Vibration     2          0.656              1.782              1.816
 Vibration     3          0.662              1.766              1.746
 Vibration     4          0.680              1.709              1.529
 Vibration     5          0.855              1.251              0.659

 Optimization completed.
    -- Stationary point found.
 Normal termination of Gaussian 09 at Tue Aug 30 09:25:20 2022.

 -----------------------------------------------------------------
 #P Geom=AllCheck Guess=TCheck SCRF=Check CCSD(T,E4T,FrzG4)/GTBas1
 -----------------------------------------------------------------

 Structure from the checkpoint file:  "G4.Frag_1071.chk"
 ---------
 Frag_1071
 ---------
 Charge =  0 Multiplicity = 1

 SCF Done:  E(RHF) =  -156.109662778     A.U. after   10 cycles
 E2 =    -0.5160942912D+00 EUMP2 =    -0.15662575706888D+03
 CCSD(T)
 CCSD(T)= -0.15669357184D+03
 156.6753846\CCSD(T)=-156.6935718\RMSD=3.578e-09\PG=C01 [X(C4H8)]\\@
 Normal termination of Gaussian 09 at Tue Aug 30 09:25:50 2022.

 ---------------------------------------------------------
 #P Geom=AllCheck Guess=TCheck SCRF=Check MP4=FrzG4/GTBas2
 ---------------------------------------------------------

 Structure from the checkpoint file:  "G4.Frag_1071.chk"
 ---------
 Frag_1071
 ---------
 Charge =  0 Multiplicity = 1

 SCF Done:  E(RHF) =  -156.113341034     A.U. after   10 cycles
 E2 =    -0.5206462574D+00 EUMP2 =    -0.15663398729155D+03
 Normal termination of Gaussian 09 at Tue Aug 30 09:26:06 2022.

 ---------------------------------------------------------
 #P Geom=AllCheck Guess=TCheck SCRF=Check MP4=FrzG4/GTBas3
 ---------------------------------------------------------

 Structure from the checkpoint file:  "G4.Frag_1071.chk"
 ---------
 Frag_1071
 ---------
 Charge =  0 Multiplicity = 1

 SCF Done:  E(RHF) =  -156.130851767     A.U. after    9 cycles
 E2 =    -0.6417760456D+00 EUMP2 =    -0.15677262781256D+03
 Normal termination of Gaussian 09 at Tue Aug 30 09:34:36 2022.

 -----------------------------------------------------------
 #P Geom=AllCheck Guess=TCheck SCRF=Check MP2=Full/GTLargeXP
 -----------------------------------------------------------

 Structure from the checkpoint file:  "G4.Frag_1071.chk"
 ---------
 Frag_1071
 ---------
 Charge =  0 Multiplicity = 1

 SCF Done:  E(RHF) =  -156.164210973     A.U. after   10 cycles
 E2 =    -0.8510459748D+00 EUMP2 =    -0.15701525694736D+03
 Normal termination of Gaussian 09 at Tue Aug 30 09:35:35 2022.
 SCF Done:  E(RHF) =  -156.177142493     A.U. after    8 cycles
 Normal termination of Gaussian 09 at Tue Aug 30 09:37:22 2022.

                         Standard orientation:
 ---------------------------------------------------------------------
 Center     Atomic      Atomic             Coordinates (Angstroms)
 Number     Number       Type             X           Y           Z
 ---------------------------------------------------------------------
      1          6           0       -1.960139   -0.079238    0.000005
      2          6           0       -0.536664    0.393680    0.000003
      3          6           0        0.536664   -0.393680   -0.000001
      4          6           0        1.960139    0.079238   -0.000005
      5          1           0       -2.020366   -1.171705    0.000224
      6          1           0       -2.504023    0.290190    0.878631
      7          1           0       -2.503963    0.289869   -0.878865
      8          1           0       -0.392656    1.474742    0.000032
      9          1           0        0.392656   -1.474742   -0.000030
     10          1           0        2.503968   -0.289879    0.878857
     11          1           0        2.504018   -0.290179   -0.878639
     12          1           0        2.020366    1.171705   -0.000212
 ---------------------------------------------------------------------

 SCF Done:  E(RHF) =  -156.179771298     A.U. after    7 cycles

 The electronic state is 1-A.
 Alpha  occ. eigenvalues --  -11.22261 -11.22088 -11.21755 -11.21753  -1.07597
 Alpha  occ. eigenvalues --   -0.98195  -0.87762  -0.74306  -0.60594  -0.60545
 Alpha  occ. eigenvalues --   -0.56891  -0.55194  -0.52096  -0.50946  -0.47987
 Alpha  occ. eigenvalues --   -0.34314
 Alpha virt. eigenvalues --    0.04090   0.04350   0.04800   0.05888   0.06524
 Alpha virt. eigenvalues --    0.07208   0.07575   0.08471   0.09607   0.09674
 Alpha virt. eigenvalues --    0.10440   0.11101   0.14209   0.14889   0.16880

 Mulliken charges:
               1
     1  C   -0.505444
     2  C   -0.158195
     3  C   -0.158195
     4  C   -0.505444
     5  H    0.153205
     6  H    0.172066
     7  H    0.172065
     8  H    0.166302
     9  H    0.166302
    10  H    0.172065
    11  H    0.172066
    12  H    0.153205
 Sum of Mulliken charges =  -0.00000

 Dipole moment (field-independent basis, Debye):
    X=              0.0000    Y=             -0.0000    Z=             -0.0000  Tot=              0.0000
 Quadrupole moment (field-independent basis, Debye-Ang):
   XX=            -25.8538   YY=            -25.7206   ZZ=            -28.5467
   XY=             -0.4539   XZ=             -0.0002   YZ=              0.0000

 Normal termination of Gaussian 09 at Tue Aug 30 10:24:45 2022.
