 Gaussian 09, Revision E.01,
 Gaussian 09:  ES64L-G09RevE.01 30-Nov-2015

 -----
 #P G4
 -----

 ---------
 Frag_1146
 ---------
 Symbolic Z-matrix:
 Charge =  0 Multiplicity = 1

 SCF Done:  E(RB3LYP) =  -248.497650819     A.U. after   13 cycles
 SCF Done:  E(RB3LYP) =  -248.501943517     A.U. after   13 cycles
 SCF Done:  E(RB3LYP) =  -248.500295736     A.U. after   13 cycles
 SCF Done:  E(RB3LYP) =  -248.502169906     A.U. after    9 cycles
 SCF Done:  E(RB3LYP) =  -248.502583137     A.U. after   12 cycles
 SCF Done:  E(RB3LYP) =  -248.503106015     A.U. after   12 cycles
 SCF Done:  E(RB3LYP) =  -248.470006894     A.U. after   14 cycles
 SCF Done:  E(RB3LYP) =  -248.503226648     A.U. after    9 cycles
 SCF Done:  E(RB3LYP) =  -248.506208780     A.U. after   15 cycles
 SCF Done:  E(RB3LYP) =  -248.491333721     A.U. after   13 cycles
 SCF Done:  E(RB3LYP) =  -248.510849467     A.U. after    9 cycles
 SCF Done:  E(RB3LYP) =  -248.510850356     A.U. after    8 cycles
 SCF Done:  E(RB3LYP) =  -248.510850540     A.U. after    7 cycles
 Optimization completed.
    -- Stationary point found.
 Normal termination of Gaussian 09 at Fri Aug 26 11:49:05 2022.

 ----------------------------------------------------------
 #P Geom=AllCheck Guess=TCheck SCRF=Check B3LYP/GTBas3 Freq
 ----------------------------------------------------------

 Structure from the checkpoint file:  "G4.Frag_1146.chk"
 ---------
 Frag_1146
 ---------
 Charge =  0 Multiplicity = 1

 SCF Done:  E(RB3LYP) =  -248.510850540     A.U. after    1 cycles

  Exact polarizability:  48.338  -1.221  46.575   2.207  -1.394  34.221
 Approx polarizability:  69.547  -4.142  63.455   6.578  -3.560  51.313

                      1                      2                      3
                      A                      A                      A
 Frequencies --    130.4568               201.8591               236.1222
 Red. masses --      2.4711                 1.1449                 1.0583
 Frc consts  --      0.0248                 0.0275                 0.0348
 IR Inten    --      8.5078                36.0254                 1.1566

                      4                      5                      6
                      A                      A                      A
 Frequencies --    298.9011               352.3303               451.9011
 Red. masses --      4.3064                 2.4857                 2.3178
 Frc consts  --      0.2267                 0.1818                 0.2789
 IR Inten    --      6.4148                 0.8326                 8.3151

                      7                      8                      9
                      A                      A                      A
 Frequencies --    650.2662               796.5995               877.5239
 Red. masses --      3.7039                 2.4518                 1.4792
 Frc consts  --      0.9228                 0.9167                 0.6711
 IR Inten    --     12.3407                92.1046                63.0727

                     10                     11                     12
                      A                      A                      A
 Frequencies --    910.8808               934.3321              1053.3492
 Red. masses --      1.2431                 1.9390                 1.6331
 Frc consts  --      0.6077                 0.9973                 1.0676
 IR Inten    --      6.2361                12.6560                 3.1407

                     13                     14                     15
                      A                      A                      A
 Frequencies --   1122.3355              1172.6571              1224.2609
 Red. masses --      2.0586                 1.6770                 1.4368
 Frc consts  --      1.5278                 1.3587                 1.2688
 IR Inten    --      7.1894                 4.5479                 5.6214

                     16                     17                     18
                      A                      A                      A
 Frequencies --   1328.6336              1385.2926              1400.1389
 Red. masses --      1.4218                 1.5648                 1.2433
 Frc consts  --      1.4788                 1.7693                 1.4361
 IR Inten    --      4.3950                 6.7054                 6.8433

                     19                     20                     21
                      A                      A                      A
 Frequencies --   1421.6667              1489.3562              1501.0237
 Red. masses --      1.2367                 1.0688                 1.0527
 Frc consts  --      1.4726                 1.3969                 1.3974
 IR Inten    --      3.7462                 5.2736                 2.8862

                     22                     23                     24
                      A                      A                      A
 Frequencies --   1636.7027              1827.6214              2884.0851
 Red. masses --      1.1075                 9.5220                 1.0805
 Frc consts  --      1.7480                18.7392                 5.2952
 IR Inten    --     47.0063               148.0281                41.4833

                     25                     26                     27
                      A                      A                      A
 Frequencies --   2898.7405              3037.5147              3110.2211
 Red. masses --      1.0820                 1.0356                 1.0999
 Frc consts  --      5.3567                 5.6294                 6.2688
 IR Inten    --    102.0238                20.9897                24.0947

                     28                     29                     30
                      A                      A                      A
 Frequencies --   3125.2372              3501.0087              3596.0249
 Red. masses --      1.1031                 1.0501                 1.0918
 Frc consts  --      6.3482                 7.5833                 8.3187
 IR Inten    --     16.8477                 7.4527                 8.5850

 - Thermochemistry -
 -------------------
 Temperature   298.150 Kelvin.  Pressure   1.00000 Atm.
 Atom     1 has atomic number  6 and mass  12.00000

 Molecular mass:    73.05276 amu.
 Principal axes and moments of inertia in atomic units:
                           1         2         3
     Eigenvalues --   220.99463 438.54694 602.55370
           X            0.99919  -0.03971  -0.00647
           Y            0.03980   0.99908   0.01565
           Z            0.00584  -0.01589   0.99986
 This molecule is an asymmetric top.
 Rotational symmetry number  1.
 Rotational temperatures (Kelvin)      0.39193     0.19750     0.14374
 Rotational constants (GHZ):           8.16645     4.11527     2.99515
 Zero-point vibrational energy     266510.3 (Joules/Mol)
                                   63.69749 (Kcal/Mol)
 Warning -- explicit consideration of   6 degrees of freedom as
           vibrations may cause significant error
 Vibrational temperatures:    187.70   290.43   339.73   430.05   506.92
          (Kelvin)            650.18   935.59  1146.13  1262.56  1310.55
                             1344.29  1515.53  1614.79  1687.19  1761.44
                             1911.61  1993.12  2014.49  2045.46  2142.85
                             2159.64  2354.85  2629.54  4149.55  4170.64
                             4370.30  4474.91  4496.51  5037.16  5173.87

 Zero-point correction=                           0.101508 (Hartree/Particle)
 Thermal correction to Energy=                    0.107630
 Thermal correction to Enthalpy=                  0.108574
 Thermal correction to Gibbs Free Energy=         0.072499
 Sum of electronic and zero-point Energies=           -248.409342
 Sum of electronic and thermal Energies=              -248.403221
 Sum of electronic and thermal Enthalpies=            -248.402276
 Sum of electronic and thermal Free Energies=         -248.438351

                     E (Thermal)             CV                S
                      KCal/Mol        Cal/Mol-Kelvin    Cal/Mol-Kelvin
 Total                   67.539             20.835             75.926
 Electronic               0.000              0.000              0.000
 Translational            0.889              2.981             38.782
 Rotational               0.889              2.981             25.571
 Vibrational             65.761             14.873             11.572
 Vibration     1          0.612              1.923              2.939
 Vibration     2          0.639              1.837              2.116
 Vibration     3          0.655              1.785              1.832
 Vibration     4          0.692              1.676              1.423
 Vibration     5          0.729              1.570              1.156
 Vibration     6          0.811              1.357              0.790

 Optimization completed.
    -- Stationary point found.
 Normal termination of Gaussian 09 at Fri Aug 26 11:49:26 2022.

 -----------------------------------------------------------------
 #P Geom=AllCheck Guess=TCheck SCRF=Check CCSD(T,E4T,FrzG4)/GTBas1
 -----------------------------------------------------------------

 Structure from the checkpoint file:  "G4.Frag_1146.chk"
 ---------
 Frag_1146
 ---------
 Charge =  0 Multiplicity = 1

 SCF Done:  E(RHF) =  -246.969966316     A.U. after   14 cycles
 E2 =    -0.7265816354D+00 EUMP2 =    -0.24769654795129D+03
 CCSD(T)
 CCSD(T)= -0.24776169037D+03
 =-247.7385256\CCSD(T)=-247.7616904\RMSD=5.076e-09\PG=C01 [X(C3H7N1O1)]
 Normal termination of Gaussian 09 at Fri Aug 26 11:50:26 2022.

 ---------------------------------------------------------
 #P Geom=AllCheck Guess=TCheck SCRF=Check MP4=FrzG4/GTBas2
 ---------------------------------------------------------

 Structure from the checkpoint file:  "G4.Frag_1146.chk"
 ---------
 Frag_1146
 ---------
 Charge =  0 Multiplicity = 1

 SCF Done:  E(RHF) =  -246.978496204     A.U. after   13 cycles
 E2 =    -0.7373811982D+00 EUMP2 =    -0.24771587740174D+03
 Normal termination of Gaussian 09 at Fri Aug 26 11:50:43 2022.

 ---------------------------------------------------------
 #P Geom=AllCheck Guess=TCheck SCRF=Check MP4=FrzG4/GTBas3
 ---------------------------------------------------------

 Structure from the checkpoint file:  "G4.Frag_1146.chk"
 ---------
 Frag_1146
 ---------
 Charge =  0 Multiplicity = 1

 SCF Done:  E(RHF) =  -247.001962665     A.U. after   13 cycles
 E2 =    -0.8939709447D+00 EUMP2 =    -0.24789593361003D+03
 Normal termination of Gaussian 09 at Fri Aug 26 11:52:07 2022.

 -----------------------------------------------------------
 #P Geom=AllCheck Guess=TCheck SCRF=Check MP2=Full/GTLargeXP
 -----------------------------------------------------------

 Structure from the checkpoint file:  "G4.Frag_1146.chk"
 ---------
 Frag_1146
 ---------
 Charge =  0 Multiplicity = 1

 SCF Done:  E(RHF) =  -247.066450125     A.U. after   12 cycles
 E2 =    -0.1172253604D+01 EUMP2 =    -0.24823870372972D+03
 Normal termination of Gaussian 09 at Fri Aug 26 11:52:58 2022.
 SCF Done:  E(RHF) =  -247.085976388     A.U. after    9 cycles
 Normal termination of Gaussian 09 at Fri Aug 26 11:54:02 2022.

                         Standard orientation:
 ---------------------------------------------------------------------
 Center     Atomic      Atomic             Coordinates (Angstroms)
 Number     Number       Type             X           Y           Z
 ---------------------------------------------------------------------
      1          6           0        1.608244   -0.719380   -0.233364
      2          6           0        0.434897    0.061471    0.380486
      3          7           0        0.345498    1.411021   -0.151988
      4          6           0       -0.870676   -0.675569    0.150330
      5          8           0       -1.892674   -0.147413   -0.207667
      6          1           0        1.514466   -0.746188   -1.322389
      7          1           0        2.553780   -0.228336    0.011782
      8          1           0        1.649905   -1.744648    0.150574
      9          1           0        0.557954    0.025878    1.482617
     10          1           0       -0.629350    1.697810   -0.158062
     11          1           0        0.867664    2.066087    0.416931
     12          1           0       -0.826305   -1.767582    0.359094
 ---------------------------------------------------------------------

 SCF Done:  E(RHF) =  -247.090128685     A.U. after    8 cycles

 The electronic state is 1-A.
 Alpha  occ. eigenvalues --  -20.56314 -15.54418 -11.33595 -11.27812 -11.23065
 Alpha  occ. eigenvalues --   -1.40421  -1.19476  -1.02365  -0.89882  -0.77682
 Alpha  occ. eigenvalues --   -0.70836  -0.66460  -0.64588  -0.59656  -0.56094
 Alpha  occ. eigenvalues --   -0.54507  -0.52989  -0.51139  -0.42646  -0.40202
 Alpha virt. eigenvalues --    0.03375   0.04127   0.04480   0.05325   0.07253
 Alpha virt. eigenvalues --    0.07297   0.07411   0.07890   0.09231   0.10297
 Alpha virt. eigenvalues --    0.11526   0.13084   0.13466   0.13766   0.14847

 Mulliken charges:
               1
     1  C   -0.498943
     2  C    0.087545
     3  N   -0.714319
     4  C    0.212354
     5  O   -0.523214
     6  H    0.178089
     7  H    0.165048
     8  H    0.156732
     9  H    0.149490
    10  H    0.324745
    11  H    0.290303
    12  H    0.172170
 Sum of Mulliken charges =  -0.00000

 Dipole moment (field-independent basis, Debye):
    X=              2.3602    Y=             -0.8398    Z=              2.0770  Tot=              3.2542
 Quadrupole moment (field-independent basis, Debye-Ang):
   XX=            -36.7402   YY=            -28.0763   ZZ=            -31.6646
   XY=             -0.0588   XZ=              0.1015   YZ=              1.9196

 Normal termination of Gaussian 09 at Fri Aug 26 12:00:46 2022.
