 Gaussian 09, Revision E.01,
 Gaussian 09:  ES64L-G09RevE.01 30-Nov-2015

 ----------------
 #P G4 OPT=calcfc
 ----------------

 --------
 Frag_296
 --------
 Symbolic Z-matrix:
 Charge =  0 Multiplicity = 1

 SCF Done:  E(RB3LYP) =  -331.760530294     A.U. after   12 cycles
 SCF Done:  E(RB3LYP) =  -331.765810955     A.U. after   10 cycles
 SCF Done:  E(RB3LYP) =  -331.766315980     A.U. after   10 cycles
 SCF Done:  E(RB3LYP) =  -331.725561825     A.U. after   13 cycles
 SCF Done:  E(RB3LYP) =  -331.766450193     A.U. after   10 cycles
 SCF Done:  E(RB3LYP) =  -331.766326709     A.U. after   11 cycles
 SCF Done:  E(RB3LYP) =  -331.766786645     A.U. after   11 cycles
 SCF Done:  E(RB3LYP) =  -331.767020118     A.U. after   10 cycles
 SCF Done:  E(RB3LYP) =  -331.767069298     A.U. after    9 cycles
 SCF Done:  E(RB3LYP) =  -331.767096158     A.U. after    9 cycles
 SCF Done:  E(RB3LYP) =  -331.767101076     A.U. after    8 cycles
 SCF Done:  E(RB3LYP) =  -331.767101235     A.U. after    6 cycles
 SCF Done:  E(RB3LYP) =  -331.767101363     A.U. after    6 cycles
 Optimization completed.
    -- Stationary point found.
 Normal termination of Gaussian 09 at Wed Sep  8 05:19:13 2021.

 ----------------------------------------------------------
 #P Geom=AllCheck Guess=TCheck SCRF=Check B3LYP/GTBas3 Freq
 ----------------------------------------------------------

 Structure from the checkpoint file:  "/public/home/users/caep010/.cache/gau_scr/Gau-175408.chk"
 --------
 Frag_296
 --------
 Charge =  0 Multiplicity = 1

 SCF Done:  E(RB3LYP) =  -331.767101363     A.U. after    1 cycles

  Exact polarizability:  89.434  -0.395  81.773   0.053  -0.688  80.714
 Approx polarizability: 121.807  -1.201 116.617  -0.977  -1.311 117.646

                      1                      2                      3
                      A                      A                      A
 Frequencies --     95.5067               205.2105               245.2372
 Red. masses --      2.5625                 1.0190                 1.1086
 Frc consts  --      0.0138                 0.0253                 0.0393
 IR Inten    --      0.1746                 6.9096                 9.5863

                      4                      5                      6
                      A                      A                      A
 Frequencies --    249.2867               266.9215               285.2003
 Red. masses --      1.2003                 1.2868                 1.3833
 Frc consts  --      0.0439                 0.0540                 0.0663
 IR Inten    --      6.5910                 0.5900                 0.0268

                      7                      8                      9
                      A                      A                      A
 Frequencies --    288.2226               300.5331               311.7148
 Red. masses --      1.4605                 1.6552                 1.4803
 Frc consts  --      0.0715                 0.0881                 0.0847
 IR Inten    --      9.6753                 2.7162                 8.6920

                     10                     11                     12
                      A                      A                      A
 Frequencies --    361.1916               371.0168               379.0591
 Red. masses --      1.7688                 2.0754                 2.1144
 Frc consts  --      0.1360                 0.1683                 0.1790
 IR Inten    --      1.3947                 0.4863                 0.0450

                     13                     14                     15
                      A                      A                      A
 Frequencies --    388.7682               401.7755               477.5800
 Red. masses --      2.1276                 2.3757                 2.3640
 Frc consts  --      0.1895                 0.2260                 0.3177
 IR Inten    --      0.2967                 2.0841                 0.3431

                     16                     17                     18
                      A                      A                      A
 Frequencies --    485.4513               500.7374               648.6315
 Red. masses --      2.6921                 2.4552                 2.9195
 Frc consts  --      0.3738                 0.3627                 0.7237
 IR Inten    --      2.3126                 5.1993                 0.5226

                     19                     20                     21
                      A                      A                      A
 Frequencies --    807.5758               863.3140               919.7469
 Red. masses --      2.8881                 1.9892                 1.5193
 Frc consts  --      1.1098                 0.8735                 0.7572
 IR Inten    --      9.3833                47.2465                41.2338

                     22                     23                     24
                      A                      A                      A
 Frequencies --    928.1582               933.8044               934.9900
 Red. masses --      1.6106                 1.6526                 1.8238
 Frc consts  --      0.8175                 0.8490                 0.9394
 IR Inten    --     11.2462                 1.8134                 1.4296

                     25                     26                     27
                      A                      A                      A
 Frequencies --    959.1726               966.6073              1011.9598
 Red. masses --      1.2145                 1.6398                 1.2768
 Frc consts  --      0.6583                 0.9027                 0.7704
 IR Inten    --      0.1318                 3.3946                 2.6225

                     28                     29                     30
                      A                      A                      A
 Frequencies --   1032.3433              1048.0414              1093.2374
 Red. masses --      1.3687                 1.3747                 1.4572
 Frc consts  --      0.8594                 0.8896                 1.0261
 IR Inten    --      2.4929                 2.2015                 4.7566

                     31                     32                     33
                      A                      A                      A
 Frequencies --   1187.2495              1209.3786              1233.7931
 Red. masses --      2.2311                 2.4507                 2.2563
 Frc consts  --      1.8529                 2.1119                 2.0236
 IR Inten    --     29.6993                17.1139                10.1286

                     34                     35                     36
                      A                      A                      A
 Frequencies --   1255.0518              1273.5316              1336.8686
 Red. masses --      3.0853                 2.8488                 1.9082
 Frc consts  --      2.8633                 2.7222                 2.0093
 IR Inten    --      0.5055                 1.1583                 1.3602

                     37                     38                     39
                      A                      A                      A
 Frequencies --   1390.2881              1394.9868              1400.7305
 Red. masses --      1.2620                 1.2343                 1.2358
 Frc consts  --      1.4372                 1.4152                 1.4286
 IR Inten    --      1.0342                 6.2943                 9.0121

                     40                     41                     42
                      A                      A                      A
 Frequencies --   1413.4450              1431.6979              1476.3311
 Red. masses --      1.2415                 1.2127                 1.0501
 Frc consts  --      1.4614                 1.4645                 1.3484
 IR Inten    --     17.7839                 3.3738                 0.8245

                     43                     44                     45
                      A                      A                      A
 Frequencies --   1482.9148              1490.9965              1494.4995
 Red. masses --      1.0482                 1.0480                 1.0495
 Frc consts  --      1.3580                 1.3726                 1.3811
 IR Inten    --      0.3138                 0.3561                 0.2209

                     46                     47                     48
                      A                      A                      A
 Frequencies --   1497.2521              1505.0843              1509.6396
 Red. masses --      1.0471                 1.0483                 1.0530
 Frc consts  --      1.3830                 1.3991                 1.4139
 IR Inten    --      0.1851                 5.1747                 5.1742

                     49                     50                     51
                      A                      A                      A
 Frequencies --   1513.6633              1520.4998              1528.4037
 Red. masses --      1.0566                 1.0522                 1.0615
 Frc consts  --      1.4263                 1.4332                 1.4610
 IR Inten    --      1.6250                 6.6581                 4.3170

                     52                     53                     54
                      A                      A                      A
 Frequencies --   1656.2620              3030.4073              3032.5592
 Red. masses --      1.0896                 1.0363                 1.0356
 Frc consts  --      1.7610                 5.6069                 5.6113
 IR Inten    --     28.9765                 5.9278                13.8068

                     55                     56                     57
                      A                      A                      A
 Frequencies --   3033.6756              3036.8029              3043.1187
 Red. masses --      1.0370                 1.0398                 1.0389
 Frc consts  --      5.6228                 5.6498                 5.6684
 IR Inten    --     42.6832                41.4194                 5.1117

                     58                     59                     60
                      A                      A                      A
 Frequencies --   3090.8104              3092.8926              3095.5798
 Red. masses --      1.1006                 1.1004                 1.0997
 Frc consts  --      6.1950                 6.2017                 6.2088
 IR Inten    --      4.8548                 3.5745                15.3993

                     61                     62                     63
                      A                      A                      A
 Frequencies --   3099.0788              3104.0716              3108.5382
 Red. masses --      1.0987                 1.0966                 1.0975
 Frc consts  --      6.2172                 6.2251                 6.2482
 IR Inten    --    102.0206                 4.1652                60.8902

                     64                     65                     66
                      A                      A                      A
 Frequencies --   3112.6119              3114.9079              3128.4739
 Red. masses --      1.1001                 1.1006                 1.1004
 Frc consts  --      6.2796                 6.2920                 6.3453
 IR Inten    --     15.6716                30.9193                21.6982

                     67                     68                     69
                      A                      A                      A
 Frequencies --   3136.9696              3481.1022              3556.5211
 Red. masses --      1.1015                 1.0494                 1.0915
 Frc consts  --      6.3866                 7.4924                 8.1344
 IR Inten    --     18.1663                 1.1913                 0.3558

 - Thermochemistry -
 -------------------
 Temperature   298.150 Kelvin.  Pressure   1.00000 Atm.
 Atom     1 has atomic number  6 and mass  12.00000

 Molecular mass:   115.13610 amu.
 Principal axes and moments of inertia in atomic units:
                           1         2         3
     Eigenvalues --   772.379531073.637271080.78939
           X            0.99980   0.01166   0.01631
           Y           -0.00322   0.89639  -0.44325
           Z           -0.01979   0.44311   0.89625
 This molecule is an asymmetric top.
 Rotational symmetry number  1.
 Warning -- assumption of classical behavior for rotation
           may cause significant error
 Rotational temperatures (Kelvin)      0.11214     0.08067     0.08014
 Rotational constants (GHZ):           2.33660     1.68096     1.66984
 Zero-point vibrational energy     611660.7 (Joules/Mol)
                                  146.19042 (Kcal/Mol)
 Warning -- explicit consideration of  17 degrees of freedom as
           vibrations may cause significant error
 Vibrational temperatures:    137.41   295.25   352.84   358.67   384.04
          (Kelvin)            410.34   414.69   432.40   448.49   519.67
                              533.81   545.38   559.35   578.06   687.13
                              698.46   720.45   933.23  1161.92  1242.11
                             1323.31  1335.41  1343.53  1345.24  1380.03
                             1390.73  1455.98  1485.31  1507.90  1572.92
                             1708.19  1740.02  1775.15  1805.74  1832.33
                             1923.45  2000.31  2007.07  2015.34  2033.63
                             2059.89  2124.11  2133.58  2145.21  2150.25
                             2154.21  2165.48  2172.03  2177.82  2187.66
                             2199.03  2382.99  4360.07  4363.17  4364.78
                             4369.28  4378.36  4446.98  4449.98  4453.84
                             4458.88  4466.06  4472.49  4478.35  4481.65
                             4501.17  4513.39  5008.52  5117.03

 Zero-point correction=                           0.232969 (Hartree/Particle)
 Thermal correction to Energy=                    0.243434
 Thermal correction to Enthalpy=                  0.244378
 Thermal correction to Gibbs Free Energy=         0.199541
 Sum of electronic and zero-point Energies=           -331.534132
 Sum of electronic and thermal Energies=              -331.523667
 Sum of electronic and thermal Enthalpies=            -331.522723
 Sum of electronic and thermal Free Energies=         -331.567560

                     E (Thermal)             CV                S
                      KCal/Mol        Cal/Mol-Kelvin    Cal/Mol-Kelvin
 Total                  152.757             41.621             94.368
 Electronic               0.000              0.000              0.000
 Translational            0.889              2.981             40.138
 Rotational               0.889              2.981             28.285
 Vibrational            150.980             35.660             25.945
 Vibration     1          0.603              1.952              3.544
 Vibration     2          0.640              1.832              2.086
 Vibration     3          0.660              1.771              1.765
 Vibration     4          0.662              1.764              1.736
 Vibration     5          0.672              1.734              1.616
 Vibration     6          0.683              1.701              1.502
 Vibration     7          0.685              1.696              1.484
 Vibration     8          0.693              1.673              1.414
 Vibration     9          0.700              1.651              1.353
 Vibration    10          0.735              1.552              1.117
 Vibration    11          0.743              1.532              1.076
 Vibration    12          0.749              1.515              1.043
 Vibration    13          0.757              1.494              1.005
 Vibration    14          0.767              1.466              0.956
 Vibration    15          0.834              1.300              0.717
 Vibration    16          0.842              1.282              0.696
 Vibration    17          0.856              1.248              0.656

 Optimization completed.
    -- Stationary point found.
 Normal termination of Gaussian 09 at Wed Sep  8 05:21:02 2021.

 -----------------------------------------------------------------
 #P Geom=AllCheck Guess=TCheck SCRF=Check CCSD(T,E4T,FrzG4)/GTBas1
 -----------------------------------------------------------------

 Structure from the checkpoint file:  "/public/home/users/caep010/.cache/gau_scr/Gau-175408.chk"
 --------
 Frag_296
 --------
 Charge =  0 Multiplicity = 1

 SCF Done:  E(RHF) =  -329.410670768     A.U. after   11 cycles
 E2 =    -0.1103252468D+01 EUMP2 =    -0.33051392323573D+03
 CCSD(T)
 CCSD(T)= -0.33064284640D+03
 30.6043988\CCSD=-330.6061862\CCSD(T)=-330.6428464\RMSD=4.903e-09\PG=C0
 Normal termination of Gaussian 09 at Wed Sep  8 05:31:48 2021.

 ---------------------------------------------------------
 #P Geom=AllCheck Guess=TCheck SCRF=Check MP4=FrzG4/GTBas2
 ---------------------------------------------------------

 Structure from the checkpoint file:  "/public/home/users/caep010/.cache/gau_scr/Gau-175408.chk"
 --------
 Frag_296
 --------
 Charge =  0 Multiplicity = 1

 SCF Done:  E(RHF) =  -329.416545613     A.U. after   11 cycles
 E2 =    -0.1117850257D+01 EUMP2 =    -0.33053439587057D+03
 Normal termination of Gaussian 09 at Wed Sep  8 05:36:01 2021.

 ---------------------------------------------------------
 #P Geom=AllCheck Guess=TCheck SCRF=Check MP4=FrzG4/GTBas3
 ---------------------------------------------------------

 Structure from the checkpoint file:  "/public/home/users/caep010/.cache/gau_scr/Gau-175408.chk"
 --------
 Frag_296
 --------
 Charge =  0 Multiplicity = 1

 SCF Done:  E(RHF) =  -329.456571310     A.U. after   10 cycles
 E2 =    -0.1379828718D+01 EUMP2 =    -0.33083640002814D+03
 Normal termination of Gaussian 09 at Wed Sep  8 06:14:38 2021.

 -----------------------------------------------------------
 #P Geom=AllCheck Guess=TCheck SCRF=Check MP2=Full/GTLargeXP
 -----------------------------------------------------------

 Structure from the checkpoint file:  "/public/home/users/caep010/.cache/gau_scr/Gau-175408.chk"
 --------
 Frag_296
 --------
 Charge =  0 Multiplicity = 1

 SCF Done:  E(RHF) =  -329.525808904     A.U. after   11 cycles
 E2 =    -0.1810232879D+01 EUMP2 =    -0.33133604178269D+03
 Normal termination of Gaussian 09 at Wed Sep  8 06:24:30 2021.
 SCF Done:  E(RHF) =  -329.551626573     A.U. after    9 cycles
 Normal termination of Gaussian 09 at Wed Sep  8 06:28:35 2021.

                         Standard orientation:
 ---------------------------------------------------------------------
 Center     Atomic      Atomic             Coordinates (Angstroms)
 Number     Number       Type             X           Y           Z
 ---------------------------------------------------------------------
      1          6           0        1.330434    1.338397    0.550577
      2          6           0        0.792169    0.009889   -0.020099
      3          6           0        1.320647   -0.160594   -1.458937
      4          6           0        1.372215   -1.135390    0.838988
      5          6           0       -0.789565   -0.006606    0.025855
      6          6           0       -1.376002   -1.220466   -0.730478
      7          6           0       -1.393209    1.270969   -0.586267
      8          7           0       -1.200910   -0.017068    1.448468
      9          1           0        2.415607    1.276573    0.686453
     10          1           0        1.136153    2.180579   -0.120145
     11          1           0        0.872539    1.553208    1.518946
     12          1           0        1.102066   -1.152842   -1.863857
     13          1           0        2.408975   -0.037237   -1.469805
     14          1           0        0.904564    0.583815   -2.144770
     15          1           0        1.009828   -2.120266    0.527061
     16          1           0        2.463305   -1.151434    0.745958
     17          1           0        1.138801   -0.999004    1.898312
     18          1           0       -2.462550   -1.242173   -0.592263
     19          1           0       -0.979073   -2.169078   -0.355811
     20          1           0       -1.183112   -1.178603   -1.806696
     21          1           0       -2.485057    1.181132   -0.630436
     22          1           0       -1.156379    2.149779    0.016484
     23          1           0       -1.041916    1.441615   -1.606882
     24          1           0       -2.197767    0.174854    1.504996
     25          1           0       -1.079748   -0.948640    1.835356
 ---------------------------------------------------------------------

 SCF Done:  E(RHF) =  -329.557131831     A.U. after    8 cycles

 The electronic state is 1-A.
 Alpha  occ. eigenvalues --  -15.53159 -11.25980 -11.23015 -11.20978 -11.20811
 Alpha  occ. eigenvalues --  -11.20632 -11.20496 -11.19701  -1.18995  -1.07787
 Alpha  occ. eigenvalues --   -0.99979  -0.94054  -0.92282  -0.90836  -0.81513
 Alpha  occ. eigenvalues --   -0.70185  -0.66273  -0.61970  -0.61681  -0.59957
 Alpha  occ. eigenvalues --   -0.58628  -0.55660  -0.54337  -0.53004  -0.52105
 Alpha  occ. eigenvalues --   -0.51807  -0.51053  -0.49954  -0.48777  -0.45385
 Alpha  occ. eigenvalues --   -0.44189  -0.43197  -0.38374
 Alpha virt. eigenvalues --    0.02939   0.03919   0.04065   0.04368   0.05600
 Alpha virt. eigenvalues --    0.06126   0.06521   0.06619   0.06941   0.08784
 Alpha virt. eigenvalues --    0.08924   0.08999   0.09488   0.09577   0.09969

 Mulliken charges:
               1
     1  C   -0.671447
     2  C    0.459836
     3  C   -0.645388
     4  C   -0.666372
     5  C    0.422626
     6  C   -0.623436
     7  C   -0.634172
     8  N   -0.822092
     9  H    0.167402
    10  H    0.163494
    11  H    0.203798
    12  H    0.168449
    13  H    0.174151
    14  H    0.165297
    15  H    0.165724
    16  H    0.171904
    17  H    0.181368
    18  H    0.168672
    19  H    0.169590
    20  H    0.177099
    21  H    0.165509
    22  H    0.183573
    23  H    0.174657
    24  H    0.286183
    25  H    0.293575
 Sum of Mulliken charges =  -0.00000

 Dipole moment (field-independent basis, Debye):
    X=             -0.7424    Y=             -0.8018    Z=             -0.5975  Tot=              1.2454
 Quadrupole moment (field-independent basis, Debye-Ang):
   XX=            -52.6846   YY=            -55.0415   ZZ=            -56.7187
   XY=              0.3551   XZ=             -0.8300   YZ=             -2.1984

 Normal termination of Gaussian 09 at Wed Sep  8 06:56:28 2021.
