 Gaussian 09, Revision E.01,
 Gaussian 09:  ES64L-G09RevE.01 30-Nov-2015

 -----
 #P G4
 -----

 --------
 Frag_466
 --------
 Symbolic Z-matrix:
 Charge =  0 Multiplicity = 1

 SCF Done:  E(RB3LYP) =  -264.408947955     A.U. after   15 cycles
 SCF Done:  E(RB3LYP) =  -264.423166523     A.U. after   13 cycles
 SCF Done:  E(RB3LYP) =  -264.428301801     A.U. after   13 cycles
 SCF Done:  E(RB3LYP) =  -264.430290824     A.U. after   13 cycles
 SCF Done:  E(RB3LYP) =  -264.431177479     A.U. after   13 cycles
 SCF Done:  E(RB3LYP) =  -264.431573994     A.U. after   13 cycles
 SCF Done:  E(RB3LYP) =  -264.431839059     A.U. after   12 cycles
 SCF Done:  E(RB3LYP) =  -264.431963178     A.U. after   13 cycles
 SCF Done:  E(RB3LYP) =  -264.431987015     A.U. after   11 cycles
 SCF Done:  E(RB3LYP) =  -264.431996027     A.U. after   10 cycles
 SCF Done:  E(RB3LYP) =  -264.432008711     A.U. after   11 cycles
 SCF Done:  E(RB3LYP) =  -264.432010367     A.U. after    8 cycles
 SCF Done:  E(RB3LYP) =  -264.432010708     A.U. after    9 cycles
 Optimization completed.
    -- Stationary point found.
 Normal termination of Gaussian 09 at Fri Aug 26 07:23:17 2022.

 ----------------------------------------------------------
 #P Geom=AllCheck Guess=TCheck SCRF=Check B3LYP/GTBas3 Freq
 ----------------------------------------------------------

 Structure from the checkpoint file:  "G4.Frag_466.chk"
 --------
 Frag_466
 --------
 Charge =  0 Multiplicity = 1

 SCF Done:  E(RB3LYP) =  -264.432010708     A.U. after    1 cycles

  Exact polarizability:  72.538  -1.360  41.846   1.590   0.095  25.500
 Approx polarizability: 146.794   0.466  57.536   5.565   0.773  38.020

                      1                      2                      3
                      A                      A                      A
 Frequencies --     78.7957               159.2136               211.1750
 Red. masses --      3.6984                 1.2404                 1.0654
 Frc consts  --      0.0135                 0.0185                 0.0280
 IR Inten    --     23.0373                71.0724                 9.1199

                      4                      5                      6
                      A                      A                      A
 Frequencies --    368.2286               441.5749               497.3325
 Red. masses --      3.4497                 1.3231                 2.3439
 Frc consts  --      0.2756                 0.1520                 0.3416
 IR Inten    --      2.4949                54.3016                 7.9459

                      7                      8                      9
                      A                      A                      A
 Frequencies --    509.7335               617.2542               658.0640
 Red. masses --      1.7615                 4.6205                 1.5653
 Frc consts  --      0.2697                 1.0372                 0.3994
 IR Inten    --     29.4394                16.4449                26.2870

                     10                     11                     12
                      A                      A                      A
 Frequencies --    848.3398               962.5227              1100.8286
 Red. masses --      4.6888                 3.5383                 1.4157
 Frc consts  --      1.9882                 1.9314                 1.0108
 IR Inten    --     18.7238               161.5360                14.5734

                     13                     14                     15
                      A                      A                      A
 Frequencies --   1116.9430              1146.1618              1307.9788
 Red. masses --      2.0884                 1.4149                 1.6890
 Frc consts  --      1.5350                 1.0952                 1.7025
 IR Inten    --     14.2449                 0.5275                25.8470

                     16                     17                     18
                      A                      A                      A
 Frequencies --   1426.3177              1432.7811              1467.8481
 Red. masses --      1.4076                 1.1858                 1.0630
 Frc consts  --      1.6872                 1.4343                 1.3494
 IR Inten    --     61.5167                17.8914                18.0524

                     19                     20                     21
                      A                      A                      A
 Frequencies --   1468.9499              1508.1534              1597.3735
 Red. masses --      1.3142                 1.2821                 4.1799
 Frc consts  --      1.6708                 1.7182                 6.2838
 IR Inten    --     75.4296                 5.8227               101.3912

                     22                     23                     24
                      A                      A                      A
 Frequencies --   3087.2780              3168.7208              3191.3835
 Red. masses --      1.0307                 1.1038                 1.1065
 Frc consts  --      5.7881                 6.5300                 6.6396
 IR Inten    --      8.0405                 3.3134                 4.8215

                     25                     26                     27
                      A                      A                      A
 Frequencies --   3213.0885              3343.0693              3840.1312
 Red. masses --      1.0503                 1.1241                 1.0673
 Frc consts  --      6.3889                 7.4020                 9.2729
 IR Inten    --      4.2208                 0.8322                99.2743

 - Thermochemistry -
 -------------------
 Temperature   298.150 Kelvin.  Pressure   1.00000 Atm.
 Atom     1 has atomic number  6 and mass  12.00000

 Molecular mass:    74.04801 amu.
 Principal axes and moments of inertia in atomic units:
                           1         2         3
     Eigenvalues --   184.00232 397.29711 568.26044
           X            0.99998   0.00475   0.00312
           Y           -0.00474   0.99998  -0.00276
           Z           -0.00314   0.00275   0.99999
 This molecule is an asymmetric top.
 Rotational symmetry number  1.
 Rotational temperatures (Kelvin)      0.47072     0.21801     0.15242
 Rotational constants (GHZ):           9.80825     4.54255     3.17591
 Zero-point vibrational energy     231891.6 (Joules/Mol)
                                   55.42341 (Kcal/Mol)
 Warning -- explicit consideration of   8 degrees of freedom as
           vibrations may cause significant error
 Vibrational temperatures:    113.37   229.07   303.83   529.80   635.33
          (Kelvin)            715.55   733.39   888.09   946.81  1220.57
                             1384.85  1583.84  1607.03  1649.07  1881.89
                             2052.15  2061.45  2111.90  2113.49  2169.89
                             2298.26  4441.90  4559.08  4591.68  4622.91
                             4809.93  5525.09

 Zero-point correction=                           0.088323 (Hartree/Particle)
 Thermal correction to Energy=                    0.094660
 Thermal correction to Enthalpy=                  0.095604
 Thermal correction to Gibbs Free Energy=         0.058965
 Sum of electronic and zero-point Energies=           -264.343688
 Sum of electronic and thermal Energies=              -264.337351
 Sum of electronic and thermal Enthalpies=            -264.336407
 Sum of electronic and thermal Free Energies=         -264.373046

                     E (Thermal)             CV                S
                      KCal/Mol        Cal/Mol-Kelvin    Cal/Mol-Kelvin
 Total                   59.400             21.361             77.114
 Electronic               0.000              0.000              0.000
 Translational            0.889              2.981             38.822
 Rotational               0.889              2.981             25.233
 Vibrational             57.622             15.399             13.058
 Vibration     1          0.600              1.963              3.921
 Vibration     2          0.621              1.892              2.559
 Vibration     3          0.643              1.824              2.033
 Vibration     4          0.741              1.538              1.087
 Vibration     5          0.801              1.379              0.822
 Vibration     6          0.853              1.256              0.665
 Vibration     7          0.865              1.228              0.634
 Vibration     8          0.977              0.995              0.421

 Optimization completed.
    -- Stationary point found.
 Normal termination of Gaussian 09 at Fri Aug 26 07:23:37 2022.

 -----------------------------------------------------------------
 #P Geom=AllCheck Guess=TCheck SCRF=Check CCSD(T,E4T,FrzG4)/GTBas1
 -----------------------------------------------------------------

 Structure from the checkpoint file:  "G4.Frag_466.chk"
 --------
 Frag_466
 --------
 Charge =  0 Multiplicity = 1

 SCF Done:  E(RHF) =  -262.803397705     A.U. after   14 cycles
 E2 =    -0.7918982882D+00 EUMP2 =    -0.26359529599301D+03
 CCSD(T)
 CCSD(T)= -0.26365779916D+03
 87\MP4SDQ=-263.6265731\CCSD=-263.6261362\CCSD(T)=-263.6577992\RMSD=7.0
 Normal termination of Gaussian 09 at Fri Aug 26 07:24:43 2022.

 ---------------------------------------------------------
 #P Geom=AllCheck Guess=TCheck SCRF=Check MP4=FrzG4/GTBas2
 ---------------------------------------------------------

 Structure from the checkpoint file:  "G4.Frag_466.chk"
 --------
 Frag_466
 --------
 Charge =  0 Multiplicity = 1

 SCF Done:  E(RHF) =  -262.814568150     A.U. after   14 cycles
 E2 =    -0.8040872400D+00 EUMP2 =    -0.26361865539024D+03
 Normal termination of Gaussian 09 at Fri Aug 26 07:24:58 2022.

 ---------------------------------------------------------
 #P Geom=AllCheck Guess=TCheck SCRF=Check MP4=FrzG4/GTBas3
 ---------------------------------------------------------

 Structure from the checkpoint file:  "G4.Frag_466.chk"
 --------
 Frag_466
 --------
 Charge =  0 Multiplicity = 1

 SCF Done:  E(RHF) =  -262.837191521     A.U. after   13 cycles
 E2 =    -0.9603385926D+00 EUMP2 =    -0.26379753011397D+03
 Normal termination of Gaussian 09 at Fri Aug 26 07:26:13 2022.

 -----------------------------------------------------------
 #P Geom=AllCheck Guess=TCheck SCRF=Check MP2=Full/GTLargeXP
 -----------------------------------------------------------

 Structure from the checkpoint file:  "G4.Frag_466.chk"
 --------
 Frag_466
 --------
 Charge =  0 Multiplicity = 1

 SCF Done:  E(RHF) =  -262.909171083     A.U. after   14 cycles
 E2 =    -0.1244772732D+01 EUMP2 =    -0.26415394381446D+03
 Normal termination of Gaussian 09 at Fri Aug 26 07:27:04 2022.
 SCF Done:  E(RHF) =  -262.931035164     A.U. after   10 cycles
 Normal termination of Gaussian 09 at Fri Aug 26 07:28:04 2022.

                         Standard orientation:
 ---------------------------------------------------------------------
 Center     Atomic      Atomic             Coordinates (Angstroms)
 Number     Number       Type             X           Y           Z
 ---------------------------------------------------------------------
      1          6           0        1.687473   -0.635122    0.050443
      2          7           0        0.466975   -0.118744   -0.017001
      3          6           0        0.331169    1.353079   -0.017687
      4          7           0       -0.601470   -0.873184   -0.075473
      5          8           0       -1.738831   -0.019388    0.077946
      6          1           0        1.780718   -1.708805    0.084809
      7          1           0        2.529428    0.023559   -0.062957
      8          1           0       -0.182515    1.664738    0.891440
      9          1           0       -0.267614    1.654395   -0.876356
     10          1           0        1.327063    1.787238   -0.061010
     11          1           0       -2.446818   -0.630260   -0.148713
 ---------------------------------------------------------------------

 SCF Done:  E(RHF) =  -262.935497582     A.U. after    8 cycles

 The electronic state is 1-A.
 Alpha  occ. eigenvalues --  -20.57457 -15.70983 -15.59689 -11.28329 -11.25504
 Alpha  occ. eigenvalues --   -1.43030  -1.31007  -1.04706  -0.99614  -0.79048
 Alpha  occ. eigenvalues --   -0.71007  -0.69105  -0.66820  -0.62954  -0.58912
 Alpha  occ. eigenvalues --   -0.56415  -0.55470  -0.49817  -0.44240  -0.27040
 Alpha virt. eigenvalues --    0.03638   0.04269   0.04832   0.05702   0.07061
 Alpha virt. eigenvalues --    0.07444   0.07827   0.09238   0.11346   0.11995
 Alpha virt. eigenvalues --    0.12625   0.14741   0.15045   0.16125   0.16461

 Mulliken charges:
               1
     1  C   -0.475235
     2  N    0.260730
     3  C   -0.450546
     4  N   -0.288152
     5  O   -0.529171
     6  H    0.212990
     7  H    0.208786
     8  H    0.232847
     9  H    0.225292
    10  H    0.204168
    11  H    0.398291
 Sum of Mulliken charges =  -0.00000

 Dipole moment (field-independent basis, Debye):
    X=              1.1409    Y=              1.8988    Z=             -0.4033  Tot=              2.2516
 Quadrupole moment (field-independent basis, Debye-Ang):
   XX=            -26.1416   YY=            -29.3666   ZZ=            -32.9069
   XY=              1.7962   XZ=              0.6811   YZ=             -0.0867

 Normal termination of Gaussian 09 at Fri Aug 26 07:33:30 2022.
