 Gaussian 09, Revision E.01,
 Gaussian 09:  ES64L-G09RevE.01 30-Nov-2015

 -----
 #P G4
 -----

 --------
 Frag_937
 --------
 Symbolic Z-matrix:
 Charge =  0 Multiplicity = 1

 SCF Done:  E(RB3LYP) =  -359.215227732     A.U. after   14 cycles
 SCF Done:  E(RB3LYP) =  -359.233886153     A.U. after   11 cycles
 SCF Done:  E(RB3LYP) =  -359.238181948     A.U. after   12 cycles
 SCF Done:  E(RB3LYP) =  -359.241061306     A.U. after   11 cycles
 SCF Done:  E(RB3LYP) =  -359.242300741     A.U. after   11 cycles
 SCF Done:  E(RB3LYP) =  -359.242674516     A.U. after   11 cycles
 SCF Done:  E(RB3LYP) =  -359.242892847     A.U. after   11 cycles
 SCF Done:  E(RB3LYP) =  -359.243000021     A.U. after   11 cycles
 SCF Done:  E(RB3LYP) =  -359.243056478     A.U. after   11 cycles
 SCF Done:  E(RB3LYP) =  -359.243084209     A.U. after   10 cycles
 SCF Done:  E(RB3LYP) =  -359.243099718     A.U. after    8 cycles
 SCF Done:  E(RB3LYP) =  -359.243111826     A.U. after    9 cycles
 Optimization completed.
    -- Stationary point found.
 Normal termination of Gaussian 09 at Fri Aug 26 09:15:09 2022.

 ----------------------------------------------------------
 #P Geom=AllCheck Guess=TCheck SCRF=Check B3LYP/GTBas3 Freq
 ----------------------------------------------------------

 Structure from the checkpoint file:  "G4.Frag_937.chk"
 --------
 Frag_937
 --------
 Charge =  0 Multiplicity = 1

 SCF Done:  E(RB3LYP) =  -359.243111826     A.U. after    1 cycles

  Exact polarizability:  64.128  -0.328  62.727  -0.225   0.148  46.391
 Approx polarizability:  85.166  -3.240 101.808  -2.179   0.460  65.681

                      1                      2                      3
                      A                      A                      A
 Frequencies --     73.7964               242.6779               250.8809
 Red. masses --      5.1269                 2.3359                 1.1213
 Frc consts  --      0.0165                 0.0811                 0.0416
 IR Inten    --      4.0353                 1.9516                 1.4909

                      4                      5                      6
                      A                      A                      A
 Frequencies --    291.6474               319.1444               360.7561
 Red. masses --      1.5098                 2.5000                 2.0265
 Frc consts  --      0.0757                 0.1500                 0.1554
 IR Inten    --     10.6841                18.0786                 4.7587

                      7                      8                      9
                      A                      A                      A
 Frequencies --    396.8866               409.0553               458.0964
 Red. masses --      3.3291                 1.5267                 1.1925
 Frc consts  --      0.3090                 0.1505                 0.1474
 IR Inten    --     13.9065               129.7023                65.1800

                     10                     11                     12
                      A                      A                      A
 Frequencies --    498.7439               529.9205               561.8662
 Red. masses --      1.9538                 2.7340                 2.5093
 Frc consts  --      0.2863                 0.4523                 0.4667
 IR Inten    --     27.7269                 4.2556                20.4437

                     13                     14                     15
                      A                      A                      A
 Frequencies --    603.7966               716.7547               725.9835
 Red. masses --      1.2646                 3.3107                 3.3870
 Frc consts  --      0.2716                 1.0021                 1.0518
 IR Inten    --    103.1774                 1.9627                 5.2673

                     16                     17                     18
                      A                      A                      A
 Frequencies --    853.3807               871.6926               909.4904
 Red. masses --      1.4612                 1.5214                 2.4015
 Frc consts  --      0.6270                 0.6811                 1.1704
 IR Inten    --     87.2884               114.5426                11.8723

                     19                     20                     21
                      A                      A                      A
 Frequencies --    983.7202              1048.8879              1097.7945
 Red. masses --      1.4771                 1.9262                 1.5881
 Frc consts  --      0.8422                 1.2486                 1.1277
 IR Inten    --     44.2395                63.0074                 7.2144

                     22                     23                     24
                      A                      A                      A
 Frequencies --   1114.2391              1133.2280              1219.4093
 Red. masses --      1.5869                 1.8158                 2.9220
 Frc consts  --      1.1608                 1.3739                 2.5599
 IR Inten    --     64.5742                51.3638                45.6346

                     25                     26                     27
                      A                      A                      A
 Frequencies --   1334.1095              1361.1005              1398.1193
 Red. masses --      1.5713                 1.5105                 1.3983
 Frc consts  --      1.6477                 1.6487                 1.6104
 IR Inten    --     31.2008                81.6580                24.5539

                     28                     29                     30
                      A                      A                      A
 Frequencies --   1430.4574              1481.0234              1498.3122
 Red. masses --      2.3065                 1.0562                 1.0885
 Frc consts  --      2.7807                 1.3649                 1.4397
 IR Inten    --     52.6291                 0.9683                 1.1474

                     31                     32                     33
                      A                      A                      A
 Frequencies --   1609.8078              1641.3622              1729.4334
 Red. masses --      1.2235                 1.1340                 6.1188
 Frc consts  --      1.8681                 1.8000                10.7826
 IR Inten    --     64.5825               128.4083               152.4629

                     34                     35                     36
                      A                      A                      A
 Frequencies --   3042.7486              3118.4737              3134.5582
 Red. masses --      1.0348                 1.1011                 1.1028
 Frc consts  --      5.6446                 6.3088                 6.3843
 IR Inten    --     13.8399                19.9485                13.8418

                     37                     38                     39
                      A                      A                      A
 Frequencies --   3452.7495              3485.4608              3569.5204
 Red. masses --      1.0745                 1.0502                 1.0453
 Frc consts  --      7.5474                 7.5168                 7.8473
 IR Inten    --      9.4825                29.1045                39.6200

                     40                     41                     42
                      A                      A                      A
 Frequencies --   3579.4066              3694.7034              3785.7935
 Red. masses --      1.0919                 1.1011                 1.0649
 Frc consts  --      8.2423                 8.8558                 8.9926
 IR Inten    --     14.9745                42.9773                37.7472

 - Thermochemistry -
 -------------------
 Temperature   298.150 Kelvin.  Pressure   1.00000 Atm.
 Atom     1 has atomic number  6 and mass  12.00000

 Molecular mass:   103.07456 amu.
 Principal axes and moments of inertia in atomic units:
                           1         2         3
     Eigenvalues --   531.45249 735.56773 891.26514
           X            0.99746   0.06215   0.03490
           Y           -0.06205   0.99807  -0.00383
           Z           -0.03507   0.00166   0.99938
 This molecule is an asymmetric top.
 Rotational symmetry number  1.
 Warning -- assumption of classical behavior for rotation
           may cause significant error
 Rotational temperatures (Kelvin)      0.16298     0.11775     0.09718
 Rotational constants (GHZ):           3.39587     2.45354     2.02492
 Zero-point vibrational energy     358993.3 (Joules/Mol)
                                   85.80145 (Kcal/Mol)
 Warning -- explicit consideration of  13 degrees of freedom as
           vibrations may cause significant error
 Vibrational temperatures:    106.18   349.16   360.96   419.61   459.18
          (Kelvin)            519.05   571.03   588.54   659.10   717.58
                              762.44   808.40   868.73  1031.25  1044.53
                             1227.82  1254.17  1308.55  1415.35  1509.11
                             1579.48  1603.14  1630.46  1754.46  1919.48
                             1958.32  2011.58  2058.11  2130.86  2155.73
                             2316.15  2361.55  2488.27  4377.83  4486.78
                             4509.92  4967.73  5014.79  5135.74  5149.96
                             5315.85  5446.91

 Zero-point correction=                           0.136733 (Hartree/Particle)
 Thermal correction to Energy=                    0.144741
 Thermal correction to Enthalpy=                  0.145685
 Thermal correction to Gibbs Free Energy=         0.105283
 Sum of electronic and zero-point Energies=           -359.106379
 Sum of electronic and thermal Energies=              -359.098371
 Sum of electronic and thermal Enthalpies=            -359.097427
 Sum of electronic and thermal Free Energies=         -359.137828

                     E (Thermal)             CV                S
                      KCal/Mol        Cal/Mol-Kelvin    Cal/Mol-Kelvin
 Total                   90.826             30.816             85.032
 Electronic               0.000              0.000              0.000
 Translational            0.889              2.981             39.808
 Rotational               0.889              2.981             27.346
 Vibrational             89.049             24.855             17.877
 Vibration     1          0.599              1.966              4.049
 Vibration     2          0.659              1.775              1.783
 Vibration     3          0.663              1.761              1.724
 Vibration     4          0.687              1.689              1.464
 Vibration     5          0.705              1.637              1.314
 Vibration     6          0.735              1.553              1.119
 Vibration     7          0.763              1.477              0.974
 Vibration     8          0.773              1.451              0.930
 Vibration     9          0.816              1.343              0.772
 Vibration    10          0.854              1.253              0.661
 Vibration    11          0.885              1.184              0.587
 Vibration    12          0.918              1.114              0.520
 Vibration    13          0.962              1.024              0.443

 Normal termination of Gaussian 09 at Fri Aug 26 09:15:57 2022.

 -----------------------------------------------------------------
 #P Geom=AllCheck Guess=TCheck SCRF=Check CCSD(T,E4T,FrzG4)/GTBas1
 -----------------------------------------------------------------

 Structure from the checkpoint file:  "G4.Frag_937.chk"
 --------
 Frag_937
 --------
 Charge =  0 Multiplicity = 1

 SCF Done:  E(RHF) =  -357.037223373     A.U. after   13 cycles
 E2 =    -0.1060178484D+01 EUMP2 =    -0.35809740185696D+03
 CCSD(T)
 CCSD(T)= -0.35818224346D+03
 =-358.1833835\MP4SDQ=-358.1487035\CCSD=-358.1486713\CCSD(T)=-358.18224
 Normal termination of Gaussian 09 at Fri Aug 26 09:20:13 2022.

 ---------------------------------------------------------
 #P Geom=AllCheck Guess=TCheck SCRF=Check MP4=FrzG4/GTBas2
 ---------------------------------------------------------

 Structure from the checkpoint file:  "G4.Frag_937.chk"
 --------
 Frag_937
 --------
 Charge =  0 Multiplicity = 1

 SCF Done:  E(RHF) =  -357.051218467     A.U. after   13 cycles
 E2 =    -0.1079096942D+01 EUMP2 =    -0.35813031540929D+03
 Normal termination of Gaussian 09 at Fri Aug 26 09:21:35 2022.

 ---------------------------------------------------------
 #P Geom=AllCheck Guess=TCheck SCRF=Check MP4=FrzG4/GTBas3
 ---------------------------------------------------------

 Structure from the checkpoint file:  "G4.Frag_937.chk"
 --------
 Frag_937
 --------
 Charge =  0 Multiplicity = 1

 SCF Done:  E(RHF) =  -357.089694174     A.U. after   11 cycles
 E2 =    -0.1295462123D+01 EUMP2 =    -0.35838515629776D+03
 Normal termination of Gaussian 09 at Fri Aug 26 09:31:16 2022.

 -----------------------------------------------------------
 #P Geom=AllCheck Guess=TCheck SCRF=Check MP2=Full/GTLargeXP
 -----------------------------------------------------------

 Structure from the checkpoint file:  "G4.Frag_937.chk"
 --------
 Frag_937
 --------
 Charge =  0 Multiplicity = 1

 SCF Done:  E(RHF) =  -357.185434427     A.U. after   13 cycles
 E2 =    -0.1691871139D+01 EUMP2 =    -0.35887730556654D+03
 Normal termination of Gaussian 09 at Fri Aug 26 09:35:11 2022.
 SCF Done:  E(RHF) =  -357.213120326     A.U. after    8 cycles
 Normal termination of Gaussian 09 at Fri Aug 26 09:38:27 2022.

                         Standard orientation:
 ---------------------------------------------------------------------
 Center     Atomic      Atomic             Coordinates (Angstroms)
 Number     Number       Type             X           Y           Z
 ---------------------------------------------------------------------
      1          6           0        1.123235   -0.173488    1.390489
      2          6           0        0.591676   -0.003613   -0.038802
      3          7           0        1.135533    1.131131   -0.751059
      4          8           0        0.939659   -1.206838   -0.738337
      5          6           0       -0.947367    0.143752    0.004776
      6          7           0       -1.446182    1.318419    0.085655
      7          7           0       -1.596357   -1.061318    0.030469
      8          1           0        0.716427   -1.076387    1.853201
      9          1           0        0.843711    0.691098    1.997129
     10          1           0        2.213631   -0.264551    1.361869
     11          1           0        0.483334    1.906962   -0.663854
     12          1           0        2.031603    1.407545   -0.365321
     13          1           0        1.067765   -0.918900   -1.650783
     14          1           0       -2.465835    1.300389    0.137955
     15          1           0       -1.070813   -1.836804   -0.346064
     16          1           0       -2.593309   -1.072181   -0.111674
 ---------------------------------------------------------------------

 SCF Done:  E(RHF) =  -357.219132963     A.U. after    8 cycles

 The electronic state is 1-A.
 Alpha  occ. eigenvalues --  -20.55946 -15.57504 -15.54185 -15.52514 -11.32671
 Alpha  occ. eigenvalues --  -11.31728 -11.22029  -1.38088  -1.26275  -1.18386
 Alpha  occ. eigenvalues --   -1.13765  -0.99885  -0.87851  -0.76345  -0.72502
 Alpha  occ. eigenvalues --   -0.71961  -0.67760  -0.64767  -0.61542  -0.58577
 Alpha  occ. eigenvalues --   -0.55880  -0.53609  -0.52878  -0.50739  -0.47700
 Alpha  occ. eigenvalues --   -0.42991  -0.40396  -0.37483
 Alpha virt. eigenvalues --    0.03274   0.04137   0.04881   0.05243   0.06815
 Alpha virt. eigenvalues --    0.07015   0.07209   0.07651   0.08130   0.09827
 Alpha virt. eigenvalues --    0.11661   0.11725   0.12423   0.12831   0.13333

 Mulliken charges:
               1
     1  C   -0.564128
     2  C    0.513595
     3  N   -0.785203
     4  O   -0.637530
     5  C    0.410041
     6  N   -0.730760
     7  N   -0.727711
     8  H    0.185547
     9  H    0.196058
    10  H    0.169869
    11  H    0.350034
    12  H    0.296131
    13  H    0.398444
    14  H    0.255650
    15  H    0.359632
    16  H    0.310333
 Sum of Mulliken charges =  -0.00000

 Dipole moment (field-independent basis, Debye):
    X=             -0.8554    Y=             -1.1296    Z=             -0.0612  Tot=              1.4183
 Quadrupole moment (field-independent basis, Debye-Ang):
   XX=            -35.9145   YY=            -46.2170   ZZ=            -44.0761
   XY=              5.5320   XZ=              2.2497   YZ=              1.9693

 Normal termination of Gaussian 09 at Fri Aug 26 09:50:04 2022.
