 Gaussian 09, Revision E.01,
 Gaussian 09:  ES64L-G09RevE.01 30-Nov-2015

 -----
 #P G4
 -----

 --------
 Frag_544
 --------
 Symbolic Z-matrix:
 Charge =  0 Multiplicity = 1

 SCF Done:  E(RB3LYP) =  -251.917194891     A.U. after   13 cycles
 SCF Done:  E(RB3LYP) =  -251.921722213     A.U. after   10 cycles
 SCF Done:  E(RB3LYP) =  -251.921858344     A.U. after   10 cycles
 SCF Done:  E(RB3LYP) =  -251.921878306     A.U. after    9 cycles
 SCF Done:  E(RB3LYP) =  -251.921911325     A.U. after    8 cycles
 SCF Done:  E(RB3LYP) =  -251.921912321     A.U. after    7 cycles
 SCF Done:  E(RB3LYP) =  -251.921912450     A.U. after    7 cycles
 SCF Done:  E(RB3LYP) =  -251.921908463     A.U. after    8 cycles
 SCF Done:  E(RB3LYP) =  -251.921891272     A.U. after    7 cycles
 SCF Done:  E(RB3LYP) =  -251.921912095     A.U. after    9 cycles
 SCF Done:  E(RB3LYP) =  -251.921912471     A.U. after    7 cycles
 SCF Done:  E(RB3LYP) =  -251.920460257     A.U. after   11 cycles
 SCF Done:  E(RB3LYP) =  -251.921912271     A.U. after    7 cycles
 Optimization completed.
    -- Stationary point found.
 Normal termination of Gaussian 09 at Wed Sep  7 11:07:27 2022.

 ----------------------------------------------------------
 #P Geom=AllCheck Guess=TCheck SCRF=Check B3LYP/GTBas3 Freq
 ----------------------------------------------------------

 Structure from the checkpoint file:  "G4.Frag_544.chk"
 --------
 Frag_544
 --------
 Charge =  0 Multiplicity = 1

 SCF Done:  E(RB3LYP) =  -251.921912271     A.U. after    1 cycles

  Exact polarizability:  66.296  -2.025  58.580   2.027  -5.170  58.508
 Approx polarizability:  91.614  -6.599  84.505   6.663 -10.970  84.792

                      1                      2                      3
                      A                      A                      A
 Frequencies --     22.7923               171.3667               209.2940
 Red. masses --      2.4808                 1.0906                 1.5002
 Frc consts  --      0.0008                 0.0189                 0.0387
 IR Inten    --      0.9425                 0.0638                 0.4147

                      4                      5                      6
                      A                      A                      A
 Frequencies --    249.5436               260.8592               279.9620
 Red. masses --      1.0439                 1.5526                 2.5803
 Frc consts  --      0.0383                 0.0622                 0.1192
 IR Inten    --      0.2133                 0.6662                 0.4180

                      7                      8                      9
                      A                      A                      A
 Frequencies --    330.3477               489.3760               523.2662
 Red. masses --      2.3596                 2.4910                 2.8603
 Frc consts  --      0.1517                 0.3515                 0.4614
 IR Inten    --      0.6482                10.0201                 2.9027

                     10                     11                     12
                      A                      A                      A
 Frequencies --    580.8143               730.6480               903.8656
 Red. masses --      2.2115                 2.8806                 2.2037
 Frc consts  --      0.4395                 0.9060                 1.0608
 IR Inten    --      4.5644                 3.1755                 7.5861

                     13                     14                     15
                      A                      A                      A
 Frequencies --    905.3644               933.8525               962.3399
 Red. masses --      1.3696                 1.1845                 1.6849
 Frc consts  --      0.6614                 0.6086                 0.9194
 IR Inten    --     28.1873                 8.2656                 9.3718

                     16                     17                     18
                      A                      A                      A
 Frequencies --    969.6777              1077.8484              1088.2527
 Red. masses --      1.5109                 1.4054                 1.5552
 Frc consts  --      0.8370                 0.9620                 1.0851
 IR Inten    --      0.4135                 6.5932                11.5857

                     19                     20                     21
                      A                      A                      A
 Frequencies --   1127.2288              1153.6901              1195.5627
 Red. masses --      2.3400                 1.4820                 1.8453
 Frc consts  --      1.7518                 1.1622                 1.5541
 IR Inten    --      0.1346                28.8667                 7.3573

                     22                     23                     24
                      A                      A                      A
 Frequencies --   1338.9596              1340.9839              1365.5490
 Red. masses --      1.6621                 1.3495                 1.2936
 Frc consts  --      1.7556                 1.4298                 1.4212
 IR Inten    --      4.6064                 2.1540                46.8831

                     25                     26                     27
                      A                      A                      A
 Frequencies --   1395.4753              1412.8011              1423.8570
 Red. masses --      1.2126                 1.3498                 1.3952
 Frc consts  --      1.3912                 1.5874                 1.6665
 IR Inten    --      1.7768                20.5699                37.4440

                     28                     29                     30
                      A                      A                      A
 Frequencies --   1473.0172              1479.7945              1488.6083
 Red. masses --      1.0596                 1.0471                 1.0418
 Frc consts  --      1.3546                 1.3510                 1.3602
 IR Inten    --      5.2771                 6.8548                 1.0182

                     31                     32                     33
                      A                      A                      A
 Frequencies --   1498.4441              1504.3184              1511.1468
 Red. masses --      1.0486                 1.0436                 1.0579
 Frc consts  --      1.3873                 1.3914                 1.4233
 IR Inten    --      0.5518                 6.4182                 9.1783

                     34                     35                     36
                      A                      A                      A
 Frequencies --   1719.3779              3014.0580              3032.4253
 Red. masses --      8.0718                 1.0837                 1.0343
 Frc consts  --     14.0592                 5.8003                 5.6038
 IR Inten    --     62.2778                20.0892                22.6771

                     37                     38                     39
                      A                      A                      A
 Frequencies --   3034.8175              3040.1883              3091.3208
 Red. masses --      1.0356                 1.0376                 1.0987
 Frc consts  --      5.6195                 5.6503                 6.1863
 IR Inten    --      7.6634                16.1594                16.8344

                     40                     41                     42
                      A                      A                      A
 Frequencies --   3101.8855              3105.2786              3107.4085
 Red. masses --      1.1009                 1.1012                 1.1023
 Frc consts  --      6.2410                 6.2562                 6.2709
 IR Inten    --      5.2671                47.8668                13.9336

                     43                     44                     45
                      A                      A                      A
 Frequencies --   3110.1606              3149.7689              3406.1636
 Red. masses --      1.1014                 1.0998                 1.0734
 Frc consts  --      6.2769                 6.4289                 7.3377
 IR Inten    --     38.6893                 9.1609                 7.7869

 - Thermochemistry -
 -------------------
 Temperature   298.150 Kelvin.  Pressure   1.00000 Atm.
 Atom     1 has atomic number  6 and mass  12.00000

 Molecular mass:    85.08915 amu.
 Principal axes and moments of inertia in atomic units:
                           1         2         3
     Eigenvalues --   402.41031 718.34042 725.38258
           X            0.99932   0.02486  -0.02731
           Y           -0.02625   0.99831  -0.05181
           Z            0.02598   0.05249   0.99828
 This molecule is an asymmetric top.
 Rotational symmetry number  1.
 Rotational temperatures (Kelvin)      0.21524     0.12057     0.11940
 Rotational constants (GHZ):           4.48483     2.51238     2.48799
 Zero-point vibrational energy     402613.7 (Joules/Mol)
                                   96.22699 (Kcal/Mol)
 Warning -- explicit consideration of  10 degrees of freedom as
           vibrations may cause significant error
 Vibrational temperatures:     32.79   246.56   301.13   359.04   375.32
          (Kelvin)            402.80   475.30   704.10   752.86   835.66
                             1051.24  1300.46  1302.62  1343.60  1384.59
                             1395.15  1550.78  1565.75  1621.83  1659.90
                             1720.15  1926.46  1929.37  1964.72  2007.78
                             2032.70  2048.61  2119.34  2129.09  2141.77
                             2155.92  2164.38  2174.20  2473.80  4336.55
                             4362.98  4366.42  4374.15  4447.72  4462.92
                             4467.80  4470.86  4474.82  4531.81  4900.70

 Zero-point correction=                           0.153347 (Hartree/Particle)
 Thermal correction to Energy=                    0.161158
 Thermal correction to Enthalpy=                  0.162102
 Thermal correction to Gibbs Free Energy=         0.121128
 Sum of electronic and zero-point Energies=           -251.768565
 Sum of electronic and thermal Energies=              -251.760755
 Sum of electronic and thermal Enthalpies=            -251.759810
 Sum of electronic and thermal Free Energies=         -251.800784

                     E (Thermal)             CV                S
                      KCal/Mol        Cal/Mol-Kelvin    Cal/Mol-Kelvin
 Total                  101.128             27.550             86.237
 Electronic               0.000              0.000              0.000
 Translational            0.889              2.981             39.237
 Rotational               0.889              2.981             26.841
 Vibrational             99.351             21.588             20.159
 Vibration     1          0.593              1.985              6.375
 Vibration     2          0.626              1.878              2.420
 Vibration     3          0.642              1.827              2.050
 Vibration     4          0.662              1.764              1.734
 Vibration     5          0.669              1.744              1.656
 Vibration     6          0.680              1.711              1.534
 Vibration     7          0.713              1.615              1.258
 Vibration     8          0.845              1.274              0.685
 Vibration     9          0.878              1.198              0.602
 Vibration    10          0.938              1.073              0.484

 Normal termination of Gaussian 09 at Wed Sep  7 11:08:08 2022.

 -----------------------------------------------------------------
 #P Geom=AllCheck Guess=TCheck SCRF=Check CCSD(T,E4T,FrzG4)/GTBas1
 -----------------------------------------------------------------

 Structure from the checkpoint file:  "G4.Frag_544.chk"
 --------
 Frag_544
 --------
 Charge =  0 Multiplicity = 1

 SCF Done:  E(RHF) =  -250.180977883     A.U. after   12 cycles
 E2 =    -0.8157553762D+00 EUMP2 =    -0.25099673325871D+03
 CCSD(T)
 CCSD(T)= -0.25109023125D+03
 048\CCSD=-251.0616679\CCSD(T)=-251.0902313\RMSD=4.080e-09\PG=C01 [X(C5
 Normal termination of Gaussian 09 at Wed Sep  7 11:10:38 2022.

 ---------------------------------------------------------
 #P Geom=AllCheck Guess=TCheck SCRF=Check MP4=FrzG4/GTBas2
 ---------------------------------------------------------

 Structure from the checkpoint file:  "G4.Frag_544.chk"
 --------
 Frag_544
 --------
 Charge =  0 Multiplicity = 1

 SCF Done:  E(RHF) =  -250.186716752     A.U. after   13 cycles
 E2 =    -0.8250356816D+00 EUMP2 =    -0.25101175243396D+03
 Normal termination of Gaussian 09 at Wed Sep  7 11:11:24 2022.

 ---------------------------------------------------------
 #P Geom=AllCheck Guess=TCheck SCRF=Check MP4=FrzG4/GTBas3
 ---------------------------------------------------------

 Structure from the checkpoint file:  "G4.Frag_544.chk"
 --------
 Frag_544
 --------
 Charge =  0 Multiplicity = 1

 SCF Done:  E(RHF) =  -250.214069282     A.U. after   11 cycles
 E2 =    -0.1007515051D+01 EUMP2 =    -0.25122158433312D+03
 Normal termination of Gaussian 09 at Wed Sep  7 11:16:18 2022.

 -----------------------------------------------------------
 #P Geom=AllCheck Guess=TCheck SCRF=Check MP2=Full/GTLargeXP
 -----------------------------------------------------------

 Structure from the checkpoint file:  "G4.Frag_544.chk"
 --------
 Frag_544
 --------
 Charge =  0 Multiplicity = 1

 SCF Done:  E(RHF) =  -250.269313188     A.U. after   12 cycles
 E2 =    -0.1327373579D+01 EUMP2 =    -0.25159668676747D+03
 Normal termination of Gaussian 09 at Wed Sep  7 11:18:45 2022.
 SCF Done:  E(RHF) =  -250.288924590     A.U. after    8 cycles
 Normal termination of Gaussian 09 at Wed Sep  7 11:21:24 2022.

                         Standard orientation:
 ---------------------------------------------------------------------
 Center     Atomic      Atomic             Coordinates (Angstroms)
 Number     Number       Type             X           Y           Z
 ---------------------------------------------------------------------
      1          6           0        1.276392    0.895301   -0.909982
      2          6           0        0.833407   -0.115946    0.121707
      3          7           0        1.735167   -0.750414    0.761139
      4          6           0       -0.666398   -0.314745    0.331917
      5          6           0       -1.353578   -0.871564   -0.928070
      6          6           0       -1.358918    0.973175    0.813016
      7          1           0        0.912542    1.898924   -0.663268
      8          1           0        0.882659    0.650482   -1.902606
      9          1           0        2.365726    0.913542   -0.953771
     10          1           0        1.308612   -1.400854    1.428179
     11          1           0       -0.767057   -1.065615    1.126717
     12          1           0       -2.402130   -1.104558   -0.716354
     13          1           0       -0.866894   -1.787689   -1.276435
     14          1           0       -1.337336   -0.146133   -1.747813
     15          1           0       -0.873578    1.378719    1.706171
     16          1           0       -1.348024    1.748261    0.039906
     17          1           0       -2.406119    0.770494    1.059768
 ---------------------------------------------------------------------

 SCF Done:  E(RHF) =  -250.293011506     A.U. after    8 cycles

 The electronic state is 1-A.
 Alpha  occ. eigenvalues --  -15.53545 -11.27922 -11.24438 -11.22610 -11.22607
 Alpha  occ. eigenvalues --  -11.22039  -1.20845  -1.07325  -0.97794  -0.94125
 Alpha  occ. eigenvalues --   -0.84228  -0.73468  -0.66799  -0.62034  -0.59259
 Alpha  occ. eigenvalues --   -0.56601  -0.56000  -0.55526  -0.53709  -0.52170
 Alpha  occ. eigenvalues --   -0.49447  -0.47942  -0.41091  -0.40225
 Alpha virt. eigenvalues --    0.03157   0.04101   0.04118   0.04690   0.06077
 Alpha virt. eigenvalues --    0.06970   0.07053   0.07367   0.07504   0.09704
 Alpha virt. eigenvalues --    0.09806   0.09867   0.10534   0.11005   0.11279

 Mulliken charges:
               1
     1  C   -0.551160
     2  C    0.296319
     3  N   -0.651453
     4  C   -0.001271
     5  C   -0.547942
     6  C   -0.549830
     7  H    0.179772
     8  H    0.179279
     9  H    0.209167
    10  H    0.269353
    11  H    0.145472
    12  H    0.169858
    13  H    0.177220
    14  H    0.163573
    15  H    0.177084
    16  H    0.164233
    17  H    0.170325
 Sum of Mulliken charges =  -0.00000

 Dipole moment (field-independent basis, Debye):
    X=             -2.7132    Y=              0.4739    Z=             -0.4641  Tot=              2.7931
 Quadrupole moment (field-independent basis, Debye-Ang):
   XX=            -46.3083   YY=            -38.7044   ZZ=            -38.6307
   XY=              2.2748   XZ=             -2.2943   YZ=             -1.3247

 Normal termination of Gaussian 09 at Wed Sep  7 11:30:28 2022.
