 Gaussian 09, Revision E.01,
 Gaussian 09:  ES64L-G09RevE.01 30-Nov-2015

 -----
 #P G4
 -----

 --------
 Frag_834
 --------
 Symbolic Z-matrix:
 Charge =  0 Multiplicity = 1

 SCF Done:  E(RB3LYP) =  -454.746736526     A.U. after   14 cycles
 SCF Done:  E(RB3LYP) =  -454.767970353     A.U. after   12 cycles
 SCF Done:  E(RB3LYP) =  -454.771049267     A.U. after   12 cycles
 SCF Done:  E(RB3LYP) =  -454.773488804     A.U. after   12 cycles
 SCF Done:  E(RB3LYP) =  -454.776537110     A.U. after   13 cycles
 SCF Done:  E(RB3LYP) =  -454.779071213     A.U. after   12 cycles
 SCF Done:  E(RB3LYP) =  -454.779578158     A.U. after   12 cycles
 SCF Done:  E(RB3LYP) =  -454.779993034     A.U. after   12 cycles
 SCF Done:  E(RB3LYP) =  -454.780290489     A.U. after   11 cycles
 SCF Done:  E(RB3LYP) =  -454.780380536     A.U. after   11 cycles
 SCF Done:  E(RB3LYP) =  -454.783505264     A.U. after    7 cycles
 SCF Done:  E(RB3LYP) =  -454.783505420     A.U. after    7 cycles
 SCF Done:  E(RB3LYP) =  -454.783505450     A.U. after    7 cycles
 Optimization completed.
    -- Stationary point found.
 Normal termination of Gaussian 09 at Tue Aug 23 10:35:43 2022.

 ----------------------------------------------------------
 #P Geom=AllCheck Guess=TCheck SCRF=Check B3LYP/GTBas3 Freq
 ----------------------------------------------------------

 Structure from the checkpoint file:  "G4.Frag_834.chk"
 --------
 Frag_834
 --------
 Charge =  0 Multiplicity = 1

 SCF Done:  E(RB3LYP) =  -454.783505450     A.U. after    1 cycles

  Exact polarizability:  40.255  -1.663  42.925   0.011  -0.116  32.931
 Approx polarizability:  55.585  -4.789  69.205  -1.314  -0.622  48.105

                      1                      2                      3
                      A                      A                      A
 Frequencies --     49.2619               236.7140               249.6390
 Red. masses --      7.4573                 1.4180                 2.6364
 Frc consts  --      0.0107                 0.0468                 0.0968
 IR Inten    --      4.5811                60.1035                23.4965

                      4                      5                      6
                      A                      A                      A
 Frequencies --    260.8567               356.4793               379.7350
 Red. masses --      5.1401                 1.5062                 4.0645
 Frc consts  --      0.2061                 0.1128                 0.3453
 IR Inten    --     19.4689                62.3709                 2.7916

                      7                      8                      9
                      A                      A                      A
 Frequencies --    453.6545               491.9081               537.4342
 Red. masses --      2.6543                 4.1712                 1.3919
 Frc consts  --      0.3219                 0.5947                 0.2369
 IR Inten    --     32.0643                71.7810                34.9226

                     10                     11                     12
                      A                      A                      A
 Frequencies --    601.4074               619.8298               669.0570
 Red. masses --      1.4980                 3.1814                 4.3996
 Frc consts  --      0.3192                 0.7201                 1.1603
 IR Inten    --     82.8768                27.3179                29.3473

                     13                     14                     15
                      A                      A                      A
 Frequencies --    780.8073               801.2107              1007.4655
 Red. masses --      8.7311                 8.1723                 3.2011
 Frc consts  --      3.1362                 3.0909                 1.9143
 IR Inten    --     26.0142                 3.9409                60.7476

                     16                     17                     18
                      A                      A                      A
 Frequencies --   1081.2751              1147.1281              1230.0082
 Red. masses --      2.7642                 4.6026                 2.1581
 Frc consts  --      1.9041                 3.5684                 1.9237
 IR Inten    --    226.2720               274.3996                15.0986

                     19                     20                     21
                      A                      A                      A
 Frequencies --   1308.0524              1355.3972              1366.5262
 Red. masses --      1.3314                 1.8021                 1.7500
 Frc consts  --      1.3422                 1.9505                 1.9254
 IR Inten    --      8.7818               173.0633               453.6237

                     22                     23                     24
                      A                      A                      A
 Frequencies --   1486.6689              1871.9399              3695.4089
 Red. masses --      2.1376                 9.9143                 1.0646
 Frc consts  --      2.7836                20.4691                 8.5654
 IR Inten    --     60.1250               210.8777                92.1063

                     25                     26                     27
                      A                      A                      A
 Frequencies --   3728.7058              3777.3905              3803.1497
 Red. masses --      1.0648                 1.0648                 1.0652
 Frc consts  --      8.7226                 8.9517                 9.0773
 IR Inten    --     96.8794                41.7731                55.5349

 - Thermochemistry -
 -------------------
 Temperature   298.150 Kelvin.  Pressure   1.00000 Atm.
 Atom     1 has atomic number  8 and mass  15.99491

 Molecular mass:   108.00587 amu.
 Principal axes and moments of inertia in atomic units:
                           1         2         3
     Eigenvalues --   484.00088 702.34712 854.90623
           X            0.99987   0.01539   0.00562
           Y           -0.01544   0.99985   0.00788
           Z           -0.00550  -0.00796   0.99995
 This molecule is an asymmetric top.
 Rotational symmetry number  1.
 Warning -- assumption of classical behavior for rotation
           may cause significant error
 Rotational temperatures (Kelvin)      0.17895     0.12332     0.10131
 Rotational constants (GHZ):           3.72880     2.56959     2.11104
 Zero-point vibrational energy     199460.0 (Joules/Mol)
                                   47.67209 (Kcal/Mol)
 Warning -- explicit consideration of  11 degrees of freedom as
           vibrations may cause significant error
 Vibrational temperatures:     70.88   340.58   359.17   375.31   512.89
          (Kelvin)            546.35   652.71   707.75   773.25   865.29
                              891.80   962.62  1123.41  1152.76  1449.52
                             1555.71  1650.46  1769.71  1881.99  1950.11
                             1966.12  2138.98  2693.30  5316.86  5364.77
                             5434.82  5471.88

 Zero-point correction=                           0.075970 (Hartree/Particle)
 Thermal correction to Energy=                    0.083205
 Thermal correction to Enthalpy=                  0.084149
 Thermal correction to Gibbs Free Energy=         0.044543
 Sum of electronic and zero-point Energies=           -454.707535
 Sum of electronic and thermal Energies=              -454.700301
 Sum of electronic and thermal Enthalpies=            -454.699357
 Sum of electronic and thermal Free Energies=         -454.738962

                     E (Thermal)             CV                S
                      KCal/Mol        Cal/Mol-Kelvin    Cal/Mol-Kelvin
 Total                   52.212             25.912             83.357
 Electronic               0.000              0.000              0.000
 Translational            0.889              2.981             39.948
 Rotational               0.889              2.981             27.166
 Vibrational             50.434             19.951             16.244
 Vibration     1          0.595              1.978              4.847
 Vibration     2          0.656              1.785              1.827
 Vibration     3          0.662              1.763              1.733
 Vibration     4          0.669              1.744              1.656
 Vibration     5          0.732              1.562              1.137
 Vibration     6          0.750              1.513              1.040
 Vibration     7          0.812              1.353              0.785
 Vibration     8          0.848              1.268              0.679
 Vibration     9          0.892              1.167              0.571
 Vibration    10          0.960              1.029              0.447
 Vibration    11          0.980              0.990              0.417

 Optimization completed.
    -- Stationary point found.
 Normal termination of Gaussian 09 at Tue Aug 23 10:38:11 2022.

 -----------------------------------------------------------------
 #P Geom=AllCheck Guess=TCheck SCRF=Check CCSD(T,E4T,FrzG4)/GTBas1
 -----------------------------------------------------------------

 Structure from the checkpoint file:  "G4.Frag_834.chk"
 --------
 Frag_834
 --------
 Charge =  0 Multiplicity = 1

 SCF Done:  E(RHF) =  -452.379908672     A.U. after   14 cycles
 E2 =    -0.1143711817D+01 EUMP2 =    -0.45352362048907D+03
 CCSD(T)
 CCSD(T)= -0.45357809647D+03
 7\MP4SDQ=-453.5487056\CCSD=-453.545896\CCSD(T)=-453.5780965\RMSD=4.636
 Normal termination of Gaussian 09 at Tue Aug 23 10:47:41 2022.

 ---------------------------------------------------------
 #P Geom=AllCheck Guess=TCheck SCRF=Check MP4=FrzG4/GTBas2
 ---------------------------------------------------------

 Structure from the checkpoint file:  "G4.Frag_834.chk"
 --------
 Frag_834
 --------
 Charge =  0 Multiplicity = 1

 SCF Done:  E(RHF) =  -452.395260513     A.U. after   12 cycles
 E2 =    -0.1165181535D+01 EUMP2 =    -0.45356044204775D+03
 Normal termination of Gaussian 09 at Tue Aug 23 11:00:01 2022.

 ---------------------------------------------------------
 #P Geom=AllCheck Guess=TCheck SCRF=Check MP4=FrzG4/GTBas3
 ---------------------------------------------------------

 Structure from the checkpoint file:  "G4.Frag_834.chk"
 --------
 Frag_834
 --------
 Charge =  0 Multiplicity = 1

 SCF Done:  E(RHF) =  -452.441380134     A.U. after   11 cycles
 E2 =    -0.1408586124D+01 EUMP2 =    -0.45384996625804D+03
 Normal termination of Gaussian 09 at Tue Aug 23 13:36:09 2022.

 -----------------------------------------------------------
 #P Geom=AllCheck Guess=TCheck SCRF=Check MP2=Full/GTLargeXP
 -----------------------------------------------------------

 Structure from the checkpoint file:  "G4.Frag_834.chk"
 --------
 Frag_834
 --------
 Charge =  0 Multiplicity = 1

 SCF Done:  E(RHF) =  -452.574654977     A.U. after   12 cycles
 E2 =    -0.1831749214D+01 EUMP2 =    -0.45440640419074D+03
 Normal termination of Gaussian 09 at Tue Aug 23 13:43:24 2022.
 SCF Done:  E(RHF) =  -452.611660392     A.U. after    9 cycles
 Normal termination of Gaussian 09 at Tue Aug 23 13:49:32 2022.

                         Standard orientation:
 ---------------------------------------------------------------------
 Center     Atomic      Atomic             Coordinates (Angstroms)
 Number     Number       Type             X           Y           Z
 ---------------------------------------------------------------------
      1          8           0       -1.539984    1.159350    0.018712
      2          6           0       -0.964174    0.103967    0.007052
      3          8           0       -1.583464   -1.075376   -0.030635
      4          6           0        0.587639    0.028173    0.019503
      5          8           0        1.106183    1.220277   -0.449604
      6          8           0        1.050005   -1.023512   -0.793792
      7          8           0        0.927609   -0.271199    1.329003
      8          1           0       -0.906525   -1.763045   -0.132678
      9          1           0        0.412589    1.884346   -0.301578
     10          1           0        1.178495   -0.661668   -1.679360
     11          1           0        1.891867   -0.328796    1.364803
 ---------------------------------------------------------------------

 SCF Done:  E(RHF) =  -452.619804789     A.U. after    7 cycles

 The electronic state is 1-A.
 Alpha  occ. eigenvalues --  -20.63013 -20.61217 -20.60287 -20.60178 -20.57133
 Alpha  occ. eigenvalues --  -11.44015 -11.40681  -1.51254  -1.47147  -1.40191
 Alpha  occ. eigenvalues --   -1.38636  -1.37563  -0.97453  -0.84913  -0.82340
 Alpha  occ. eigenvalues --   -0.77711  -0.75603  -0.68820  -0.66037  -0.65755
 Alpha  occ. eigenvalues --   -0.64123  -0.60661  -0.57519  -0.56447  -0.54384
 Alpha  occ. eigenvalues --   -0.51897  -0.50331  -0.46546
 Alpha virt. eigenvalues --    0.03445   0.04404   0.04872   0.05327   0.07323
 Alpha virt. eigenvalues --    0.07408   0.07568   0.09865   0.10497   0.13218
 Alpha virt. eigenvalues --    0.13892   0.14425   0.15221   0.15352   0.15527

 Mulliken charges:
               1
     1  O   -0.558367
     2  C    0.609486
     3  O   -0.521779
     4  C    0.614006
     5  O   -0.608587
     6  O   -0.606713
     7  O   -0.557508
     8  H    0.421890
     9  H    0.418873
    10  H    0.402687
    11  H    0.386010
 Sum of Mulliken charges =  -0.00000

 Dipole moment (field-independent basis, Debye):
    X=              2.7686    Y=             -1.3752    Z=             -1.3078  Tot=              3.3566
 Quadrupole moment (field-independent basis, Debye-Ang):
   XX=            -44.1084   YY=            -39.1573   ZZ=            -37.3322
   XY=              1.4853   XZ=              1.3794   YZ=              0.6544

 CCSD(T)/G3Bas1=-453.5780965\MP2/GTBas2=-453.560442\MP4/GTBas2=-453.624
 Normal termination of Gaussian 09 at Tue Aug 23 16:23:12 2022.
