 Gaussian 09, Revision E.01,
 Gaussian 09:  ES64L-G09RevE.01 30-Nov-2015

 -----
 #P G4
 -----

 ---------
 Frag_1162
 ---------
 Symbolic Z-matrix:
 Charge =  0 Multiplicity = 1

 SCF Done:  E(RB3LYP) =  -245.856070201     A.U. after   12 cycles
 SCF Done:  E(RB3LYP) =  -245.862827204     A.U. after   11 cycles
 SCF Done:  E(RB3LYP) =  -245.863943479     A.U. after   10 cycles
 SCF Done:  E(RB3LYP) =  -245.864351639     A.U. after   10 cycles
 SCF Done:  E(RB3LYP) =  -245.864385631     A.U. after    9 cycles
 SCF Done:  E(RB3LYP) =  -245.864403811     A.U. after    9 cycles
 SCF Done:  E(RB3LYP) =  -245.864406521     A.U. after    8 cycles
 SCF Done:  E(RB3LYP) =  -245.864407917     A.U. after    7 cycles
 SCF Done:  E(RB3LYP) =  -245.864407951     A.U. after    6 cycles
 Optimization completed.
    -- Stationary point found.
 Normal termination of Gaussian 09 at Wed Aug 24 14:13:26 2022.

 ----------------------------------------------------------
 #P Geom=AllCheck Guess=TCheck SCRF=Check B3LYP/GTBas3 Freq
 ----------------------------------------------------------

 Structure from the checkpoint file:  "G4.Frag_1162.chk"
 ---------
 Frag_1162
 ---------
 Charge =  0 Multiplicity = 1

 SCF Done:  E(RB3LYP) =  -245.864407951     A.U. after    1 cycles

  Exact polarizability:  48.455  -0.743  45.739   0.702  -1.361  43.226
 Approx polarizability:  64.394  -1.906  61.845   0.724  -1.285  63.421

                      1                      2                      3
                      A                      A                      A
 Frequencies --    164.0077               212.3853               261.0744
 Red. masses --      2.3443                 1.0991                 1.1301
 Frc consts  --      0.0372                 0.0292                 0.0454
 IR Inten    --      1.6948                 8.5869                22.6665

                      4                      5                      6
                      A                      A                      A
 Frequencies --    305.2796               375.7107               421.5291
 Red. masses --      3.1096                 1.4024                 2.0417
 Frc consts  --      0.1707                 0.1166                 0.2137
 IR Inten    --      3.5721                18.3907                11.9426

                      7                      8                      9
                      A                      A                      A
 Frequencies --    471.8388               651.7113               763.4433
 Red. masses --      1.7303                 2.4975                 2.5360
 Frc consts  --      0.2270                 0.6250                 0.8709
 IR Inten    --     27.5303                26.3807                97.4938

                     10                     11                     12
                      A                      A                      A
 Frequencies --    843.0376               851.8285               953.9179
 Red. masses --      1.8174                 1.5187                 1.6739
 Frc consts  --      0.7610                 0.6493                 0.8974
 IR Inten    --     74.0865                11.6064                88.2293

                     13                     14                     15
                      A                      A                      A
 Frequencies --    972.6941              1047.3040              1070.7873
 Red. masses --      1.7677                 1.8108                 1.4260
 Frc consts  --      0.9854                 1.1702                 0.9633
 IR Inten    --      9.1180                 3.8190                18.9614

                     16                     17                     18
                      A                      A                      A
 Frequencies --   1115.3704              1203.9633              1256.6073
 Red. masses --      2.0180                 2.2263                 1.4363
 Frc consts  --      1.4791                 1.9013                 1.3363
 IR Inten    --     36.9689                77.8928                13.7138

                     19                     20                     21
                      A                      A                      A
 Frequencies --   1322.7344              1362.2630              1392.9340
 Red. masses --      1.1592                 1.2534                 1.2608
 Frc consts  --      1.1950                 1.3704                 1.4413
 IR Inten    --      2.1910                18.6748                 5.5374

                     22                     23                     24
                      A                      A                      A
 Frequencies --   1415.1486              1489.6578              1498.6760
 Red. masses --      1.4606                 1.0436                 1.0564
 Frc consts  --      1.7234                 1.3645                 1.3980
 IR Inten    --     17.0917                 4.3044                 0.3822

                     25                     26                     27
                      A                      A                      A
 Frequencies --   1517.8113              1650.7113              1678.0376
 Red. masses --      1.2138                 1.0955                 1.0599
 Frc consts  --      1.6476                 1.7588                 1.7583
 IR Inten    --      4.8588                27.6688                10.4132

                     28                     29                     30
                      A                      A                      A
 Frequencies --   2963.9112              3043.7047              3110.1301
 Red. masses --      1.0834                 1.0361                 1.1002
 Frc consts  --      5.6076                 5.6552                 6.2703
 IR Inten    --     67.1362                15.9595                25.9617

                     31                     32                     33
                      A                      A                      A
 Frequencies --   3133.7397              3412.9365              3493.2188
 Red. masses --      1.1017                 1.0523                 1.0497
 Frc consts  --      6.3744                 7.2216                 7.5468
 IR Inten    --     17.8380                12.1306                 0.2691

                     34                     35                     36
                      A                      A                      A
 Frequencies --   3502.3591              3536.0564              3576.2294
 Red. masses --      1.0750                 1.0875                 1.0928
 Frc consts  --      7.7696                 8.0115                 8.2349
 IR Inten    --      2.2448                 0.8695                 0.3433

 - Thermochemistry -
 -------------------
 Temperature   298.150 Kelvin.  Pressure   1.00000 Atm.
 Atom     1 has atomic number  6 and mass  12.00000

 Molecular mass:    75.07965 amu.
 Principal axes and moments of inertia in atomic units:
                           1         2         3
     Eigenvalues --   273.87757 430.32697 538.32144
           X            0.99966   0.02550   0.00530
           Y           -0.02512   0.99773  -0.06249
           Z           -0.00689   0.06234   0.99803
 This molecule is an asymmetric top.
 Rotational symmetry number  1.
 Rotational temperatures (Kelvin)      0.31625     0.20127     0.16090
 Rotational constants (GHZ):           6.58959     4.19388     3.35253
 Zero-point vibrational energy     335210.1 (Joules/Mol)
                                   80.11713 (Kcal/Mol)
 Warning -- explicit consideration of   7 degrees of freedom as
           vibrations may cause significant error
 Vibrational temperatures:    235.97   305.57   375.63   439.23   540.56
          (Kelvin)            606.49   678.87   937.67  1098.42  1212.94
                             1225.59  1372.47  1399.49  1506.83  1540.62
                             1604.77  1732.23  1807.98  1903.12  1959.99
                             2004.12  2036.08  2143.28  2156.26  2183.79
                             2375.00  2414.32  4264.40  4379.21  4474.78
                             4508.75  4910.45  5025.96  5039.11  5087.59
                             5145.39

 Zero-point correction=                           0.127675 (Hartree/Particle)
 Thermal correction to Energy=                    0.134026
 Thermal correction to Enthalpy=                  0.134970
 Thermal correction to Gibbs Free Energy=         0.098700
 Sum of electronic and zero-point Energies=           -245.736733
 Sum of electronic and thermal Energies=              -245.730382
 Sum of electronic and thermal Enthalpies=            -245.729437
 Sum of electronic and thermal Free Energies=         -245.765708

                     E (Thermal)             CV                S
                      KCal/Mol        Cal/Mol-Kelvin    Cal/Mol-Kelvin
 Total                   84.103             23.011             76.338
 Electronic               0.000              0.000              0.000
 Translational            0.889              2.981             38.864
 Rotational               0.889              2.981             25.654
 Vibrational             82.325             17.050             11.821
 Vibration     1          0.623              1.887              2.503
 Vibration     2          0.643              1.822              2.023
 Vibration     3          0.669              1.744              1.655
 Vibration     4          0.696              1.664              1.388
 Vibration     5          0.747              1.522              1.056
 Vibration     6          0.784              1.423              0.887
 Vibration     7          0.829              1.313              0.732

 Optimization completed.
    -- Stationary point found.
 Normal termination of Gaussian 09 at Wed Aug 24 14:15:24 2022.

 -----------------------------------------------------------------
 #P Geom=AllCheck Guess=TCheck SCRF=Check CCSD(T,E4T,FrzG4)/GTBas1
 -----------------------------------------------------------------

 Structure from the checkpoint file:  "G4.Frag_1162.chk"
 ---------
 Frag_1162
 ---------
 Charge =  0 Multiplicity = 1

 SCF Done:  E(RHF) =  -244.264882700     A.U. after   12 cycles
 E2 =    -0.7574493423D+00 EUMP2 =    -0.24502233204251D+03
 CCSD(T)
 CCSD(T)= -0.24509584346D+03
 5.0730619\CCSD=-245.0742433\CCSD(T)=-245.0958435\RMSD=3.039e-09\PG=C01
 Normal termination of Gaussian 09 at Wed Aug 24 14:18:11 2022.

 ---------------------------------------------------------
 #P Geom=AllCheck Guess=TCheck SCRF=Check MP4=FrzG4/GTBas2
 ---------------------------------------------------------

 Structure from the checkpoint file:  "G4.Frag_1162.chk"
 ---------
 Frag_1162
 ---------
 Charge =  0 Multiplicity = 1

 SCF Done:  E(RHF) =  -244.274574298     A.U. after   11 cycles
 E2 =    -0.7704892971D+00 EUMP2 =    -0.24504506359488D+03
 Normal termination of Gaussian 09 at Wed Aug 24 14:22:01 2022.

 ---------------------------------------------------------
 #P Geom=AllCheck Guess=TCheck SCRF=Check MP4=FrzG4/GTBas3
 ---------------------------------------------------------

 Structure from the checkpoint file:  "G4.Frag_1162.chk"
 ---------
 Frag_1162
 ---------
 Charge =  0 Multiplicity = 1

 SCF Done:  E(RHF) =  -244.303004957     A.U. after   11 cycles
 E2 =    -0.9348200030D+00 EUMP2 =    -0.24523782495995D+03
 Normal termination of Gaussian 09 at Wed Aug 24 15:23:10 2022.

 -----------------------------------------------------------
 #P Geom=AllCheck Guess=TCheck SCRF=Check MP2=Full/GTLargeXP
 -----------------------------------------------------------

 Structure from the checkpoint file:  "G4.Frag_1162.chk"
 ---------
 Frag_1162
 ---------
 Charge =  0 Multiplicity = 1

 SCF Done:  E(RHF) =  -244.367111960     A.U. after   11 cycles
 E2 =    -0.1217680733D+01 EUMP2 =    -0.24558479269258D+03
 Normal termination of Gaussian 09 at Wed Aug 24 15:26:31 2022.
 SCF Done:  E(RHF) =  -244.386149624     A.U. after    8 cycles
 Normal termination of Gaussian 09 at Wed Aug 24 15:30:19 2022.

                         Standard orientation:
 ---------------------------------------------------------------------
 Center     Atomic      Atomic             Coordinates (Angstroms)
 Number     Number       Type             X           Y           Z
 ---------------------------------------------------------------------
      1          6           0        1.146772    1.150366   -0.199140
      2          6           0        0.524040   -0.068840    0.479036
      3          7           0        0.771309   -1.261184   -0.350163
      4          7           0       -0.908301    0.137926    0.702941
      5          7           0       -1.718507    0.089621   -0.476073
      6          1           0        2.233274    1.041777   -0.278431
      7          1           0        0.745249    1.275854   -1.209051
      8          1           0        0.928639    2.049820    0.380651
      9          1           0        0.951753   -0.163861    1.490580
     10          1           0        1.728164   -1.276074   -0.688075
     11          1           0        0.637713   -2.107789    0.194805
     12          1           0       -1.256481   -0.590330    1.318386
     13          1           0       -1.745952    1.028422   -0.862000
     14          1           0       -1.258733   -0.511519   -1.163176
 ---------------------------------------------------------------------

 SCF Done:  E(RHF) =  -244.390399112     A.U. after    8 cycles

 The electronic state is 1-A.
 Alpha  occ. eigenvalues --  -15.56259 -15.55378 -15.54698 -11.28589 -11.21689
 Alpha  occ. eigenvalues --   -1.27362  -1.17351  -1.03359  -0.96932  -0.80287
 Alpha  occ. eigenvalues --   -0.67624  -0.67286  -0.66174  -0.61830  -0.59118
 Alpha  occ. eigenvalues --   -0.53605  -0.52403  -0.50264  -0.41185  -0.40230
 Alpha  occ. eigenvalues --   -0.38886
 Alpha virt. eigenvalues --    0.03594   0.04032   0.05127   0.05665   0.07358
 Alpha virt. eigenvalues --    0.07479   0.07987   0.08852   0.09831   0.11778
 Alpha virt. eigenvalues --    0.12063   0.12502   0.13488   0.13777   0.14317

 Mulliken charges:
               1
     1  C   -0.536030
     2  C    0.101675
     3  N   -0.716615
     4  N   -0.352642
     5  N   -0.631316
     6  H    0.155066
     7  H    0.169262
     8  H    0.189396
     9  H    0.148219
    10  H    0.291266
    11  H    0.287644
    12  H    0.285831
    13  H    0.290287
    14  H    0.317956
 Sum of Mulliken charges =  -0.00000

 Dipole moment (field-independent basis, Debye):
    X=              2.5911    Y=             -0.7558    Z=              0.1304  Tot=              2.7022
 Quadrupole moment (field-independent basis, Debye-Ang):
   XX=            -35.6590   YY=            -30.3174   ZZ=            -32.0131
   XY=             -1.1671   XZ=              0.5441   YZ=             -3.6849

 Normal termination of Gaussian 09 at Wed Aug 24 17:23:16 2022.
