 Gaussian 09, Revision E.01,
 Gaussian 09:  ES64L-G09RevE.01 30-Nov-2015

 -----
 #P G4
 -----

 --------
 Frag_859
 --------
 Symbolic Z-matrix:
 Charge =  0 Multiplicity = 1

 SCF Done:  E(RB3LYP) =  -323.717580271     A.U. after   14 cycles
 SCF Done:  E(RB3LYP) =  -323.725627305     A.U. after   12 cycles
 SCF Done:  E(RB3LYP) =  -323.725980503     A.U. after   11 cycles
 SCF Done:  E(RB3LYP) =  -323.726176776     A.U. after   11 cycles
 SCF Done:  E(RB3LYP) =  -323.689218471     A.U. after   13 cycles
 SCF Done:  E(RB3LYP) =  -323.726178984     A.U. after    8 cycles
 SCF Done:  E(RB3LYP) =  -323.727810784     A.U. after   13 cycles
 SCF Done:  E(RB3LYP) =  -323.727674441     A.U. after   13 cycles
 SCF Done:  E(RB3LYP) =  -323.728149599     A.U. after   10 cycles
 SCF Done:  E(RB3LYP) =  -323.723175123     A.U. after   12 cycles
 SCF Done:  E(RB3LYP) =  -323.736072488     A.U. after    8 cycles
 SCF Done:  E(RB3LYP) =  -323.736076634     A.U. after    8 cycles
 SCF Done:  E(RB3LYP) =  -323.736077541     A.U. after    7 cycles
 Optimization completed.
    -- Stationary point found.
 Normal termination of Gaussian 09 at Wed Aug 24 06:53:26 2022.

 ----------------------------------------------------------
 #P Geom=AllCheck Guess=TCheck SCRF=Check B3LYP/GTBas3 Freq
 ----------------------------------------------------------

 Structure from the checkpoint file:  "G4.Frag_859.chk"
 --------
 Frag_859
 --------
 Charge =  0 Multiplicity = 1

 SCF Done:  E(RB3LYP) =  -323.736077541     A.U. after    1 cycles

  Exact polarizability:  49.666  -0.052  54.481   0.260  -2.840  36.898
 Approx polarizability:  64.367  -2.302  83.662   1.340  -4.704  56.201

                      1                      2                      3
                      A                      A                      A
 Frequencies --     80.9154               174.6488               267.3049
 Red. masses --      4.2161                 1.0597                 3.7210
 Frc consts  --      0.0163                 0.0190                 0.1566
 IR Inten    --      0.9968                 0.2858                 1.5375

                      4                      5                      6
                      A                      A                      A
 Frequencies --    320.7436               365.4680               394.9865
 Red. masses --      1.6864                 1.9019                 1.7987
 Frc consts  --      0.1022                 0.1497                 0.1653
 IR Inten    --     25.9708                98.9251                24.5680

                      7                      8                      9
                      A                      A                      A
 Frequencies --    426.7511               520.7009               571.7645
 Red. masses --      1.7636                 3.4147                 3.0113
 Frc consts  --      0.1892                 0.5455                 0.5800
 IR Inten    --     26.7797                19.0636                73.3754

                     10                     11                     12
                      A                      A                      A
 Frequencies --    638.0889               774.8685               969.2697
 Red. masses --      2.9534                 2.3528                 1.7642
 Frc consts  --      0.7085                 0.8323                 0.9765
 IR Inten    --     11.8489                17.9547                41.5668

                     13                     14                     15
                      A                      A                      A
 Frequencies --    985.6634              1049.0028              1090.3849
 Red. masses --      1.7916                 3.0459                 1.4669
 Frc consts  --      1.0255                 1.9748                 1.0275
 IR Inten    --     62.2587                91.4372                27.4953

                     16                     17                     18
                      A                      A                      A
 Frequencies --   1107.4761              1123.0659              1238.6845
 Red. masses --      3.3241                 1.7665                 1.1454
 Frc consts  --      2.4021                 1.3127                 1.0355
 IR Inten    --    109.5426                26.4673                58.0290

                     19                     20                     21
                      A                      A                      A
 Frequencies --   1295.6440              1354.8086              1407.5171
 Red. masses --      1.3471                 1.3697                 1.4039
 Frc consts  --      1.3323                 1.4813                 1.6387
 IR Inten    --      8.6203                57.2657                41.2610

                     22                     23                     24
                      A                      A                      A
 Frequencies --   1415.2499              1449.1200              1471.9624
 Red. masses --      1.2211                 1.5776                 1.0863
 Frc consts  --      1.4410                 1.9518                 1.3867
 IR Inten    --     13.6843                44.7330                 4.7570

                     25                     26                     27
                      A                      A                      A
 Frequencies --   1476.7906              1739.8021              2991.6642
 Red. masses --      1.0506                 9.1251                 1.0827
 Frc consts  --      1.3499                16.2738                 5.7094
 IR Inten    --      8.1525                47.2612                39.3420

                     28                     29                     30
                      A                      A                      A
 Frequencies --   3039.1107              3101.2983              3152.0415
 Red. masses --      1.0404                 1.0932                 1.1026
 Frc consts  --      5.6614                 6.1950                 6.4546
 IR Inten    --     10.3550                 8.9457                 8.9700

                     31                     32                     33
                      A                      A                      A
 Frequencies --   3412.9704              3770.9039              3807.4274
 Red. masses --      1.0718                 1.0650                 1.0659
 Frc consts  --      7.3559                 8.9229                 9.1037
 IR Inten    --      1.1016                24.8352                30.2657

 - Thermochemistry -
 -------------------
 Temperature   298.150 Kelvin.  Pressure   1.00000 Atm.
 Atom     1 has atomic number  6 and mass  12.00000

 Molecular mass:    89.04768 amu.
 Principal axes and moments of inertia in atomic units:
                           1         2         3
     Eigenvalues --   360.64643 544.66264 844.74107
           X            0.99746   0.07098  -0.00603
           Y           -0.07108   0.99728  -0.01947
           Z            0.00464   0.01985   0.99979
 This molecule is an asymmetric top.
 Rotational symmetry number  1.
 Rotational temperatures (Kelvin)      0.24016     0.15902     0.10253
 Rotational constants (GHZ):           5.00418     3.31350     2.13644
 Zero-point vibrational energy     281039.3 (Joules/Mol)
                                   67.17000 (Kcal/Mol)
 Warning -- explicit consideration of   9 degrees of freedom as
           vibrations may cause significant error
 Vibrational temperatures:    116.42   251.28   384.59   461.48   525.83
          (Kelvin)            568.30   614.00   749.17   822.64   918.07
                             1114.86  1394.56  1418.15  1509.28  1568.82
                             1593.41  1615.84  1782.19  1864.14  1949.27
                             2025.10  2036.23  2084.96  2117.82  2124.77
                             2503.18  4304.33  4372.60  4462.07  4535.08
                             4910.50  5425.48  5478.03

 Zero-point correction=                           0.107042 (Hartree/Particle)
 Thermal correction to Energy=                    0.113912
 Thermal correction to Enthalpy=                  0.114856
 Thermal correction to Gibbs Free Energy=         0.076628
 Sum of electronic and zero-point Energies=           -323.629035
 Sum of electronic and thermal Energies=              -323.622166
 Sum of electronic and thermal Enthalpies=            -323.621222
 Sum of electronic and thermal Free Energies=         -323.659450

                     E (Thermal)             CV                S
                      KCal/Mol        Cal/Mol-Kelvin    Cal/Mol-Kelvin
 Total                   71.481             24.441             80.458
 Electronic               0.000              0.000              0.000
 Translational            0.889              2.981             39.372
 Rotational               0.889              2.981             26.609
 Vibrational             69.703             18.479             14.477
 Vibration     1          0.600              1.962              3.869
 Vibration     2          0.627              1.874              2.385
 Vibration     3          0.672              1.733              1.614
 Vibration     4          0.706              1.634              1.306
 Vibration     5          0.739              1.543              1.099
 Vibration     6          0.762              1.481              0.981
 Vibration     7          0.788              1.412              0.869
 Vibration     8          0.876              1.204              0.608
 Vibration     9          0.928              1.092              0.501

 Optimization completed.
    -- Stationary point found.
 Normal termination of Gaussian 09 at Wed Aug 24 06:55:30 2022.

 -----------------------------------------------------------------
 #P Geom=AllCheck Guess=TCheck SCRF=Check CCSD(T,E4T,FrzG4)/GTBas1
 -----------------------------------------------------------------

 Structure from the checkpoint file:  "G4.Frag_859.chk"
 --------
 Frag_859
 --------
 Charge =  0 Multiplicity = 1

 SCF Done:  E(RHF) =  -321.824016156     A.U. after   12 cycles
 E2 =    -0.9056911020D+00 EUMP2 =    -0.32272970725778D+03
 CCSD(T)
 CCSD(T)= -0.32280088318D+03
 1\MP4SDTQ=-322.8016512\MP4SDQ=-322.7732683\CCSD=-322.7731843\CCSD(T)=-
 Normal termination of Gaussian 09 at Wed Aug 24 07:00:48 2022.

 ---------------------------------------------------------
 #P Geom=AllCheck Guess=TCheck SCRF=Check MP4=FrzG4/GTBas2
 ---------------------------------------------------------

 Structure from the checkpoint file:  "G4.Frag_859.chk"
 --------
 Frag_859
 --------
 Charge =  0 Multiplicity = 1

 SCF Done:  E(RHF) =  -321.835395025     A.U. after   13 cycles
 E2 =    -0.9208170073D+00 EUMP2 =    -0.32275621203196D+03
 Normal termination of Gaussian 09 at Wed Aug 24 07:06:08 2022.

 ---------------------------------------------------------
 #P Geom=AllCheck Guess=TCheck SCRF=Check MP4=FrzG4/GTBas3
 ---------------------------------------------------------

 Structure from the checkpoint file:  "G4.Frag_859.chk"
 --------
 Frag_859
 --------
 Charge =  0 Multiplicity = 1

 SCF Done:  E(RHF) =  -321.868425167     A.U. after   11 cycles
 E2 =    -0.1112928151D+01 EUMP2 =    -0.32298135331812D+03
 Normal termination of Gaussian 09 at Wed Aug 24 09:21:13 2022.

 -----------------------------------------------------------
 #P Geom=AllCheck Guess=TCheck SCRF=Check MP2=Full/GTLargeXP
 -----------------------------------------------------------

 Structure from the checkpoint file:  "G4.Frag_859.chk"
 --------
 Frag_859
 --------
 Charge =  0 Multiplicity = 1

 SCF Done:  E(RHF) =  -321.956759006     A.U. after   12 cycles
 E2 =    -0.1455848367D+01 EUMP2 =    -0.32341260737324D+03
 Normal termination of Gaussian 09 at Wed Aug 24 09:26:40 2022.
 SCF Done:  E(RHF) =  -321.982542173     A.U. after    9 cycles
 Normal termination of Gaussian 09 at Wed Aug 24 09:31:59 2022.

                         Standard orientation:
 ---------------------------------------------------------------------
 Center     Atomic      Atomic             Coordinates (Angstroms)
 Number     Number       Type             X           Y           Z
 ---------------------------------------------------------------------
      1          6           0        1.797925    0.788333   -0.048852
      2          6           0        0.744199   -0.283926   -0.042417
      3          7           0        1.045843   -1.496285    0.185557
      4          6           0       -0.688337    0.161718   -0.370505
      5          8           0       -0.927101    1.358049    0.329579
      6          8           0       -1.648046   -0.820909   -0.076505
      7          1           0        1.591736    1.531252    0.726944
      8          1           0        1.797207    1.326939   -1.004110
      9          1           0        2.778741    0.340220    0.113888
     10          1           0        0.200424   -2.073433    0.124726
     11          1           0       -0.774074    0.312448   -1.458003
     12          1           0       -1.794197    1.681691    0.060878
     13          1           0       -1.642279   -0.938992    0.882823
 ---------------------------------------------------------------------

 SCF Done:  E(RHF) =  -321.988150200     A.U. after    8 cycles

 The electronic state is 1-A.
 Alpha  occ. eigenvalues --  -20.58662 -20.58502 -15.54776 -11.35808 -11.28829
 Alpha  occ. eigenvalues --  -11.22439  -1.43632  -1.35734  -1.21477  -1.00158
 Alpha  occ. eigenvalues --   -0.93453  -0.78490  -0.73855  -0.69743  -0.67414
 Alpha  occ. eigenvalues --   -0.64237  -0.57977  -0.57352  -0.55370  -0.53589
 Alpha  occ. eigenvalues --   -0.51919  -0.48623  -0.42809  -0.41773
 Alpha virt. eigenvalues --    0.03394   0.04190   0.04970   0.05310   0.07117
 Alpha virt. eigenvalues --    0.07302   0.07654   0.08537   0.08975   0.10246
 Alpha virt. eigenvalues --    0.12357   0.12848   0.13436   0.14098   0.14467

 Mulliken charges:
               1
     1  C   -0.514953
     2  C    0.277610
     3  N   -0.613233
     4  C    0.203508
     5  O   -0.570781
     6  O   -0.597241
     7  H    0.207570
     8  H    0.173776
     9  H    0.206085
    10  H    0.288006
    11  H    0.172696
    12  H    0.387003
    13  H    0.379954
 Sum of Mulliken charges =  -0.00000

 Dipole moment (field-independent basis, Debye):
    X=             -1.8813    Y=              1.9252    Z=             -0.4432  Tot=              2.7280
 Quadrupole moment (field-independent basis, Debye-Ang):
   XX=            -37.2540   YY=            -38.5332   ZZ=            -35.1519
   XY=              1.5088   XZ=             -2.0878   YZ=             -2.5061

 Normal termination of Gaussian 09 at Wed Aug 24 11:56:17 2022.
