 Gaussian 09, Revision E.01,
 Gaussian 09:  ES64L-G09RevE.01 30-Nov-2015

 -----
 #P G4
 -----

 ---------
 Frag_1027
 ---------
 Symbolic Z-matrix:
 Charge =  0 Multiplicity = 1

 SCF Done:  E(RB3LYP) =  -193.155650991     A.U. after   13 cycles
 SCF Done:  E(RB3LYP) =  -193.158882034     A.U. after   12 cycles
 SCF Done:  E(RB3LYP) =  -193.158049254     A.U. after   12 cycles
 SCF Done:  E(RB3LYP) =  -193.159030495     A.U. after    8 cycles
 SCF Done:  E(RB3LYP) =  -193.159242513     A.U. after   12 cycles
 SCF Done:  E(RB3LYP) =  -193.159290366     A.U. after   11 cycles
 SCF Done:  E(RB3LYP) =  -193.159336456     A.U. after   11 cycles
 SCF Done:  E(RB3LYP) =  -193.159366050     A.U. after   12 cycles
 SCF Done:  E(RB3LYP) =  -193.159375980     A.U. after   10 cycles
 SCF Done:  E(RB3LYP) =  -193.159376385     A.U. after    8 cycles
 SCF Done:  E(RB3LYP) =  -193.159376421     A.U. after    7 cycles
 Optimization completed.
    -- Stationary point found.
 Normal termination of Gaussian 09 at Fri Aug 26 07:02:49 2022.

 ----------------------------------------------------------
 #P Geom=AllCheck Guess=TCheck SCRF=Check B3LYP/GTBas3 Freq
 ----------------------------------------------------------

 Structure from the checkpoint file:  "G4.Frag_1027.chk"
 ---------
 Frag_1027
 ---------
 Charge =  0 Multiplicity = 1

 SCF Done:  E(RB3LYP) =  -193.159376421     A.U. after    1 cycles

  Exact polarizability:  42.316  -0.329  33.106  -1.984  -2.539  32.078
 Approx polarizability:  58.505   0.603  45.558  -7.277  -3.817  47.483

                      1                      2                      3
                      A                      A                      A
 Frequencies --     84.0485               210.5562               323.8106
 Red. masses --      3.0171                 1.0980                 2.2088
 Frc consts  --      0.0126                 0.0287                 0.1365
 IR Inten    --      4.5721                 0.8200                 2.3337

                      4                      5                      6
                      A                      A                      A
 Frequencies --    504.4824               756.6282               872.6036
 Red. masses --      2.8250                 1.4088                 1.4586
 Frc consts  --      0.4236                 0.4752                 0.6544
 IR Inten    --     10.3862                 2.4009                11.9154

                      7                      8                      9
                      A                      A                      A
 Frequencies --    919.6673              1013.4324              1135.0280
 Red. masses --      1.3024                 2.8294                 1.9632
 Frc consts  --      0.6490                 1.7121                 1.4902
 IR Inten    --     13.8605                 3.9657                 1.2339

                     10                     11                     12
                      A                      A                      A
 Frequencies --   1155.7368              1271.3268              1322.9994
 Red. masses --      1.9524                 1.1948                 1.4958
 Frc consts  --      1.5365                 1.1378                 1.5426
 IR Inten    --     12.1839                 3.4261                 0.1776

                     13                     14                     15
                      A                      A                      A
 Frequencies --   1410.4426              1431.3427              1464.7393
 Red. masses --      1.2080                 1.1981                 1.0805
 Frc consts  --      1.4159                 1.4463                 1.3658
 IR Inten    --      1.8171                 4.3204                 2.7410

                     16                     17                     18
                      A                      A                      A
 Frequencies --   1500.3591              1505.2841              1839.0769
 Red. masses --      1.0458                 1.0500                10.1413
 Frc consts  --      1.3870                 1.4018                20.2090
 IR Inten    --      5.9138                 5.6856               170.0176

                     19                     20                     21
                      A                      A                      A
 Frequencies --   2842.3660              3016.3410              3040.3666
 Red. masses --      1.0813                 1.0660                 1.0356
 Frc consts  --      5.1472                 5.7143                 5.6404
 IR Inten    --    118.4395                10.8225                21.6229

                     22                     23                     24
                      A                      A                      A
 Frequencies --   3094.2369              3113.7139              3120.0760
 Red. masses --      1.0960                 1.1000                 1.1022
 Frc consts  --      6.1823                 6.2833                 6.3219
 IR Inten    --      1.8800                35.1429                18.8883

 - Thermochemistry -
 -------------------
 Temperature   298.150 Kelvin.  Pressure   1.00000 Atm.
 Atom     1 has atomic number  6 and mass  12.00000

 Molecular mass:    58.04186 amu.
 Principal axes and moments of inertia in atomic units:
                           1         2         3
     Eigenvalues --    69.02355 420.75818 437.21929
           X            0.99990   0.00645   0.01285
           Y           -0.00502   0.99412  -0.10818
           Z           -0.01347   0.10810   0.99405
 This molecule is an asymmetric top.
 Rotational symmetry number  1.
 Rotational temperatures (Kelvin)      1.25484     0.20585     0.19810
 Rotational constants (GHZ):          26.14675     4.28926     4.12777
 Zero-point vibrational energy     221002.1 (Joules/Mol)
                                   52.82077 (Kcal/Mol)
 Warning -- explicit consideration of   4 degrees of freedom as
           vibrations may cause significant error
 Vibrational temperatures:    120.93   302.94   465.89   725.84  1088.62
          (Kelvin)           1255.48  1323.19  1458.10  1633.05  1662.85
                             1829.15  1903.50  2029.31  2059.38  2107.43
                             2158.68  2165.77  2646.02  4089.53  4339.84
                             4374.40  4451.91  4479.93  4489.09

 Zero-point correction=                           0.084175 (Hartree/Particle)
 Thermal correction to Energy=                    0.089261
 Thermal correction to Enthalpy=                  0.090206
 Thermal correction to Gibbs Free Energy=         0.056579
 Sum of electronic and zero-point Energies=           -193.075201
 Sum of electronic and thermal Energies=              -193.070115
 Sum of electronic and thermal Enthalpies=            -193.069171
 Sum of electronic and thermal Free Energies=         -193.102798

                     E (Thermal)             CV                S
                      KCal/Mol        Cal/Mol-Kelvin    Cal/Mol-Kelvin
 Total                   56.012             15.954             70.773
 Electronic               0.000              0.000              0.000
 Translational            0.889              2.981             38.096
 Rotational               0.889              2.981             24.055
 Vibrational             54.235              9.993              8.622
 Vibration     1          0.601              1.960              3.794
 Vibration     2          0.643              1.825              2.039
 Vibration     3          0.708              1.628              1.291
 Vibration     4          0.860              1.240              0.647

 Optimization completed.
    -- Stationary point found.
 Normal termination of Gaussian 09 at Fri Aug 26 07:03:04 2022.

 -----------------------------------------------------------------
 #P Geom=AllCheck Guess=TCheck SCRF=Check CCSD(T,E4T,FrzG4)/GTBas1
 -----------------------------------------------------------------

 Structure from the checkpoint file:  "G4.Frag_1027.chk"
 ---------
 Frag_1027
 ---------
 Charge =  0 Multiplicity = 1

 SCF Done:  E(RHF) =  -191.949256901     A.U. after   14 cycles
 E2 =    -0.5618562237D+00 EUMP2 =    -0.19251111312493D+03
 CCSD(T)
 CCSD(T)= -0.19256574451D+03
 Normal termination of Gaussian 09 at Fri Aug 26 07:03:27 2022.

 ---------------------------------------------------------
 #P Geom=AllCheck Guess=TCheck SCRF=Check MP4=FrzG4/GTBas2
 ---------------------------------------------------------

 Structure from the checkpoint file:  "G4.Frag_1027.chk"
 ---------
 Frag_1027
 ---------
 Charge =  0 Multiplicity = 1

 SCF Done:  E(RHF) =  -191.954814079     A.U. after   11 cycles
 E2 =    -0.5685939045D+00 EUMP2 =    -0.19252340798323D+03
 Normal termination of Gaussian 09 at Fri Aug 26 07:03:35 2022.

 ---------------------------------------------------------
 #P Geom=AllCheck Guess=TCheck SCRF=Check MP4=FrzG4/GTBas3
 ---------------------------------------------------------

 Structure from the checkpoint file:  "G4.Frag_1027.chk"
 ---------
 Frag_1027
 ---------
 Charge =  0 Multiplicity = 1

 SCF Done:  E(RHF) =  -191.971468464     A.U. after   12 cycles
 E2 =    -0.6950365174D+00 EUMP2 =    -0.19266650498160D+03
 Normal termination of Gaussian 09 at Fri Aug 26 07:04:05 2022.

 -----------------------------------------------------------
 #P Geom=AllCheck Guess=TCheck SCRF=Check MP2=Full/GTLargeXP
 -----------------------------------------------------------

 Structure from the checkpoint file:  "G4.Frag_1027.chk"
 ---------
 Frag_1027
 ---------
 Charge =  0 Multiplicity = 1

 SCF Done:  E(RHF) =  -192.019958710     A.U. after   12 cycles
 E2 =    -0.9147939022D+00 EUMP2 =    -0.19293475261208D+03
 Normal termination of Gaussian 09 at Fri Aug 26 07:04:25 2022.
 SCF Done:  E(RHF) =  -192.035549603     A.U. after    9 cycles
 Normal termination of Gaussian 09 at Fri Aug 26 07:04:54 2022.

                         Standard orientation:
 ---------------------------------------------------------------------
 Center     Atomic      Atomic             Coordinates (Angstroms)
 Number     Number       Type             X           Y           Z
 ---------------------------------------------------------------------
      1          6           0       -1.693556   -0.282341   -0.177401
      2          6           0       -0.472257    0.590836    0.148804
      3          6           0        0.786371   -0.233705    0.296014
      4          8           0        1.817952   -0.039174   -0.292627
      5          1           0       -1.829757   -1.069563    0.571857
      6          1           0       -2.605301    0.320110   -0.197174
      7          1           0       -1.585141   -0.763783   -1.153929
      8          1           0       -0.300159    1.356152   -0.612937
      9          1           0       -0.638340    1.100785    1.108770
     10          1           0        0.691738   -1.079049    1.019921
 ---------------------------------------------------------------------

 SCF Done:  E(RHF) =  -192.038775759     A.U. after    7 cycles

 The electronic state is 1-A.
 Alpha  occ. eigenvalues --  -20.55640 -11.33169 -11.24494 -11.23801  -1.39578
 Alpha  occ. eigenvalues --   -1.06627  -0.90404  -0.79243  -0.67224  -0.64092
 Alpha  occ. eigenvalues --   -0.61539  -0.56574  -0.54364  -0.51704  -0.49624
 Alpha  occ. eigenvalues --   -0.41919
 Alpha virt. eigenvalues --    0.03649   0.04265   0.04556   0.05631   0.07351
 Alpha virt. eigenvalues --    0.07522   0.07834   0.08059   0.09227   0.10623
 Alpha virt. eigenvalues --    0.12443   0.14717   0.15080   0.16218   0.17730

 Mulliken charges:
               1
     1  C   -0.510954
     2  C   -0.250694
     3  C    0.221082
     4  O   -0.505992
     5  H    0.162781
     6  H    0.173738
     7  H    0.175406
     8  H    0.201275
     9  H    0.177993
    10  H    0.155364
 Sum of Mulliken charges =  -0.00000

 Dipole moment (field-independent basis, Debye):
    X=             -3.0936    Y=             -0.1477    Z=              1.2677  Tot=              3.3466
 Quadrupole moment (field-independent basis, Debye-Ang):
   XX=            -31.3749   YY=            -24.4846   ZZ=            -24.5168
   XY=             -0.4490   XZ=              1.8451   YZ=             -0.1977

 Normal termination of Gaussian 09 at Fri Aug 26 07:07:25 2022.
