 Gaussian 09, Revision E.01,
 Gaussian 09:  ES64L-G09RevE.01 30-Nov-2015

 -----
 #P G4
 -----

 --------
 Frag_852
 --------
 Symbolic Z-matrix:
 Charge =  0 Multiplicity = 1

 SCF Done:  E(RB3LYP) =  -229.735445728     A.U. after   12 cycles
 SCF Done:  E(RB3LYP) =  -229.745687534     A.U. after   11 cycles
 SCF Done:  E(RB3LYP) =  -229.746425839     A.U. after   11 cycles
 SCF Done:  E(RB3LYP) =  -229.746543578     A.U. after    9 cycles
 SCF Done:  E(RB3LYP) =  -229.746548815     A.U. after    8 cycles
 SCF Done:  E(RB3LYP) =  -229.746550435     A.U. after    7 cycles
 Optimization completed.
    -- Stationary point found.
 Normal termination of Gaussian 09 at Sat Aug 20 16:54:58 2022.

 ----------------------------------------------------------
 #P Geom=AllCheck Guess=TCheck SCRF=Check B3LYP/GTBas3 Freq
 ----------------------------------------------------------

 Structure from the checkpoint file:  "G4.Frag_852.chk"
 --------
 Frag_852
 --------
 Charge =  0 Multiplicity = 1

 SCF Done:  E(RB3LYP) =  -229.746550435     A.U. after    1 cycles

  Exact polarizability:  50.308  -0.000  48.826   0.101  -0.000  54.483
 Approx polarizability:  69.952  -0.000  65.687  -1.583   0.000  82.717

                      1                      2                      3
                      A                      A                      A
 Frequencies --    196.9531               277.0685               289.9092
 Red. masses --      1.0189                 1.0631                 1.0538
 Frc consts  --      0.0233                 0.0481                 0.0522
 IR Inten    --      3.8435                 4.1765                 0.0631

                      4                      5                      6
                      A                      A                      A
 Frequencies --    359.7552               372.3357               384.3519
 Red. masses --      1.8699                 2.4263                 1.2733
 Frc consts  --      0.1426                 0.1982                 0.1108
 IR Inten    --      0.0196                 6.3270                57.4329

                      7                      8                      9
                      A                      A                      A
 Frequencies --    443.6127               484.4025               488.6222
 Red. masses --      2.3360                 3.1286                 2.7647
 Frc consts  --      0.2708                 0.4325                 0.3889
 IR Inten    --      6.6364                28.8558                20.0881

                     10                     11                     12
                      A                      A                      A
 Frequencies --    751.4879               805.3209               888.5284
 Red. masses --      4.0495                 6.1053                 2.1019
 Frc consts  --      1.3474                 2.3329                 0.9777
 IR Inten    --      2.4406                11.3417                 0.0394

                     13                     14                     15
                      A                      A                      A
 Frequencies --    958.2217              1059.8129              1104.8633
 Red. masses --      2.2513                 1.1912                 1.3409
 Frc consts  --      1.2179                 0.7883                 0.9644
 IR Inten    --      5.4653                 0.0000                 8.3672

                     16                     17                     18
                      A                      A                      A
 Frequencies --   1118.8530              1217.1203              1244.0035
 Red. masses --      1.4120                 1.6080                 1.6849
 Frc consts  --      1.0415                 1.4034                 1.5363
 IR Inten    --      3.5154                10.0034                 2.1836

                     19                     20                     21
                      A                      A                      A
 Frequencies --   1271.0717              1405.3662              1410.7967
 Red. masses --      2.0570                 1.1580                 1.1652
 Frc consts  --      1.9581                 1.3476                 1.3665
 IR Inten    --      0.4207                 0.4156                 1.4531

                     22                     23                     24
                      A                      A                      A
 Frequencies --   1450.4765              1451.8416              1456.7205
 Red. masses --      1.0532                 1.2076                 1.1249
 Frc consts  --      1.3055                 1.4997                 1.4065
 IR Inten    --      0.1879                 3.5929                 7.8944

                     25                     26                     27
                      A                      A                      A
 Frequencies --   1465.7529              1480.0700              1485.6056
 Red. masses --      1.0474                 1.0421                 1.0594
 Frc consts  --      1.3258                 1.3450                 1.3775
 IR Inten    --      0.2076                 0.0929                17.9238

                     28                     29                     30
                      A                      A                      A
 Frequencies --   1511.2976              1518.6692              3010.6197
 Red. masses --      1.0438                 1.2520                 1.0447
 Frc consts  --      1.4046                 1.7013                 5.5792
 IR Inten    --      8.2562                24.9764                23.2544

                     31                     32                     33
                      A                      A                      A
 Frequencies --   3022.7221              3060.3070              3124.0626
 Red. masses --      1.0433                 1.0363                 1.0901
 Frc consts  --      5.6165                 5.7185                 6.2686
 IR Inten    --     61.7964                33.1194                 0.1328

                     34                     35                     36
                      A                      A                      A
 Frequencies --   3131.2275              3159.7085              3173.0221
 Red. masses --      1.0912                 1.0990                 1.1044
 Frc consts  --      6.3035                 6.4645                 6.5514
 IR Inten    --     25.3189                11.1837                 1.0572

                     37                     38                     39
                      A                      A                      A
 Frequencies --   3177.7852              3183.5924              3340.2822
 Red. masses --      1.1043                 1.1048                 1.0736
 Frc consts  --      6.5701                 6.5971                 7.0579
 IR Inten    --      8.9609                 6.4891                50.5494

 - Thermochemistry -
 -------------------
 Temperature   298.150 Kelvin.  Pressure   1.00000 Atm.
 Atom     1 has atomic number  6 and mass  12.00000

 Molecular mass:    74.08440 amu.
 Principal axes and moments of inertia in atomic units:
                           1         2         3
     Eigenvalues --   360.49944 363.84031 377.18807
           X            0.93911   0.00001   0.34362
           Y           -0.00001   1.00000  -0.00000
           Z           -0.34362   0.00000   0.93911
 This molecule is an asymmetric top.
 Rotational symmetry number  1.
 Rotational temperatures (Kelvin)      0.24026     0.23805     0.22963
 Rotational constants (GHZ):           5.00622     4.96026     4.78473
 Zero-point vibrational energy     357301.9 (Joules/Mol)
                                   85.39721 (Kcal/Mol)
 Warning -- explicit consideration of   9 degrees of freedom as
           vibrations may cause significant error
 Vibrational temperatures:    283.37   398.64   417.11   517.61   535.71
          (Kelvin)            553.00   638.26   696.95   703.02  1081.22
                             1158.68  1278.39  1378.67  1524.83  1589.65
                             1609.78  1751.16  1789.84  1828.79  2022.01
                             2029.82  2086.91  2088.87  2095.89  2108.89
                             2129.49  2137.45  2174.42  2185.02  4331.60
                             4349.02  4403.09  4494.82  4505.13  4546.11
                             4565.27  4572.12  4580.47  4805.92

 Zero-point correction=                           0.136089 (Hartree/Particle)
 Thermal correction to Energy=                    0.142567
 Thermal correction to Enthalpy=                  0.143512
 Thermal correction to Gibbs Free Energy=         0.107411
 Sum of electronic and zero-point Energies=           -229.610461
 Sum of electronic and thermal Energies=              -229.603983
 Sum of electronic and thermal Enthalpies=            -229.603039
 Sum of electronic and thermal Free Energies=         -229.639139

                     E (Thermal)             CV                S
                      KCal/Mol        Cal/Mol-Kelvin    Cal/Mol-Kelvin
 Total                   89.462             24.302             75.980
 Electronic               0.000              0.000              0.000
 Translational            0.889              2.981             38.824
 Rotational               0.889              2.981             25.407
 Vibrational             87.685             18.341             11.749
 Vibration     1          0.636              1.844              2.161
 Vibration     2          0.678              1.716              1.552
 Vibration     3          0.686              1.693              1.474
 Vibration     4          0.734              1.555              1.123
 Vibration     5          0.744              1.529              1.070
 Vibration     6          0.753              1.504              1.022
 Vibration     7          0.803              1.375              0.815
 Vibration     8          0.841              1.285              0.698
 Vibration     9          0.845              1.275              0.687

 Optimization completed.
    -- Stationary point found.
 Normal termination of Gaussian 09 at Sat Aug 20 16:57:15 2022.

 -----------------------------------------------------------------
 #P Geom=AllCheck Guess=TCheck SCRF=Check CCSD(T,E4T,FrzG4)/GTBas1
 -----------------------------------------------------------------

 Structure from the checkpoint file:  "G4.Frag_852.chk"
 --------
 Frag_852
 --------
 Charge =  0 Multiplicity = 1

 SCF Done:  E(RHF) =  -228.189492402     A.U. after   12 cycles
 E2 =    -0.7314681214D+00 EUMP2 =    -0.22892096052352D+03
 CCSD(T)
 CCSD(T)= -0.22900025861D+03
 =-228.9765209\CCSD(T)=-229.0002586\RMSD=5.522e-09\PG=C01 [X(C3H10N2)]\
 Normal termination of Gaussian 09 at Sat Aug 20 17:00:37 2022.

 ---------------------------------------------------------
 #P Geom=AllCheck Guess=TCheck SCRF=Check MP4=FrzG4/GTBas2
 ---------------------------------------------------------

 Structure from the checkpoint file:  "G4.Frag_852.chk"
 --------
 Frag_852
 --------
 Charge =  0 Multiplicity = 1

 SCF Done:  E(RHF) =  -228.200411937     A.U. after   12 cycles
 E2 =    -0.7450817002D+00 EUMP2 =    -0.22894549363677D+03
 Normal termination of Gaussian 09 at Sat Aug 20 17:04:42 2022.

 ---------------------------------------------------------
 #P Geom=AllCheck Guess=TCheck SCRF=Check MP4=FrzG4/GTBas3
 ---------------------------------------------------------

 Structure from the checkpoint file:  "G4.Frag_852.chk"
 --------
 Frag_852
 --------
 Charge =  0 Multiplicity = 1

 SCF Done:  E(RHF) =  -228.221632075     A.U. after   11 cycles
 E2 =    -0.9089752283D+00 EUMP2 =    -0.22913060730343D+03
 Normal termination of Gaussian 09 at Sat Aug 20 18:33:29 2022.

 -----------------------------------------------------------
 #P Geom=AllCheck Guess=TCheck SCRF=Check MP2=Full/GTLargeXP
 -----------------------------------------------------------

 Structure from the checkpoint file:  "G4.Frag_852.chk"
 --------
 Frag_852
 --------
 Charge =  0 Multiplicity = 1

 SCF Done:  E(RHF) =  -228.281752049     A.U. after   12 cycles
 E2 =    -0.1187208548D+01 EUMP2 =    -0.22946896059717D+03
 Normal termination of Gaussian 09 at Sat Aug 20 18:37:25 2022.
 SCF Done:  E(RHF) =  -228.299137622     A.U. after    9 cycles
 Normal termination of Gaussian 09 at Sat Aug 20 18:42:37 2022.

                         Standard orientation:
 ---------------------------------------------------------------------
 Center     Atomic      Atomic             Coordinates (Angstroms)
 Number     Number       Type             X           Y           Z
 ---------------------------------------------------------------------
      1          6           0        0.715626    1.223221   -0.425977
      2          7           0       -0.002193    0.000000    0.069761
      3          6           0        0.715615   -1.223229   -0.425974
      4          6           0       -1.386692    0.000005   -0.477397
      5          7           0       -0.178233    0.000003    1.500727
      6          1           0        0.185383    2.082749   -0.019594
      7          1           0        0.760266    1.263038   -1.521650
      8          1           0        1.726308    1.198253   -0.016077
      9          1           0        0.760260   -1.263048   -1.521646
     10          1           0        0.185361   -2.082752   -0.019592
     11          1           0        1.726296   -1.198272   -0.016069
     12          1           0       -1.885323   -0.885348   -0.086292
     13          1           0       -1.370032   -0.000002   -1.570678
     14          1           0       -1.885313    0.885370   -0.086304
     15          1           0        0.792488    0.000002    1.840576
 ---------------------------------------------------------------------

 SCF Done:  E(RHF) =  -228.303075534     A.U. after    8 cycles

 The electronic state is 1-A.
 Alpha  occ. eigenvalues --  -15.67564 -15.46418 -11.27065 -11.27064 -11.26375
 Alpha  occ. eigenvalues --   -1.31934  -1.01173  -0.98444  -0.98357  -0.82354
 Alpha  occ. eigenvalues --   -0.67796  -0.67128  -0.65272  -0.59071  -0.58716
 Alpha  occ. eigenvalues --   -0.54663  -0.53928  -0.53176  -0.51664  -0.38457
 Alpha  occ. eigenvalues --   -0.29350
 Alpha virt. eigenvalues --    0.03050   0.03835   0.03842   0.05462   0.06251
 Alpha virt. eigenvalues --    0.06576   0.07583   0.07677   0.08677   0.09608
 Alpha virt. eigenvalues --    0.11062   0.13728   0.14013   0.14348   0.15321

 Mulliken charges:
               1
     1  C   -0.542358
     2  N    0.497675
     3  C   -0.542357
     4  C   -0.472867
     5  N   -0.924087
     6  H    0.219881
     7  H    0.172338
     8  H    0.189529
     9  H    0.172338
    10  H    0.219881
    11  H    0.189530
    12  H    0.210317
    13  H    0.170892
    14  H    0.210316
    15  H    0.228973
 Sum of Mulliken charges =  -0.00000

 Dipole moment (field-independent basis, Debye):
    X=              1.5268    Y=             -0.0000    Z=             -4.9271  Tot=              5.1582
 Quadrupole moment (field-independent basis, Debye-Ang):
   XX=            -30.7928   YY=            -32.1349   ZZ=            -40.6055
   XY=              0.0000   XZ=              3.3369   YZ=             -0.0000

 Normal termination of Gaussian 09 at Sat Aug 20 21:02:02 2022.
