 Gaussian 09, Revision E.01,
 Gaussian 09:  ES64L-G09RevE.01 30-Nov-2015

 ----------------
 #P G4 OPT=calcfc
 ----------------

 --------
 Frag_294
 --------
 Symbolic Z-matrix:
 Charge =  0 Multiplicity = 1

 SCF Done:  E(RB3LYP) =  -251.895557899     A.U. after   14 cycles
 SCF Done:  E(RB3LYP) =  -251.900477416     A.U. after   12 cycles
 SCF Done:  E(RB3LYP) =  -251.902666628     A.U. after   12 cycles
 SCF Done:  E(RB3LYP) =  -251.903118824     A.U. after   12 cycles
 SCF Done:  E(RB3LYP) =  -251.899167531     A.U. after   11 cycles
 SCF Done:  E(RB3LYP) =  -251.903281577     A.U. after    9 cycles
 SCF Done:  E(RB3LYP) =  -251.903671654     A.U. after   11 cycles
 SCF Done:  E(RB3LYP) =  -251.903817615     A.U. after   10 cycles
 SCF Done:  E(RB3LYP) =  -251.903898253     A.U. after   10 cycles
 SCF Done:  E(RB3LYP) =  -251.903899778     A.U. after    7 cycles
 SCF Done:  E(RB3LYP) =  -251.903899894     A.U. after    6 cycles
 Optimization completed.
    -- Stationary point found.
 Normal termination of Gaussian 09 at Wed Sep  8 10:56:44 2021.

 ----------------------------------------------------------
 #P Geom=AllCheck Guess=TCheck SCRF=Check B3LYP/GTBas3 Freq
 ----------------------------------------------------------

 Structure from the checkpoint file:  "/public/home/users/caep010/.cache/gau_scr/Gau-174235.chk"
 --------
 Frag_294
 --------
 Charge =  0 Multiplicity = 1

 SCF Done:  E(RB3LYP) =  -251.903899894     A.U. after    1 cycles

  Exact polarizability:  74.057   3.780  60.919  -1.120  -0.937  52.400
 Approx polarizability: 105.737   9.879  86.921  -4.372  -1.727  75.187

                      1                      2                      3
                      A                      A                      A
 Frequencies --    110.4434               225.0203               268.4244
 Red. masses --      2.4309                 1.0280                 1.4170
 Frc consts  --      0.0175                 0.0307                 0.0602
 IR Inten    --      0.2960                 6.4910                 8.7708

                      4                      5                      6
                      A                      A                      A
 Frequencies --    280.0102               296.3465               320.8893
 Red. masses --      1.0896                 1.4527                 1.7980
 Frc consts  --      0.0503                 0.0752                 0.1091
 IR Inten    --      3.7856                16.9956                 1.2160

                      7                      8                      9
                      A                      A                      A
 Frequencies --    365.4104               389.9599               426.9581
 Red. masses --      2.4306                 2.0889                 2.5009
 Frc consts  --      0.1912                 0.1872                 0.2686
 IR Inten    --      2.3024                 1.4710                 4.3388

                     10                     11                     12
                      A                      A                      A
 Frequencies --    532.1703               703.5272               725.7326
 Red. masses --      2.5333                 1.7531                 3.2725
 Frc consts  --      0.4227                 0.5112                 1.0155
 IR Inten    --      1.5349                14.8957                 2.8384

                     13                     14                     15
                      A                      A                      A
 Frequencies --    881.5623               900.9659               941.1473
 Red. masses --      2.1111                 1.6359                 1.5418
 Frc consts  --      0.9666                 0.7824                 0.8046
 IR Inten    --     80.8084                52.7545                 0.4167

                     16                     17                     18
                      A                      A                      A
 Frequencies --    945.1159               998.6090              1011.2111
 Red. masses --      1.3619                 1.2790                 1.3874
 Frc consts  --      0.7167                 0.7514                 0.8359
 IR Inten    --     28.2731                15.9979                19.5690

                     19                     20                     21
                      A                      A                      A
 Frequencies --   1034.2344              1047.5026              1114.0904
 Red. masses --      1.4290                 1.1429                 1.5055
 Frc consts  --      0.9006                 0.7389                 1.1010
 IR Inten    --      1.4645                 7.7225                 4.6039

                     22                     23                     24
                      A                      A                      A
 Frequencies --   1209.3725              1262.9678              1315.1581
 Red. masses --      2.5067                 2.6025                 1.5009
 Frc consts  --      2.1601                 2.4459                 1.5296
 IR Inten    --     21.4110                25.5861                 1.2381

                     25                     26                     27
                      A                      A                      A
 Frequencies --   1358.5405              1396.0767              1410.6159
 Red. masses --      1.4456                 1.3570                 1.2446
 Frc consts  --      1.5720                 1.5583                 1.4591
 IR Inten    --      0.1922                 6.7309                 6.7064

                     28                     29                     30
                      A                      A                      A
 Frequencies --   1454.0941              1484.5020              1486.3663
 Red. masses --      1.1739                 1.0600                 1.0500
 Frc consts  --      1.4624                 1.3763                 1.3667
 IR Inten    --      5.5613                 0.5730                 0.6862

                     31                     32                     33
                      A                      A                      A
 Frequencies --   1496.9582              1509.4196              1657.1519
 Red. masses --      1.0571                 1.0591                 1.0939
 Frc consts  --      1.3957                 1.4217                 1.7699
 IR Inten    --      3.1813                 3.7667                23.4533

                     34                     35                     36
                      A                      A                      A
 Frequencies --   1707.3651              3029.8434              3039.6854
 Red. masses --      4.8393                 1.0363                 1.0365
 Frc consts  --      8.3116                 5.6052                 5.6427
 IR Inten    --      9.2291                27.7174                10.3110

                     37                     38                     39
                      A                      A                      A
 Frequencies --   3097.1618              3106.5849              3107.7737
 Red. masses --      1.0979                 1.0996                 1.0850
 Frc consts  --      6.2050                 6.2525                 6.1743
 IR Inten    --     15.1233                29.1493                30.3557

                     40                     41                     42
                      A                      A                      A
 Frequencies --   3119.5615              3126.1577              3150.5284
 Red. masses --      1.1028                 1.1020                 1.0642
 Frc consts  --      6.3229                 6.3451                 6.2236
 IR Inten    --      5.0153                33.3045                 5.7874

                     43                     44                     45
                      A                      A                      A
 Frequencies --   3226.4486              3463.9349              3542.1503
 Red. masses --      1.1140                 1.0492                 1.0916
 Frc consts  --      6.8325                 7.4171                 8.0695
 IR Inten    --     14.5047                 1.0762                 0.2698

 - Thermochemistry -
 -------------------
 Temperature   298.150 Kelvin.  Pressure   1.00000 Atm.
 Atom     1 has atomic number  6 and mass  12.00000

 Molecular mass:    85.08915 amu.
 Principal axes and moments of inertia in atomic units:
                           1         2         3
     Eigenvalues --   399.62090 665.11176 685.94065
           X            0.99941   0.01818   0.02902
           Y           -0.01723   0.99932  -0.03257
           Z           -0.02959   0.03205   0.99905
 This molecule is an asymmetric top.
 Rotational symmetry number  1.
 Rotational temperatures (Kelvin)      0.21674     0.13022     0.12627
 Rotational constants (GHZ):           4.51613     2.71344     2.63105
 Zero-point vibrational energy     402410.3 (Joules/Mol)
                                   96.17837 (Kcal/Mol)
 Warning -- explicit consideration of  10 degrees of freedom as
           vibrations may cause significant error
 Vibrational temperatures:    158.90   323.75   386.20   402.87   426.38
          (Kelvin)            461.69   525.74   561.06   614.30   765.67
                             1012.22  1044.17  1268.37  1296.29  1354.10
                             1359.81  1436.77  1454.91  1488.03  1507.12
                             1602.93  1740.02  1817.13  1892.22  1954.63
                             2008.64  2029.56  2092.11  2135.86  2138.55
                             2153.79  2171.72  2384.27  2456.51  4359.26
                             4373.42  4456.12  4469.68  4471.39  4488.35
                             4497.84  4532.90  4642.13  4983.82  5096.36

 Zero-point correction=                           0.153270 (Hartree/Particle)
 Thermal correction to Energy=                    0.160885
 Thermal correction to Enthalpy=                  0.161830
 Thermal correction to Gibbs Free Energy=         0.122734
 Sum of electronic and zero-point Energies=           -251.750630
 Sum of electronic and thermal Energies=              -251.743014
 Sum of electronic and thermal Enthalpies=            -251.742070
 Sum of electronic and thermal Free Energies=         -251.781166

                     E (Thermal)             CV                S
                      KCal/Mol        Cal/Mol-Kelvin    Cal/Mol-Kelvin
 Total                  100.957             28.594             82.284
 Electronic               0.000              0.000              0.000
 Translational            0.889              2.981             39.237
 Rotational               0.889              2.981             26.702
 Vibrational             99.180             22.633             16.345
 Vibration     1          0.606              1.941              3.261
 Vibration     2          0.650              1.803              1.918
 Vibration     3          0.673              1.731              1.606
 Vibration     4          0.680              1.711              1.534
 Vibration     5          0.690              1.681              1.437
 Vibration     6          0.706              1.634              1.306
 Vibration     7          0.739              1.543              1.099
 Vibration     8          0.758              1.492              1.000
 Vibration     9          0.789              1.412              0.869
 Vibration    10          0.887              1.179              0.582

 Optimization completed.
    -- Stationary point found.
 Normal termination of Gaussian 09 at Wed Sep  8 10:57:25 2021.

 -----------------------------------------------------------------
 #P Geom=AllCheck Guess=TCheck SCRF=Check CCSD(T,E4T,FrzG4)/GTBas1
 -----------------------------------------------------------------

 Structure from the checkpoint file:  "/public/home/users/caep010/.cache/gau_scr/Gau-174235.chk"
 --------
 Frag_294
 --------
 Charge =  0 Multiplicity = 1

 SCF Done:  E(RHF) =  -250.160484308     A.U. after   12 cycles
 E2 =    -0.8168778871D+00 EUMP2 =    -0.25097736219490D+03
 CCSD(T)
 CCSD(T)= -0.25107134729D+03
 414559\CCSD=-251.0430166\CCSD(T)=-251.0713473\RMSD=6.492e-09\PG=C01 [X
 Normal termination of Gaussian 09 at Wed Sep  8 10:59:49 2021.

 ---------------------------------------------------------
 #P Geom=AllCheck Guess=TCheck SCRF=Check MP4=FrzG4/GTBas2
 ---------------------------------------------------------

 Structure from the checkpoint file:  "/public/home/users/caep010/.cache/gau_scr/Gau-174235.chk"
 --------
 Frag_294
 --------
 Charge =  0 Multiplicity = 1

 SCF Done:  E(RHF) =  -250.168754729     A.U. after   13 cycles
 E2 =    -0.8273420741D+00 EUMP2 =    -0.25099609680270D+03
 Normal termination of Gaussian 09 at Wed Sep  8 11:00:33 2021.

 ---------------------------------------------------------
 #P Geom=AllCheck Guess=TCheck SCRF=Check MP4=FrzG4/GTBas3
 ---------------------------------------------------------

 Structure from the checkpoint file:  "/public/home/users/caep010/.cache/gau_scr/Gau-174235.chk"
 --------
 Frag_294
 --------
 Charge =  0 Multiplicity = 1

 SCF Done:  E(RHF) =  -250.195628269     A.U. after   10 cycles
 E2 =    -0.1010190701D+01 EUMP2 =    -0.25120581896950D+03
 Normal termination of Gaussian 09 at Wed Sep  8 11:05:14 2021.

 -----------------------------------------------------------
 #P Geom=AllCheck Guess=TCheck SCRF=Check MP2=Full/GTLargeXP
 -----------------------------------------------------------

 Structure from the checkpoint file:  "/public/home/users/caep010/.cache/gau_scr/Gau-174235.chk"
 --------
 Frag_294
 --------
 Charge =  0 Multiplicity = 1

 SCF Done:  E(RHF) =  -250.253315402     A.U. after   12 cycles
 E2 =    -0.1330908268D+01 EUMP2 =    -0.25158422366980D+03
 Normal termination of Gaussian 09 at Wed Sep  8 11:07:53 2021.
 SCF Done:  E(RHF) =  -250.273030971     A.U. after    8 cycles
 Normal termination of Gaussian 09 at Wed Sep  8 11:10:25 2021.

                         Standard orientation:
 ---------------------------------------------------------------------
 Center     Atomic      Atomic             Coordinates (Angstroms)
 Number     Number       Type             X           Y           Z
 ---------------------------------------------------------------------
      1          6           0       -2.194046    0.085478    0.082214
      2          6           0       -0.998610    0.661491   -0.002894
      3          6           0        0.365809   -0.003679   -0.018880
      4          6           0        0.287978   -1.527195    0.128728
      5          6           0        1.228554    0.590400    1.107208
      6          7           0        1.062960    0.281388   -1.297348
      7          1           0       -3.106372    0.672241    0.050837
      8          1           0       -2.319104   -0.987048    0.187159
      9          1           0       -0.949192    1.747604   -0.101609
     10          1           0        1.294915   -1.950037    0.092208
     11          1           0       -0.178504   -1.811386    1.076229
     12          1           0       -0.294159   -1.975229   -0.683422
     13          1           0        1.294551    1.680921    1.016727
     14          1           0        2.242948    0.184529    1.055064
     15          1           0        0.801919    0.362798    2.088212
     16          1           0        0.471558   -0.021331   -2.068367
     17          1           0        1.162608    1.288256   -1.409858
 ---------------------------------------------------------------------

 SCF Done:  E(RHF) =  -250.277167268     A.U. after    8 cycles

 The electronic state is 1-A.
 Alpha  occ. eigenvalues --  -15.53902 -11.26702 -11.23147 -11.22166 -11.21352
 Alpha  occ. eigenvalues --  -11.21058  -1.19414  -1.05379  -0.99423  -0.93549
 Alpha  occ. eigenvalues --   -0.82773  -0.72997  -0.66154  -0.64932  -0.61185
 Alpha  occ. eigenvalues --   -0.60168  -0.54042  -0.53389  -0.52810  -0.50403
 Alpha  occ. eigenvalues --   -0.49240  -0.47021  -0.40625  -0.36086
 Alpha virt. eigenvalues --    0.03408   0.04145   0.04488   0.05120   0.06145
 Alpha virt. eigenvalues --    0.06852   0.07087   0.07270   0.07763   0.09480
 Alpha virt. eigenvalues --    0.09666   0.10032   0.10675   0.10844   0.11554

 Mulliken charges:
               1
     1  C   -0.496329
     2  C   -0.204867
     3  C    0.448943
     4  C   -0.622368
     5  C   -0.565349
     6  N   -0.733593
     7  H    0.192841
     8  H    0.178591
     9  H    0.188006
    10  H    0.190391
    11  H    0.174785
    12  H    0.164388
    13  H    0.154230
    14  H    0.181900
    15  H    0.174871
    16  H    0.290722
    17  H    0.282837
 Sum of Mulliken charges =  -0.00000

 Dipole moment (field-independent basis, Debye):
    X=             -0.8732    Y=              0.5535    Z=              0.0556  Tot=              1.0353
 Quadrupole moment (field-independent basis, Debye-Ang):
   XX=            -42.3034   YY=            -37.3543   ZZ=            -40.3508
   XY=              1.3244   XZ=              1.9776   YZ=             -1.3115

 Normal termination of Gaussian 09 at Wed Sep  8 11:20:02 2021.
