 Gaussian 09, Revision E.01,
 Gaussian 09:  ES64L-G09RevE.01 30-Nov-2015

 -----
 #P G4
 -----

 --------
 Frag_796
 --------
 Symbolic Z-matrix:
 Charge =  0 Multiplicity = 1

 SCF Done:  E(RB3LYP) =  -301.239396467     A.U. after   12 cycles
 SCF Done:  E(RB3LYP) =  -301.248042035     A.U. after   10 cycles
 SCF Done:  E(RB3LYP) =  -301.248889120     A.U. after   10 cycles
 SCF Done:  E(RB3LYP) =  -301.249229718     A.U. after   10 cycles
 SCF Done:  E(RB3LYP) =  -301.249404829     A.U. after   10 cycles
 SCF Done:  E(RB3LYP) =  -301.249504037     A.U. after   10 cycles
 SCF Done:  E(RB3LYP) =  -301.249629624     A.U. after   10 cycles
 SCF Done:  E(RB3LYP) =  -301.249653010     A.U. after    9 cycles
 SCF Done:  E(RB3LYP) =  -301.249656152     A.U. after    8 cycles
 SCF Done:  E(RB3LYP) =  -301.249656659     A.U. after    7 cycles
 SCF Done:  E(RB3LYP) =  -301.249658343     A.U. after    7 cycles
 SCF Done:  E(RB3LYP) =  -301.249659394     A.U. after    6 cycles
 SCF Done:  E(RB3LYP) =  -301.249659781     A.U. after    6 cycles
 Optimization completed.
    -- Stationary point found.
 Normal termination of Gaussian 09 at Wed Aug 24 06:00:00 2022.

 ----------------------------------------------------------
 #P Geom=AllCheck Guess=TCheck SCRF=Check B3LYP/GTBas3 Freq
 ----------------------------------------------------------

 Structure from the checkpoint file:  "G4.Frag_796.chk"
 --------
 Frag_796
 --------
 Charge =  0 Multiplicity = 1

 SCF Done:  E(RB3LYP) =  -301.249659781     A.U. after    1 cycles

  Exact polarizability:  56.335  -1.441  52.804  -1.891  -0.395  48.820
 Approx polarizability:  74.901  -2.697  76.032  -3.534  -1.593  69.353

                      1                      2                      3
                      A                      A                      A
 Frequencies --    119.2398               172.9939               215.5784
 Red. masses --      2.7618                 1.0555                 1.1018
 Frc consts  --      0.0231                 0.0186                 0.0302
 IR Inten    --      1.3972                68.7106                 2.7633

                      4                      5                      6
                      A                      A                      A
 Frequencies --    255.4665               292.6611               332.1728
 Red. masses --      3.2351                 1.1427                 1.1029
 Frc consts  --      0.1244                 0.0577                 0.0717
 IR Inten    --      3.1139                37.8278                24.4262

                      7                      8                      9
                      A                      A                      A
 Frequencies --    383.3107               403.4365               482.6996
 Red. masses --      2.3069                 2.6540                 2.5147
 Frc consts  --      0.1997                 0.2545                 0.3452
 IR Inten    --      1.3469                15.2417                19.8854

                     10                     11                     12
                      A                      A                      A
 Frequencies --    484.2494               582.5626               772.5839
 Red. masses --      2.8675                 3.3140                 3.3893
 Frc consts  --      0.3962                 0.6627                 1.1919
 IR Inten    --     11.8180                13.4170                26.5777

                     13                     14                     15
                      A                      A                      A
 Frequencies --    853.3854               869.2262               911.1301
 Red. masses --      1.4723                 1.5300                 1.5727
 Frc consts  --      0.6318                 0.6811                 0.7692
 IR Inten    --     31.3424               135.9502               219.0989

                     16                     17                     18
                      A                      A                      A
 Frequencies --    929.1927               967.8419               993.4667
 Red. masses --      1.5902                 1.6725                 1.8217
 Frc consts  --      0.8089                 0.9231                 1.0593
 IR Inten    --     29.5561               126.2834                38.6459

                     19                     20                     21
                      A                      A                      A
 Frequencies --   1061.0105              1078.2825              1122.8557
 Red. masses --      1.4832                 2.6470                 1.1916
 Frc consts  --      0.9837                 1.8133                 0.8852
 IR Inten    --     23.2277                14.0114                19.3095

                     22                     23                     24
                      A                      A                      A
 Frequencies --   1198.3514              1242.3752              1316.2797
 Red. masses --      1.3019                 2.2308                 1.3036
 Frc consts  --      1.1015                 2.0287                 1.3307
 IR Inten    --     21.3190                41.1167                27.6515

                     25                     26                     27
                      A                      A                      A
 Frequencies --   1373.5253              1378.9713              1424.7094
 Red. masses --      1.6887                 1.6299                 1.6516
 Frc consts  --      1.8771                 1.8261                 1.9752
 IR Inten    --     23.5007                21.6543                 1.7261

                     28                     29                     30
                      A                      A                      A
 Frequencies --   1481.5541              1621.0248              1641.8430
 Red. masses --      1.0860                 1.0948                 1.0956
 Frc consts  --      1.4044                 1.6949                 1.7401
 IR Inten    --      3.0048                41.1236                40.6436

                     31                     32                     33
                      A                      A                      A
 Frequencies --   1657.0947              1672.4725              2982.6307
 Red. masses --      1.1120                 1.0900                 1.0658
 Frc consts  --      1.7991                 1.7963                 5.5863
 IR Inten    --     12.8070                31.3617                62.1297

                     34                     35                     36
                      A                      A                      A
 Frequencies --   3057.6671              3466.5337              3476.6391
 Red. masses --      1.0970                 1.0487                 1.0501
 Frc consts  --      6.0427                 7.4246                 7.4784
 IR Inten    --     35.5093                 3.6472                 0.6690

                     37                     38                     39
                      A                      A                      A
 Frequencies --   3486.6613              3505.2437              3547.1661
 Red. masses --      1.0496                 1.0499                 1.0894
 Frc consts  --      7.5178                 7.6000                 8.0762
 IR Inten    --      1.0128                 0.2414                 1.3669

                     40                     41                     42
                      A                      A                      A
 Frequencies --   3557.5128              3573.5992              3580.3081
 Red. masses --      1.0920                 1.0913                 1.0924
 Frc consts  --      8.1427                 8.2112                 8.2501
 IR Inten    --      4.0342                 0.8470                 1.8647

 - Thermochemistry -
 -------------------
 Temperature   298.150 Kelvin.  Pressure   1.00000 Atm.
 Atom     1 has atomic number  7 and mass  14.00307

 Molecular mass:    90.09055 amu.
 Principal axes and moments of inertia in atomic units:
                           1         2         3
     Eigenvalues --   377.09492 676.16132 684.18740
           X            0.99999  -0.00446  -0.00267
           Y            0.00519   0.82794   0.56080
           Z           -0.00029  -0.56080   0.82795
 This molecule is an asymmetric top.
 Rotational symmetry number  1.
 Rotational temperatures (Kelvin)      0.22969     0.12810     0.12659
 Rotational constants (GHZ):           4.78591     2.66910     2.63779
 Zero-point vibrational energy     379966.9 (Joules/Mol)
                                   90.81428 (Kcal/Mol)
 Warning -- explicit consideration of  11 degrees of freedom as
           vibrations may cause significant error
 Vibrational temperatures:    171.56   248.90   310.17   367.56   421.07
          (Kelvin)            477.92   551.50   580.45   694.50   696.73
                              838.18  1111.57  1227.83  1250.62  1310.91
                             1336.90  1392.51  1429.38  1526.56  1551.41
                             1615.54  1724.16  1787.50  1893.83  1976.19
                             1984.03  2049.84  2131.62  2332.29  2362.24
                             2384.19  2406.31  4291.33  4399.30  4987.56
                             5002.10  5016.52  5043.26  5103.57  5118.46
                             5141.61  5151.26

 Zero-point correction=                           0.144722 (Hartree/Particle)
 Thermal correction to Energy=                    0.152509
 Thermal correction to Enthalpy=                  0.153453
 Thermal correction to Gibbs Free Energy=         0.113900
 Sum of electronic and zero-point Energies=           -301.104938
 Sum of electronic and thermal Energies=              -301.097151
 Sum of electronic and thermal Enthalpies=            -301.096206
 Sum of electronic and thermal Free Energies=         -301.135759

                     E (Thermal)             CV                S
                      KCal/Mol        Cal/Mol-Kelvin    Cal/Mol-Kelvin
 Total                   95.701             28.787             83.246
 Electronic               0.000              0.000              0.000
 Translational            0.889              2.981             39.407
 Rotational               0.889              2.981             26.659
 Vibrational             93.924             22.826             17.181
 Vibration     1          0.609              1.933              3.113
 Vibration     2          0.627              1.876              2.403
 Vibration     3          0.645              1.817              1.996
 Vibration     4          0.666              1.754              1.693
 Vibration     5          0.688              1.687              1.459
 Vibration     6          0.714              1.611              1.249
 Vibration     7          0.753              1.506              1.026
 Vibration     8          0.769              1.463              0.950
 Vibration     9          0.839              1.288              0.703
 Vibration    10          0.840              1.285              0.699
 Vibration    11          0.939              1.069              0.481

 Optimization completed.
    -- Stationary point found.
 Normal termination of Gaussian 09 at Wed Aug 24 06:03:13 2022.

 -----------------------------------------------------------------
 #P Geom=AllCheck Guess=TCheck SCRF=Check CCSD(T,E4T,FrzG4)/GTBas1
 -----------------------------------------------------------------

 Structure from the checkpoint file:  "G4.Frag_796.chk"
 --------
 Frag_796
 --------
 Charge =  0 Multiplicity = 1

 SCF Done:  E(RHF) =  -299.322433891     A.U. after   12 cycles
 E2 =    -0.9232821409D+00 EUMP2 =    -0.30024571603149D+03
 CCSD(T)
 CCSD(T)= -0.30032814661D+03
 .3269063\MP4SDQ=-300.300969\CCSD=-300.3021182\CCSD(T)=-300.3281466\RMS
 Normal termination of Gaussian 09 at Wed Aug 24 06:09:47 2022.

 ---------------------------------------------------------
 #P Geom=AllCheck Guess=TCheck SCRF=Check MP4=FrzG4/GTBas2
 ---------------------------------------------------------

 Structure from the checkpoint file:  "G4.Frag_796.chk"
 --------
 Frag_796
 --------
 Charge =  0 Multiplicity = 1

 SCF Done:  E(RHF) =  -299.336885195     A.U. after   11 cycles
 E2 =    -0.9412197408D+00 EUMP2 =    -0.30027810493536D+03
 Normal termination of Gaussian 09 at Wed Aug 24 06:19:29 2022.

 ---------------------------------------------------------
 #P Geom=AllCheck Guess=TCheck SCRF=Check MP4=FrzG4/GTBas3
 ---------------------------------------------------------

 Structure from the checkpoint file:  "G4.Frag_796.chk"
 --------
 Frag_796
 --------
 Charge =  0 Multiplicity = 1

 SCF Done:  E(RHF) =  -299.372365705     A.U. after   11 cycles
 E2 =    -0.1135262521D+01 EUMP2 =    -0.30050762822628D+03
 Normal termination of Gaussian 09 at Wed Aug 24 09:59:34 2022.

 -----------------------------------------------------------
 #P Geom=AllCheck Guess=TCheck SCRF=Check MP2=Full/GTLargeXP
 -----------------------------------------------------------

 Structure from the checkpoint file:  "G4.Frag_796.chk"
 --------
 Frag_796
 --------
 Charge =  0 Multiplicity = 1

 SCF Done:  E(RHF) =  -299.453739439     A.U. after   11 cycles
 E2 =    -0.1477274746D+01 EUMP2 =    -0.30093101418500D+03
 Normal termination of Gaussian 09 at Wed Aug 24 10:06:53 2022.
 SCF Done:  E(RHF) =  -299.476607034     A.U. after    8 cycles
 Normal termination of Gaussian 09 at Wed Aug 24 10:13:24 2022.

                         Standard orientation:
 ---------------------------------------------------------------------
 Center     Atomic      Atomic             Coordinates (Angstroms)
 Number     Number       Type             X           Y           Z
 ---------------------------------------------------------------------
      1          7           0       -2.039223   -0.000447    0.048467
      2          6           0       -0.848836   -0.509129   -0.645990
      3          6           0        0.452309    0.010814    0.017501
      4          7           0        1.649350   -0.473400   -0.664356
      5          7           0        0.468366    1.466885   -0.123436
      6          7           0        0.544002   -0.394948    1.427020
      7          1           0       -2.291345    0.909899   -0.323245
      8          1           0       -2.836776   -0.602884   -0.122349
      9          1           0       -0.822584   -0.254577   -1.716494
     10          1           0       -0.847578   -1.602321   -0.563133
     11          1           0        1.684253   -0.041150   -1.582783
     12          1           0        1.588666   -1.477641   -0.811270
     13          1           0       -0.291947    1.841055    0.439665
     14          1           0        1.317950    1.787651    0.337250
     15          1           0       -0.402271   -0.421729    1.802780
     16          1           0        0.923327   -1.335044    1.496657
 ---------------------------------------------------------------------

 SCF Done:  E(RHF) =  -299.481793645     A.U. after    8 cycles

 The electronic state is 1-A.
 Alpha  occ. eigenvalues --  -15.55189 -15.54014 -15.53204 -15.52797 -11.31023
 Alpha  occ. eigenvalues --  -11.25286  -1.26070  -1.17841  -1.12356  -1.11989
 Alpha  occ. eigenvalues --   -0.92867  -0.78227  -0.70120  -0.68025  -0.66487
 Alpha  occ. eigenvalues --   -0.62167  -0.60083  -0.58664  -0.57026  -0.53589
 Alpha  occ. eigenvalues --   -0.50944  -0.43016  -0.41998  -0.40114  -0.37603
 Alpha virt. eigenvalues --    0.03088   0.04615   0.05121   0.05426   0.06993
 Alpha virt. eigenvalues --    0.07253   0.07496   0.08970   0.09104   0.11763
 Alpha virt. eigenvalues --    0.12125   0.12370   0.12915   0.13167   0.13443

 Mulliken charges:
               1
     1  N   -0.723726
     2  C   -0.216998
     3  C    0.507161
     4  N   -0.746125
     5  N   -0.744744
     6  N   -0.738828
     7  H    0.293608
     8  H    0.296090
     9  H    0.148012
    10  H    0.151920
    11  H    0.314067
    12  H    0.276005
    13  H    0.280141
    14  H    0.308559
    15  H    0.314886
    16  H    0.279973
 Sum of Mulliken charges =  -0.00000

 Dipole moment (field-independent basis, Debye):
    X=             -2.3493    Y=             -1.6662    Z=             -1.3919  Tot=              3.1989
 Quadrupole moment (field-independent basis, Debye-Ang):
   XX=            -38.8647   YY=            -34.5435   ZZ=            -40.3774
   XY=             -1.0371   XZ=             -0.4832   YZ=              1.4267

 Normal termination of Gaussian 09 at Wed Aug 24 13:27:30 2022.
