 Gaussian 09, Revision E.01,
 Gaussian 09:  ES64L-G09RevE.01 30-Nov-2015

 -----
 #P G4
 -----

 ---------
 Frag_1127
 ---------
 Symbolic Z-matrix:
 Charge =  0 Multiplicity = 1

 SCF Done:  E(RB3LYP) =  -264.495901150     A.U. after   15 cycles
 SCF Done:  E(RB3LYP) =  -264.507830230     A.U. after   13 cycles
 SCF Done:  E(RB3LYP) =  -264.509135144     A.U. after   13 cycles
 SCF Done:  E(RB3LYP) =  -264.509748560     A.U. after   14 cycles
 SCF Done:  E(RB3LYP) =  -264.509906633     A.U. after   14 cycles
 SCF Done:  E(RB3LYP) =  -264.510197581     A.U. after   12 cycles
 SCF Done:  E(RB3LYP) =  -264.510267486     A.U. after   12 cycles
 SCF Done:  E(RB3LYP) =  -264.510275896     A.U. after   10 cycles
 SCF Done:  E(RB3LYP) =  -264.510278748     A.U. after    8 cycles
 SCF Done:  E(RB3LYP) =  -264.510279744     A.U. after    9 cycles
 SCF Done:  E(RB3LYP) =  -264.510280746     A.U. after    9 cycles
 SCF Done:  E(RB3LYP) =  -264.510281310     A.U. after    9 cycles
 Optimization completed.
    -- Stationary point found.
 Normal termination of Gaussian 09 at Sun Aug 21 19:32:20 2022.

 ----------------------------------------------------------
 #P Geom=AllCheck Guess=TCheck SCRF=Check B3LYP/GTBas3 Freq
 ----------------------------------------------------------

 Structure from the checkpoint file:  "G4.Frag_1127.chk"
 ---------
 Frag_1127
 ---------
 Charge =  0 Multiplicity = 1

 SCF Done:  E(RB3LYP) =  -264.510281310     A.U. after    1 cycles

  Exact polarizability:  52.952  -0.615  34.938  -0.749   1.453  35.454
 Approx polarizability:  73.191  -4.820  48.532  -4.167   2.659  54.183

                      1                      2                      3
                      A                      A                      A
 Frequencies --     92.8477               221.1887               240.2226
 Red. masses --      6.2395                 1.0781                 1.0971
 Frc consts  --      0.0317                 0.0311                 0.0373
 IR Inten    --      2.4996                15.8530                74.5708

                      4                      5                      6
                      A                      A                      A
 Frequencies --    357.2242               410.8326               440.7623
 Red. masses --      3.1279                 2.7374                 3.7566
 Frc consts  --      0.2352                 0.2722                 0.4300
 IR Inten    --      0.2518                 4.4956                35.2622

                      7                      8                      9
                      A                      A                      A
 Frequencies --    584.5172               831.1893               890.6963
 Red. masses --      3.9854                 2.0636                 1.7855
 Frc consts  --      0.8023                 0.8400                 0.8346
 IR Inten    --      6.6413                13.4696                19.0016

                     10                     11                     12
                      A                      A                      A
 Frequencies --    961.5959              1070.7254              1099.1139
 Red. masses --      1.5470                 1.8501                 1.7641
 Frc consts  --      0.8428                 1.2497                 1.2556
 IR Inten    --      9.3002                61.4038                29.4765

                     13                     14                     15
                      A                      A                      A
 Frequencies --   1159.7158              1308.5803              1339.4752
 Red. masses --      2.2505                 1.4783                 1.3624
 Frc consts  --      1.7833                 1.4914                 1.4402
 IR Inten    --    111.1218                10.0942                11.6172

                     16                     17                     18
                      A                      A                      A
 Frequencies --   1392.6886              1419.9426              1483.1970
 Red. masses --      1.2462                 1.2172                 1.0716
 Frc consts  --      1.4241                 1.4459                 1.3889
 IR Inten    --      6.3765                67.6455                 1.9207

                     19                     20                     21
                      A                      A                      A
 Frequencies --   1489.1438              1495.5882              1661.2686
 Red. masses --      1.1018                 1.2163                10.3721
 Frc consts  --      1.4396                 1.6029                16.8654
 IR Inten    --      7.5699                36.2552                 1.5966

                     22                     23                     24
                      A                      A                      A
 Frequencies --   3038.8445              3066.3954              3115.1506
 Red. masses --      1.0354                 1.0862                 1.1002
 Frc consts  --      5.6335                 6.0172                 6.2907
 IR Inten    --     10.3331                14.4367                23.2789

                     25                     26                     27
                      A                      A                      A
 Frequencies --   3131.7914              3237.5487              3787.0782
 Red. masses --      1.1026                 1.0739                 1.0652
 Frc consts  --      6.3719                 6.6321                 9.0010
 IR Inten    --     11.7316                28.7709                21.1495

 - Thermochemistry -
 -------------------
 Temperature   298.150 Kelvin.  Pressure   1.00000 Atm.
 Atom     1 has atomic number  6 and mass  12.00000

 Molecular mass:    74.04801 amu.
 Principal axes and moments of inertia in atomic units:
                           1         2         3
     Eigenvalues --   216.92345 434.29872 583.83703
           X            0.99829   0.05842  -0.00268
           Y           -0.05838   0.99822   0.01191
           Z            0.00337  -0.01174   0.99993
 This molecule is an asymmetric top.
 Rotational symmetry number  1.
 Rotational temperatures (Kelvin)      0.39928     0.19943     0.14835
 Rotational constants (GHZ):           8.31971     4.15553     3.09117
 Zero-point vibrational energy     235229.6 (Joules/Mol)
                                   56.22123 (Kcal/Mol)
 Warning -- explicit consideration of   7 degrees of freedom as
           vibrations may cause significant error
 Vibrational temperatures:    133.59   318.24   345.63   513.97   591.10
          (Kelvin)            634.16   840.99  1195.89  1281.51  1383.52
                             1540.53  1581.38  1668.57  1882.75  1927.20
                             2003.77  2042.98  2133.99  2142.54  2151.82
                             2390.19  4372.21  4411.85  4482.00  4505.94
                             4658.10  5448.75

 Zero-point correction=                           0.089594 (Hartree/Particle)
 Thermal correction to Energy=                    0.095591
 Thermal correction to Enthalpy=                  0.096535
 Thermal correction to Gibbs Free Energy=         0.060525
 Sum of electronic and zero-point Energies=           -264.420687
 Sum of electronic and thermal Energies=              -264.414691
 Sum of electronic and thermal Enthalpies=            -264.413747
 Sum of electronic and thermal Free Energies=         -264.449757

                     E (Thermal)             CV                S
                      KCal/Mol        Cal/Mol-Kelvin    Cal/Mol-Kelvin
 Total                   59.984             20.068             75.790
 Electronic               0.000              0.000              0.000
 Translational            0.889              2.981             38.822
 Rotational               0.889              2.981             25.512
 Vibrational             58.207             14.107             11.455
 Vibration     1          0.602              1.954              3.599
 Vibration     2          0.648              1.809              1.949
 Vibration     3          0.657              1.779              1.801
 Vibration     4          0.732              1.560              1.134
 Vibration     5          0.775              1.447              0.924
 Vibration     6          0.801              1.381              0.824
 Vibration     7          0.941              1.065              0.477

 Optimization completed.
    -- Stationary point found.
 Normal termination of Gaussian 09 at Sun Aug 21 19:33:34 2022.

 -----------------------------------------------------------------
 #P Geom=AllCheck Guess=TCheck SCRF=Check CCSD(T,E4T,FrzG4)/GTBas1
 -----------------------------------------------------------------

 Structure from the checkpoint file:  "G4.Frag_1127.chk"
 ---------
 Frag_1127
 ---------
 Charge =  0 Multiplicity = 1

 SCF Done:  E(RHF) =  -262.922570809     A.U. after   14 cycles
 E2 =    -0.7608898912D+00 EUMP2 =    -0.26368346070009D+03
 CCSD(T)
 CCSD(T)= -0.26374792478D+03
 7480603\MP4SDQ=-263.7228529\CCSD=-263.7231179\CCSD(T)=-263.7479248\RMS
 Normal termination of Gaussian 09 at Sun Aug 21 19:35:27 2022.

 ---------------------------------------------------------
 #P Geom=AllCheck Guess=TCheck SCRF=Check MP4=FrzG4/GTBas2
 ---------------------------------------------------------

 Structure from the checkpoint file:  "G4.Frag_1127.chk"
 ---------
 Frag_1127
 ---------
 Charge =  0 Multiplicity = 1

 SCF Done:  E(RHF) =  -262.932979850     A.U. after   13 cycles
 E2 =    -0.7734738206D+00 EUMP2 =    -0.26370645367069D+03
 Normal termination of Gaussian 09 at Sun Aug 21 19:37:20 2022.

 ---------------------------------------------------------
 #P Geom=AllCheck Guess=TCheck SCRF=Check MP4=FrzG4/GTBas3
 ---------------------------------------------------------

 Structure from the checkpoint file:  "G4.Frag_1127.chk"
 ---------
 Frag_1127
 ---------
 Charge =  0 Multiplicity = 1

 SCF Done:  E(RHF) =  -262.956130454     A.U. after   12 cycles
 E2 =    -0.9275166445D+00 EUMP2 =    -0.26388364709820D+03
 Normal termination of Gaussian 09 at Sun Aug 21 20:12:53 2022.

 -----------------------------------------------------------
 #P Geom=AllCheck Guess=TCheck SCRF=Check MP2=Full/GTLargeXP
 -----------------------------------------------------------

 Structure from the checkpoint file:  "G4.Frag_1127.chk"
 ---------
 Frag_1127
 ---------
 Charge =  0 Multiplicity = 1

 SCF Done:  E(RHF) =  -263.027541007     A.U. after   14 cycles
 E2 =    -0.1211476912D+01 EUMP2 =    -0.26423901791906D+03
 Normal termination of Gaussian 09 at Sun Aug 21 20:15:15 2022.
 SCF Done:  E(RHF) =  -263.048685461     A.U. after   11 cycles
 Normal termination of Gaussian 09 at Sun Aug 21 20:18:51 2022.

                         Standard orientation:
 ---------------------------------------------------------------------
 Center     Atomic      Atomic             Coordinates (Angstroms)
 Number     Number       Type             X           Y           Z
 ---------------------------------------------------------------------
      1          6           0        1.047413    1.230082   -0.080186
      2          6           0        0.355209   -0.069154    0.325692
      3          8           0        1.122473   -1.213316    0.051589
      4          7           0       -0.905569   -0.173389   -0.441816
      5          7           0       -1.907654    0.094833    0.235722
      6          1           0        1.176255    1.271051   -1.167280
      7          1           0        2.030924    1.278171    0.393616
      8          1           0        0.456992    2.097011    0.229754
      9          1           0        0.141860   -0.085423    1.399538
     10          1           0        1.217706   -1.272793   -0.906985
     11          1           0       -2.726692    0.002835   -0.391729
 ---------------------------------------------------------------------

 SCF Done:  E(RHF) =  -263.053101530     A.U. after    8 cycles

 The electronic state is 1-A.
 Alpha  occ. eigenvalues --  -20.56796 -15.63541 -15.62803 -11.31775 -11.22930
 Alpha  occ. eigenvalues --   -1.39750  -1.35122  -1.04839  -0.93645  -0.82232
 Alpha  occ. eigenvalues --   -0.71520  -0.68016  -0.63165  -0.60824  -0.58172
 Alpha  occ. eigenvalues --   -0.54370  -0.53173  -0.49583  -0.46474  -0.39806
 Alpha virt. eigenvalues --    0.03818   0.05081   0.05187   0.05551   0.07269
 Alpha virt. eigenvalues --    0.07706   0.08268   0.08666   0.09951   0.10669
 Alpha virt. eigenvalues --    0.13376   0.13677   0.14458   0.14795   0.15808

 Mulliken charges:
               1
     1  C   -0.532774
     2  C    0.204310
     3  O   -0.560813
     4  N   -0.111087
     5  N   -0.421204
     6  H    0.176573
     7  H    0.189070
     8  H    0.184759
     9  H    0.189034
    10  H    0.366266
    11  H    0.315866
 Sum of Mulliken charges =  -0.00000

 Dipole moment (field-independent basis, Debye):
    X=             -0.1962    Y=              1.2606    Z=             -1.2587  Tot=              1.7922
 Quadrupole moment (field-independent basis, Debye-Ang):
   XX=            -28.2689   YY=            -32.3803   ZZ=            -30.4154
   XY=              1.7259   XZ=              0.2586   YZ=              1.5400

 Normal termination of Gaussian 09 at Sun Aug 21 21:39:31 2022.
