 Gaussian 09, Revision E.01,
 Gaussian 09:  ES64L-G09RevE.01 30-Nov-2015

 -----
 #P G4
 -----

 --------
 Frag_618
 --------
 Symbolic Z-matrix:
 Charge =  0 Multiplicity = 1

 SCF Done:  E(RB3LYP) =  -344.380899963     A.U. after   12 cycles
 SCF Done:  E(RB3LYP) =  -344.387312311     A.U. after   11 cycles
 SCF Done:  E(RB3LYP) =  -344.388197180     A.U. after   10 cycles
 SCF Done:  E(RB3LYP) =  -344.388510249     A.U. after   10 cycles
 SCF Done:  E(RB3LYP) =  -344.388644512     A.U. after   10 cycles
 SCF Done:  E(RB3LYP) =  -344.388723230     A.U. after   10 cycles
 SCF Done:  E(RB3LYP) =  -344.388769242     A.U. after   10 cycles
 SCF Done:  E(RB3LYP) =  -344.388788468     A.U. after    9 cycles
 SCF Done:  E(RB3LYP) =  -344.388792580     A.U. after    7 cycles
 SCF Done:  E(RB3LYP) =  -344.388793139     A.U. after    7 cycles
 SCF Done:  E(RB3LYP) =  -344.388793340     A.U. after    7 cycles
 SCF Done:  E(RB3LYP) =  -344.388793353     A.U. after    6 cycles
 Optimization completed.
    -- Stationary point found.
 Normal termination of Gaussian 09 at Thu Aug 25 20:52:34 2022.

 ----------------------------------------------------------
 #P Geom=AllCheck Guess=TCheck SCRF=Check B3LYP/GTBas3 Freq
 ----------------------------------------------------------

 Structure from the checkpoint file:  "G4.Frag_618.chk"
 --------
 Frag_618
 --------
 Charge =  0 Multiplicity = 1

 SCF Done:  E(RB3LYP) =  -344.388793353     A.U. after    1 cycles

  Exact polarizability:  68.806  -0.302  64.610  -0.282   0.055  57.630
 Approx polarizability:  90.356   2.404  89.082   0.371   1.445  85.943

                      1                      2                      3
                      A                      A                      A
 Frequencies --     61.6937               193.5488               216.0649
 Red. masses --      2.4746                 1.1224                 1.1390
 Frc consts  --      0.0055                 0.0248                 0.0313
 IR Inten    --      0.5847                 4.9454                 1.2780

                      4                      5                      6
                      A                      A                      A
 Frequencies --    229.4253               239.5126               260.1717
 Red. masses --      1.1941                 1.2883                 1.9381
 Frc consts  --      0.0370                 0.0435                 0.0773
 IR Inten    --      3.8975                 6.4272                 4.2010

                      7                      8                      9
                      A                      A                      A
 Frequencies --    315.6396               365.0491               384.1069
 Red. masses --      2.2943                 2.2578                 2.1939
 Frc consts  --      0.1347                 0.1773                 0.1907
 IR Inten    --      7.3943                 2.0722                32.2411

                     10                     11                     12
                      A                      A                      A
 Frequencies --    417.9324               469.3346               519.7390
 Red. masses --      2.3890                 1.4525                 3.4316
 Frc consts  --      0.2459                 0.1885                 0.5462
 IR Inten    --      6.8132                42.4478                10.4832

                     13                     14                     15
                      A                      A                      A
 Frequencies --    531.5727               556.1160               720.5475
 Red. masses --      2.1037                 3.1667                 3.8480
 Frc consts  --      0.3502                 0.5770                 1.1771
 IR Inten    --     34.8958                 0.7954                 2.8500

                     16                     17                     18
                      A                      A                      A
 Frequencies --    865.4380               899.1862               947.7306
 Red. masses --      2.3847                 1.5251                 1.8907
 Frc consts  --      1.0523                 0.7265                 1.0006
 IR Inten    --    120.7100                55.6640                20.6978

                     19                     20                     21
                      A                      A                      A
 Frequencies --    986.6366              1052.4751              1069.2784
 Red. masses --      2.3279                 1.6613                 1.4928
 Frc consts  --      1.3352                 1.0842                 1.0056
 IR Inten    --     66.0340                40.0103                 4.3787

                     22                     23                     24
                      A                      A                      A
 Frequencies --   1078.6621              1119.4749              1180.0675
 Red. masses --      1.7363                 1.2549                 1.5613
 Frc consts  --      1.1903                 0.9266                 1.2810
 IR Inten    --     47.9426                 4.8284                 6.0633

                     25                     26                     27
                      A                      A                      A
 Frequencies --   1187.6706              1260.1950              1289.6224
 Red. masses --      2.6144                 2.5536                 2.2908
 Frc consts  --      2.1727                 2.3893                 2.2447
 IR Inten    --     29.1649                62.1811                61.6698

                     28                     29                     30
                      A                      A                      A
 Frequencies --   1321.5661              1372.0169              1412.9711
 Red. masses --      2.2927                 1.3717                 1.5112
 Frc consts  --      2.3592                 1.5214                 1.7776
 IR Inten    --     98.7738                32.4610                39.4421

                     31                     32                     33
                      A                      A                      A
 Frequencies --   1437.3334              1467.5055              1482.9452
 Red. masses --      1.1556                 1.1359                 1.0676
 Frc consts  --      1.4066                 1.4413                 1.3833
 IR Inten    --      1.3534                 5.6844                 5.4116

                     34                     35                     36
                      A                      A                      A
 Frequencies --   1491.9878              1496.2112              1501.0287
 Red. masses --      1.0499                 1.0530                 1.0876
 Frc consts  --      1.3770                 1.3889                 1.4438
 IR Inten    --      5.1645                 3.8441                 0.6663

                     37                     38                     39
                      A                      A                      A
 Frequencies --   1509.6497              1519.4120              1641.4856
 Red. masses --      1.0459                 1.0539                 1.1106
 Frc consts  --      1.4045                 1.4334                 1.7632
 IR Inten    --      6.0678                 9.7799                44.7263

                     40                     41                     42
                      A                      A                      A
 Frequencies --   2905.9330              2963.5012              3054.0971
 Red. masses --      1.0639                 1.0571                 1.0359
 Frc consts  --      5.2930                 5.4701                 5.6928
 IR Inten    --     82.6340                72.0428                 9.5271

                     43                     44                     45
                      A                      A                      A
 Frequencies --   3064.4359              3070.8045              3120.6069
 Red. masses --      1.0710                 1.0785                 1.0987
 Frc consts  --      5.9260                 5.9921                 6.3040
 IR Inten    --     24.6523                44.3878                24.4965

                     46                     47                     48
                      A                      A                      A
 Frequencies --   3128.0608              3131.1409              3140.0147
 Red. masses --      1.0974                 1.1014                 1.1008
 Frc consts  --      6.3267                 6.3621                 6.3949
 IR Inten    --     16.7820                21.3154                21.3791

                     49                     50                     51
                      A                      A                      A
 Frequencies --   3487.7965              3568.0571              3794.7927
 Red. masses --      1.0491                 1.0919                 1.0650
 Frc consts  --      7.5193                 8.1904                 9.0358
 IR Inten    --      0.1992                 0.4609                26.0188

 - Thermochemistry -
 -------------------
 Temperature   298.150 Kelvin.  Pressure   1.00000 Atm.
 Atom     1 has atomic number  6 and mass  12.00000

 Molecular mass:   104.09496 amu.
 Principal axes and moments of inertia in atomic units:
                           1         2         3
     Eigenvalues --   547.66567 760.98646 920.88180
           X            0.99800  -0.06323  -0.00020
           Y            0.06322   0.99784  -0.01803
           Z            0.00134   0.01798   0.99984
 This molecule is an asymmetric top.
 Rotational symmetry number  1.
 Warning -- assumption of classical behavior for rotation
           may cause significant error
 Rotational temperatures (Kelvin)      0.15815     0.11382     0.09406
 Rotational constants (GHZ):           3.29533     2.37158     1.95980
 Zero-point vibrational energy     445610.4 (Joules/Mol)
                                  106.50345 (Kcal/Mol)
 Warning -- explicit consideration of  14 degrees of freedom as
           vibrations may cause significant error
 Vibrational temperatures:     88.76   278.47   310.87   330.09   344.60
          (Kelvin)            374.33   454.13   525.22   552.64   601.31
                              675.27   747.79   764.81   800.13  1036.71
                             1245.17  1293.73  1363.57  1419.55  1514.28
                             1538.45  1551.95  1610.67  1697.85  1708.79
                             1813.14  1855.48  1901.44  1974.02  2032.95
                             2068.00  2111.41  2133.62  2146.64  2152.71
                             2159.64  2172.05  2186.09  2361.73  4180.98
                             4263.81  4394.16  4409.03  4418.20  4489.85
                             4500.58  4505.01  4517.78  5018.15  5133.63
                             5459.85

 Zero-point correction=                           0.169724 (Hartree/Particle)
 Thermal correction to Energy=                    0.178716
 Thermal correction to Enthalpy=                  0.179660
 Thermal correction to Gibbs Free Energy=         0.137171
 Sum of electronic and zero-point Energies=           -344.219069
 Sum of electronic and thermal Energies=              -344.210078
 Sum of electronic and thermal Enthalpies=            -344.209134
 Sum of electronic and thermal Free Energies=         -344.251622

                     E (Thermal)             CV                S
                      KCal/Mol        Cal/Mol-Kelvin    Cal/Mol-Kelvin
 Total                  112.146             33.521             89.425
 Electronic               0.000              0.000              0.000
 Translational            0.889              2.981             39.838
 Rotational               0.889              2.981             27.442
 Vibrational            110.368             27.559             22.145
 Vibration     1          0.597              1.973              4.402
 Vibration     2          0.635              1.849              2.194
 Vibration     3          0.645              1.817              1.992
 Vibration     4          0.652              1.796              1.883
 Vibration     5          0.657              1.780              1.807
 Vibration     6          0.668              1.746              1.661
 Vibration     7          0.703              1.644              1.333
 Vibration     8          0.738              1.544              1.101
 Vibration     9          0.753              1.504              1.023
 Vibration    10          0.781              1.431              0.899
 Vibration    11          0.826              1.318              0.739
 Vibration    12          0.875              1.206              0.611
 Vibration    13          0.887              1.180              0.584
 Vibration    14          0.912              1.126              0.532

 Optimization completed.
    -- Stationary point found.
 Normal termination of Gaussian 09 at Thu Aug 25 21:00:28 2022.

 -----------------------------------------------------------------
 #P Geom=AllCheck Guess=TCheck SCRF=Check CCSD(T,E4T,FrzG4)/GTBas1
 -----------------------------------------------------------------

 Structure from the checkpoint file:  "G4.Frag_618.chk"
 --------
 Frag_618
 --------
 Charge =  0 Multiplicity = 1

 SCF Done:  E(RHF) =  -342.186517174     A.U. after   11 cycles
 E2 =    -0.1038438079D+01 EUMP2 =    -0.34322495525214D+03
 CCSD(T)
 CCSD(T)= -0.34332269169D+03
 219898\MP4SDQ=-343.290431\CCSD=-343.2913421\CCSD(T)=-343.3226917\RMSD=
 Normal termination of Gaussian 09 at Thu Aug 25 21:18:27 2022.

 ---------------------------------------------------------
 #P Geom=AllCheck Guess=TCheck SCRF=Check MP4=FrzG4/GTBas2
 ---------------------------------------------------------

 Structure from the checkpoint file:  "G4.Frag_618.chk"
 --------
 Frag_618
 --------
 Charge =  0 Multiplicity = 1

 SCF Done:  E(RHF) =  -342.196625890     A.U. after   11 cycles
 E2 =    -0.1055356340D+01 EUMP2 =    -0.34325198223007D+03
 Normal termination of Gaussian 09 at Thu Aug 25 21:44:41 2022.

 ---------------------------------------------------------
 #P Geom=AllCheck Guess=TCheck SCRF=Check MP4=FrzG4/GTBas3
 ---------------------------------------------------------

 Structure from the checkpoint file:  "G4.Frag_618.chk"
 --------
 Frag_618
 --------
 Charge =  0 Multiplicity = 1

 SCF Done:  E(RHF) =  -342.234878262     A.U. after   10 cycles
 E2 =    -0.1288946337D+01 EUMP2 =    -0.34352382459909D+03
 Normal termination of Gaussian 09 at Fri Aug 26 03:57:02 2022.

 -----------------------------------------------------------
 #P Geom=AllCheck Guess=TCheck SCRF=Check MP2=Full/GTLargeXP
 -----------------------------------------------------------

 Structure from the checkpoint file:  "G4.Frag_618.chk"
 --------
 Frag_618
 --------
 Charge =  0 Multiplicity = 1

 SCF Done:  E(RHF) =  -342.321008883     A.U. after   11 cycles
 E2 =    -0.1682504348D+01 EUMP2 =    -0.34400351323126D+03
 Normal termination of Gaussian 09 at Fri Aug 26 04:12:49 2022.
 SCF Done:  E(RHF) =  -342.347567369     A.U. after    8 cycles
 Normal termination of Gaussian 09 at Fri Aug 26 04:24:03 2022.

                         Standard orientation:
 ---------------------------------------------------------------------
 Center     Atomic      Atomic             Coordinates (Angstroms)
 Number     Number       Type             X           Y           Z
 ---------------------------------------------------------------------
      1          6           0        1.487037    1.273526    0.060147
      2          7           0        0.802845    0.074811   -0.394871
      3          6           0        1.597256   -1.120486   -0.140380
      4          6           0       -0.610307   -0.043336   -0.018831
      5          6           0       -1.422470    1.129255   -0.587121
      6          7           0       -0.752794   -0.219265    1.437961
      7          8           0       -1.161692   -1.201222   -0.609621
      8          1           0        0.946209    2.173444   -0.238651
      9          1           0        1.653599    1.318354    1.154953
     10          1           0        2.475256    1.316355   -0.409174
     11          1           0        1.747069   -1.337125    0.930926
     12          1           0        1.124589   -1.984347   -0.610206
     13          1           0        2.581918   -0.990731   -0.600639
     14          1           0       -1.241019    1.229361   -1.659824
     15          1           0       -1.183643    2.073992   -0.094839
     16          1           0       -2.483807    0.920316   -0.431462
     17          1           0       -1.732038   -0.128614    1.695718
     18          1           0       -0.251995    0.510724    1.936032
     19          1           0       -1.002057   -1.914520    0.019612
 ---------------------------------------------------------------------

 SCF Done:  E(RHF) =  -342.353508769     A.U. after    8 cycles

 The electronic state is 1-A.
 Alpha  occ. eigenvalues --  -20.54975 -15.54773 -15.54312 -11.34201 -11.24760
 Alpha  occ. eigenvalues --  -11.23591 -11.21257  -1.38195  -1.22452  -1.15570
 Alpha  occ. eigenvalues --   -0.99237  -0.94785  -0.88380  -0.77115  -0.70988
 Alpha  occ. eigenvalues --   -0.68502  -0.64426  -0.63137  -0.59612  -0.57218
 Alpha  occ. eigenvalues --   -0.55468  -0.54609  -0.53665  -0.52499  -0.51041
 Alpha  occ. eigenvalues --   -0.50371  -0.46302  -0.41165  -0.35816
 Alpha virt. eigenvalues --    0.03136   0.04015   0.04299   0.05013   0.06121
 Alpha virt. eigenvalues --    0.06514   0.07002   0.07173   0.07733   0.09212
 Alpha virt. eigenvalues --    0.09293   0.10101   0.10787   0.11956   0.12751

 Mulliken charges:
               1
     1  C   -0.520707
     2  N   -0.001392
     3  C   -0.558774
     4  C    0.555418
     5  C   -0.565156
     6  N   -0.797311
     7  O   -0.637676
     8  H    0.177024
     9  H    0.131421
    10  H    0.176883
    11  H    0.163017
    12  H    0.184054
    13  H    0.166052
    14  H    0.192254
    15  H    0.169579
    16  H    0.180181
    17  H    0.298942
    18  H    0.300611
    19  H    0.385580
 Sum of Mulliken charges =  -0.00000

 Dipole moment (field-independent basis, Debye):
    X=              0.3350    Y=              1.3086    Z=              1.8302  Tot=              2.2747
 Quadrupole moment (field-independent basis, Debye-Ang):
   XX=            -43.6368   YY=            -42.8925   ZZ=            -47.7126
   XY=             -1.0116   XZ=             -2.4949   YZ=              0.3355

 Normal termination of Gaussian 09 at Fri Aug 26 09:55:34 2022.
