 Gaussian 09, Revision E.01,
 Gaussian 09:  ES64L-G09RevE.01 30-Nov-2015

 -----
 #P G4
 -----

 ---------
 Frag_1046
 ---------
 Symbolic Z-matrix:
 Charge =  0 Multiplicity = 1

 SCF Done:  E(RB3LYP) =  -364.272115044     A.U. after   12 cycles
 SCF Done:  E(RB3LYP) =  -364.278228105     A.U. after   11 cycles
 SCF Done:  E(RB3LYP) =  -364.278714769     A.U. after   10 cycles
 SCF Done:  E(RB3LYP) =  -364.278897126     A.U. after    9 cycles
 SCF Done:  E(RB3LYP) =  -364.279028947     A.U. after   11 cycles
 SCF Done:  E(RB3LYP) =  -364.279114434     A.U. after   10 cycles
 SCF Done:  E(RB3LYP) =  -364.279189356     A.U. after    9 cycles
 SCF Done:  E(RB3LYP) =  -364.279331501     A.U. after   10 cycles
 SCF Done:  E(RB3LYP) =  -364.279411533     A.U. after   10 cycles
 SCF Done:  E(RB3LYP) =  -364.279487099     A.U. after   10 cycles
 SCF Done:  E(RB3LYP) =  -364.280461871     A.U. after    9 cycles
 SCF Done:  E(RB3LYP) =  -364.280465100     A.U. after    7 cycles
 SCF Done:  E(RB3LYP) =  -364.280465179     A.U. after    6 cycles
 Optimization completed.
    -- Stationary point found.
 Normal termination of Gaussian 09 at Wed Aug 24 14:20:29 2022.

 ----------------------------------------------------------
 #P Geom=AllCheck Guess=TCheck SCRF=Check B3LYP/GTBas3 Freq
 ----------------------------------------------------------

 Structure from the checkpoint file:  "G4.Frag_1046.chk"
 ---------
 Frag_1046
 ---------
 Charge =  0 Multiplicity = 1

 SCF Done:  E(RB3LYP) =  -364.280465179     A.U. after    1 cycles

  Exact polarizability:  61.832   1.385  60.156  -0.274  -0.941  55.819
 Approx polarizability:  80.044   0.505  82.603   1.183  -0.854  85.392

                      1                      2                      3
                      A                      A                      A
 Frequencies --     85.7869               188.6995               204.9291
 Red. masses --      2.8576                 1.1048                 1.0583
 Frc consts  --      0.0124                 0.0232                 0.0262
 IR Inten    --      1.3604                 3.4471                50.3014

                      4                      5                      6
                      A                      A                      A
 Frequencies --    219.9255               258.1310               271.8991
 Red. masses --      1.1526                 2.2079                 2.7792
 Frc consts  --      0.0328                 0.0867                 0.1211
 IR Inten    --     14.1724                 3.0218                 8.0723

                      7                      8                      9
                      A                      A                      A
 Frequencies --    293.6315               311.0128               352.2179
 Red. masses --      1.3471                 1.0938                 2.6115
 Frc consts  --      0.0684                 0.0623                 0.1909
 IR Inten    --     20.7761               140.1236                 8.8727

                     10                     11                     12
                      A                      A                      A
 Frequencies --    428.8431               431.7481               505.3798
 Red. masses --      2.8328                 2.8999                 2.9941
 Frc consts  --      0.3069                 0.3185                 0.4506
 IR Inten    --      9.1714                15.6968                 5.1960

                     13                     14                     15
                      A                      A                      A
 Frequencies --    559.9395               597.9506               744.1117
 Red. masses --      4.5696                 2.7599                 3.2971
 Frc consts  --      0.8441                 0.5814                 1.0756
 IR Inten    --     15.5431                16.2330                13.1515

                     16                     17                     18
                      A                      A                      A
 Frequencies --    838.6122               901.3770               932.3578
 Red. masses --      1.7600                 2.3807                 1.1737
 Frc consts  --      0.7293                 1.1396                 0.6012
 IR Inten    --    105.1021                12.3749                 0.4292

                     19                     20                     21
                      A                      A                      A
 Frequencies --    961.9188               985.3445              1003.4343
 Red. masses --      1.6021                 2.5271                 2.5313
 Frc consts  --      0.8734                 1.4456                 1.5016
 IR Inten    --     39.1382                97.6014                81.5445

                     22                     23                     24
                      A                      A                      A
 Frequencies --   1079.2420              1135.7805              1162.5028
 Red. masses --      1.4925                 1.9743                 2.0416
 Frc consts  --      1.0243                 1.5006                 1.6256
 IR Inten    --     12.7724                33.0745               130.1713

                     25                     26                     27
                      A                      A                      A
 Frequencies --   1201.5425              1215.5533              1342.5822
 Red. masses --      1.5564                 1.5845                 1.4001
 Frc consts  --      1.3239                 1.3794                 1.4869
 IR Inten    --      6.6243                29.4800                39.5820

                     28                     29                     30
                      A                      A                      A
 Frequencies --   1348.6572              1375.0082              1394.7054
 Red. masses --      1.5048                 1.7352                 1.3121
 Frc consts  --      1.6126                 1.9329                 1.5038
 IR Inten    --     10.0773                66.9195                17.4317

                     31                     32                     33
                      A                      A                      A
 Frequencies --   1407.2785              1434.8756              1482.5227
 Red. masses --      1.4263                 1.5749                 1.0443
 Frc consts  --      1.6642                 1.9104                 1.3523
 IR Inten    --     17.0458                49.7807                 0.6310

                     34                     35                     36
                      A                      A                      A
 Frequencies --   1494.7894              1499.4552              1518.9986
 Red. masses --      1.0477                 1.0452                 1.0630
 Frc consts  --      1.3793                 1.3845                 1.4450
 IR Inten    --      0.7079                 5.5304                11.2714

                     37                     38                     39
                      A                      A                      A
 Frequencies --   1642.4145              2970.2909              3037.9744
 Red. masses --      1.1110                 1.0818                 1.0360
 Frc consts  --      1.7658                 5.6232                 5.6333
 IR Inten    --     37.7146                40.7326                19.6840

                     40                     41                     42
                      A                      A                      A
 Frequencies --   3044.5052              3103.1846              3111.5884
 Red. masses --      1.0376                 1.1004                 1.0999
 Frc consts  --      5.6667                 6.2435                 6.2746
 IR Inten    --     25.7664                11.5053                35.6320

                     43                     44                     45
                      A                      A                      A
 Frequencies --   3119.8841              3138.5337              3504.3900
 Red. masses --      1.1013                 1.0997                 1.0484
 Frc consts  --      6.3159                 6.3826                 7.5861
 IR Inten    --     24.7318                18.3447                 2.1155

                     46                     47                     48
                      A                      A                      A
 Frequencies --   3592.4854              3817.7280              3829.4641
 Red. masses --      1.0931                 1.0662                 1.0647
 Frc consts  --      8.3122                 9.1557                 9.1993
 IR Inten    --      2.0350                16.8258                37.2007

 - Thermochemistry -
 -------------------
 Temperature   298.150 Kelvin.  Pressure   1.00000 Atm.
 Atom     1 has atomic number  6 and mass  12.00000

 Molecular mass:   105.07898 amu.
 Principal axes and moments of inertia in atomic units:
                           1         2         3
     Eigenvalues --   553.23039 765.68569 951.87951
           X            0.99935   0.03131  -0.01779
           Y           -0.03176   0.99916  -0.02573
           Z            0.01697   0.02628   0.99951
 This molecule is an asymmetric top.
 Rotational symmetry number  1.
 Warning -- assumption of classical behavior for rotation
           may cause significant error
 Rotational temperatures (Kelvin)      0.15656     0.11312     0.09099
 Rotational constants (GHZ):           3.26219     2.35703     1.89598
 Zero-point vibrational energy     413209.2 (Joules/Mol)
                                   98.75937 (Kcal/Mol)
 Warning -- explicit consideration of  14 degrees of freedom as
           vibrations may cause significant error
 Vibrational temperatures:    123.43   271.50   294.85   316.42   371.39
          (Kelvin)            391.20   422.47   447.48   506.76   617.01
                              621.19   727.13   805.63   860.32  1070.61
                             1206.57  1296.88  1341.45  1383.98  1417.69
                             1443.72  1552.79  1634.13  1672.58  1728.75
                             1748.91  1931.67  1940.41  1978.33  2006.67
                             2024.76  2064.46  2133.02  2150.67  2157.38
                             2185.50  2363.07  4273.58  4370.96  4380.36
                             4464.78  4476.88  4488.81  4515.64  5042.03
                             5168.78  5492.85  5509.74

 Zero-point correction=                           0.157383 (Hartree/Particle)
 Thermal correction to Energy=                    0.166446
 Thermal correction to Enthalpy=                  0.167391
 Thermal correction to Gibbs Free Energy=         0.124923
 Sum of electronic and zero-point Energies=           -364.123082
 Sum of electronic and thermal Energies=              -364.114019
 Sum of electronic and thermal Enthalpies=            -364.113075
 Sum of electronic and thermal Free Energies=         -364.155542

                     E (Thermal)             CV                S
                      KCal/Mol        Cal/Mol-Kelvin    Cal/Mol-Kelvin
 Total                  104.447             33.684             89.380
 Electronic               0.000              0.000              0.000
 Translational            0.889              2.981             39.866
 Rotational               0.889              2.981             27.491
 Vibrational            102.669             27.722             22.023
 Vibration     1          0.601              1.959              3.754
 Vibration     2          0.633              1.855              2.241
 Vibration     3          0.640              1.833              2.088
 Vibration     4          0.647              1.811              1.960
 Vibration     5          0.667              1.749              1.674
 Vibration     6          0.675              1.725              1.584
 Vibration     7          0.688              1.686              1.453
 Vibration     8          0.700              1.653              1.357
 Vibration     9          0.729              1.571              1.156
 Vibration    10          0.790              1.407              0.862
 Vibration    11          0.793              1.401              0.853
 Vibration    12          0.861              1.238              0.645
 Vibration    13          0.916              1.118              0.524
 Vibration    14          0.956              1.036              0.453

 Optimization completed.
    -- Stationary point found.
 Normal termination of Gaussian 09 at Wed Aug 24 14:25:57 2022.

 -----------------------------------------------------------------
 #P Geom=AllCheck Guess=TCheck SCRF=Check CCSD(T,E4T,FrzG4)/GTBas1
 -----------------------------------------------------------------

 Structure from the checkpoint file:  "G4.Frag_1046.chk"
 ---------
 Frag_1046
 ---------
 Charge =  0 Multiplicity = 1

 SCF Done:  E(RHF) =  -362.039325049     A.U. after   12 cycles
 E2 =    -0.1052330386D+01 EUMP2 =    -0.36309165543578D+03
 CCSD(T)
 CCSD(T)= -0.36318261154D+03
 .1525963\CCSD(T)=-363.1826115\RMSD=3.977e-09\PG=C01 [X(C4H11N1O2)]\\@
 Normal termination of Gaussian 09 at Wed Aug 24 14:42:14 2022.

 ---------------------------------------------------------
 #P Geom=AllCheck Guess=TCheck SCRF=Check MP4=FrzG4/GTBas2
 ---------------------------------------------------------

 Structure from the checkpoint file:  "G4.Frag_1046.chk"
 ---------
 Frag_1046
 ---------
 Charge =  0 Multiplicity = 1

 SCF Done:  E(RHF) =  -362.050434339     A.U. after   11 cycles
 E2 =    -0.1070534026D+01 EUMP2 =    -0.36312096836540D+03
 Normal termination of Gaussian 09 at Wed Aug 24 15:07:01 2022.

 ---------------------------------------------------------
 #P Geom=AllCheck Guess=TCheck SCRF=Check MP4=FrzG4/GTBas3
 ---------------------------------------------------------

 Structure from the checkpoint file:  "G4.Frag_1046.chk"
 ---------
 Frag_1046
 ---------
 Charge =  0 Multiplicity = 1

 SCF Done:  E(RHF) =  -362.092660505     A.U. after   11 cycles
 E2 =    -0.1309530351D+01 EUMP2 =    -0.36340219085624D+03
 Normal termination of Gaussian 09 at Wed Aug 24 20:45:57 2022.

 -----------------------------------------------------------
 #P Geom=AllCheck Guess=TCheck SCRF=Check MP2=Full/GTLargeXP
 -----------------------------------------------------------

 Structure from the checkpoint file:  "G4.Frag_1046.chk"
 ---------
 Frag_1046
 ---------
 Charge =  0 Multiplicity = 1

 SCF Done:  E(RHF) =  -362.187657858     A.U. after   12 cycles
 E2 =    -0.1709387066D+01 EUMP2 =    -0.36389704492398D+03
 Normal termination of Gaussian 09 at Wed Aug 24 20:59:56 2022.
 SCF Done:  E(RHF) =  -362.216678195     A.U. after    8 cycles
 Normal termination of Gaussian 09 at Wed Aug 24 21:10:14 2022.

                         Standard orientation:
 ---------------------------------------------------------------------
 Center     Atomic      Atomic             Coordinates (Angstroms)
 Number     Number       Type             X           Y           Z
 ---------------------------------------------------------------------
      1          6           0       -1.578132   -1.221025   -0.046138
      2          6           0       -0.833304    0.055170   -0.460065
      3          6           0       -1.547979    1.301790    0.076551
      4          6           0        0.650110    0.013068   -0.000295
      5          7           0        1.327705    1.225104   -0.380962
      6          8           0        0.771788   -0.070399    1.393348
      7          8           0        1.290742   -1.178221   -0.486086
      8          1           0       -2.600503   -1.210420   -0.435119
      9          1           0       -1.642001   -1.286943    1.045422
     10          1           0       -1.080484   -2.123033   -0.410797
     11          1           0       -0.821097    0.106385   -1.561151
     12          1           0       -2.597572    1.305581   -0.234779
     13          1           0       -1.512984    1.307563    1.170035
     14          1           0       -1.073445    2.219547   -0.274275
     15          1           0        1.279915    1.359178   -1.385575
     16          1           0        2.305459    1.142590   -0.119532
     17          1           0        0.746987   -1.009063    1.607422
     18          1           0        1.057377   -1.292165   -1.413332
 ---------------------------------------------------------------------

 SCF Done:  E(RHF) =  -362.223124116     A.U. after    8 cycles

 The electronic state is 1-A.
 Alpha  occ. eigenvalues --  -20.56483 -20.55771 -15.54412 -11.36706 -11.23659
 Alpha  occ. eigenvalues --  -11.21679 -11.20659  -1.42272  -1.33139  -1.17814
 Alpha  occ. eigenvalues --   -1.06854  -0.92901  -0.87958  -0.79523  -0.73416
 Alpha  occ. eigenvalues --   -0.68713  -0.66094  -0.61799  -0.60942  -0.58868
 Alpha  occ. eigenvalues --   -0.55961  -0.54313  -0.53286  -0.52040  -0.50873
 Alpha  occ. eigenvalues --   -0.47991  -0.47796  -0.43666  -0.41528
 Alpha virt. eigenvalues --    0.03130   0.03948   0.04313   0.04767   0.06507
 Alpha virt. eigenvalues --    0.06692   0.07060   0.07411   0.07797   0.09749
 Alpha virt. eigenvalues --    0.10330   0.10416   0.10554   0.12144   0.12721

 Mulliken charges:
               1
     1  C   -0.580587
     2  C    0.015517
     3  C   -0.551535
     4  C    0.574877
     5  N   -0.729872
     6  O   -0.625102
     7  O   -0.614550
     8  H    0.171631
     9  H    0.168955
    10  H    0.171301
    11  H    0.136690
    12  H    0.158538
    13  H    0.186483
    14  H    0.176405
    15  H    0.282862
    16  H    0.303970
    17  H    0.388289
    18  H    0.366130
 Sum of Mulliken charges =  -0.00000

 Dipole moment (field-independent basis, Debye):
    X=             -0.6384    Y=             -1.0418    Z=             -2.5088  Tot=              2.7905
 Quadrupole moment (field-independent basis, Debye-Ang):
   XX=            -44.5191   YY=            -46.7902   ZZ=            -41.0532
   XY=              1.3857   XZ=             -2.2710   YZ=             -2.5169

 Normal termination of Gaussian 09 at Thu Aug 25 02:14:13 2022.
