 Gaussian 09, Revision E.01,
 Gaussian 09:  ES64L-G09RevE.01 30-Nov-2015

 -----
 #P G4
 -----

 --------
 Frag_699
 --------
 Symbolic Z-matrix:
 Charge =  0 Multiplicity = 1

 SCF Done:  E(RB3LYP) =  -206.495314282     A.U. after   12 cycles
 SCF Done:  E(RB3LYP) =  -206.507118274     A.U. after   12 cycles
 SCF Done:  E(RB3LYP) =  -206.511197069     A.U. after   12 cycles
 SCF Done:  E(RB3LYP) =  -206.512489449     A.U. after   10 cycles
 SCF Done:  E(RB3LYP) =  -206.512805013     A.U. after   10 cycles
 SCF Done:  E(RB3LYP) =  -206.512865739     A.U. after   10 cycles
 SCF Done:  E(RB3LYP) =  -206.512878308     A.U. after    9 cycles
 SCF Done:  E(RB3LYP) =  -206.512878956     A.U. after    7 cycles
 Optimization completed.
    -- Stationary point found.
 Normal termination of Gaussian 09 at Mon Aug 22 19:27:42 2022.

 ----------------------------------------------------------
 #P Geom=AllCheck Guess=TCheck SCRF=Check B3LYP/GTBas3 Freq
 ----------------------------------------------------------

 Structure from the checkpoint file:  "G4.Frag_699.chk"
 --------
 Frag_699
 --------
 Charge =  0 Multiplicity = 1

 SCF Done:  E(RB3LYP) =  -206.512878956     A.U. after    1 cycles

  Exact polarizability:  40.725  -0.487  33.364   0.091  -0.195  32.718
 Approx polarizability:  52.410  -1.383  47.896  -0.496  -0.219  46.921

                      1                      2                      3
                      A                      A                      A
 Frequencies --    173.9324               246.3588               335.8775
 Red. masses --      1.4243                 1.2297                 2.1992
 Frc consts  --      0.0254                 0.0440                 0.1462
 IR Inten    --      2.2987                 1.3878                 3.9668

                      4                      5                      6
                      A                      A                      A
 Frequencies --    438.0697               559.9900               722.3850
 Red. masses --      1.3796                 2.6069                 2.2704
 Frc consts  --      0.1560                 0.4817                 0.6981
 IR Inten    --     28.6597                13.5890                92.6972

                      7                      8                      9
                      A                      A                      A
 Frequencies --    771.9389               918.2574               978.4870
 Red. masses --      1.5939                 1.6428                 1.4774
 Frc consts  --      0.5596                 0.8161                 0.8334
 IR Inten    --    137.8807                65.6322                21.8561

                     10                     11                     12
                      A                      A                      A
 Frequencies --   1094.2310              1132.4666              1141.7457
 Red. masses --      4.8523                 1.8284                 1.5379
 Frc consts  --      3.4231                 1.3816                 1.1812
 IR Inten    --      7.9766                38.1240                 5.4354

                     13                     14                     15
                      A                      A                      A
 Frequencies --   1211.2683              1312.0507              1438.8896
 Red. masses --      1.5643                 1.3226                 1.1723
 Frc consts  --      1.3522                 1.3415                 1.4300
 IR Inten    --     12.3098                 6.7650                 0.3324

                     16                     17                     18
                      A                      A                      A
 Frequencies --   1464.9796              1484.9186              1516.2858
 Red. masses --      1.1554                 1.0594                 1.0468
 Frc consts  --      1.4610                 1.3763                 1.4180
 IR Inten    --      0.9363                 7.3076                 4.5734

                     19                     20                     21
                      A                      A                      A
 Frequencies --   1552.2088              1678.0412              2957.4934
 Red. masses --      1.0670                 1.0668                 1.0561
 Frc consts  --      1.5147                 1.7699                 5.4426
 IR Inten    --      0.8181                 9.1998                63.8150

                     22                     23                     24
                      A                      A                      A
 Frequencies --   3057.2525              3106.7366              3421.5427
 Red. masses --      1.0773                 1.1006                 1.0510
 Frc consts  --      5.9325                 6.2588                 7.2492
 IR Inten    --     32.0841                20.7098                10.7018

                     25                     26                     27
                      A                      A                      A
 Frequencies --   3511.4710              3532.2620              3544.8492
 Red. masses --      1.0746                 1.0791                 1.0848
 Frc consts  --      7.8069                 7.9329                 8.0313
 IR Inten    --      1.4420                 0.7642                 0.8367

 - Thermochemistry -
 -------------------
 Temperature   298.150 Kelvin.  Pressure   1.00000 Atm.
 Atom     1 has atomic number  6 and mass  12.00000

 Molecular mass:    61.06400 amu.
 Principal axes and moments of inertia in atomic units:
                           1         2         3
     Eigenvalues --   115.24448 323.74409 389.34530
           X            0.99975   0.02001   0.00948
           Y           -0.01994   0.99978  -0.00699
           Z           -0.00961   0.00680   0.99993
 This molecule is an asymmetric top.
 Rotational symmetry number  1.
 Rotational temperatures (Kelvin)      0.75157     0.26754     0.22246
 Rotational constants (GHZ):          15.66011     5.57459     4.63532
 Zero-point vibrational energy     259015.4 (Joules/Mol)
                                   61.90616 (Kcal/Mol)
 Warning -- explicit consideration of   5 degrees of freedom as
           vibrations may cause significant error
 Vibrational temperatures:    250.25   354.45   483.25   630.28   805.70
          (Kelvin)           1039.35  1110.65  1321.17  1407.82  1574.35
                             1629.36  1642.72  1742.74  1887.75  2070.24
                             2107.78  2136.46  2181.59  2233.28  2414.32
                             4255.17  4398.70  4469.90  4922.83  5052.22
                             5082.13  5100.24

 Zero-point correction=                           0.098654 (Hartree/Particle)
 Thermal correction to Energy=                    0.103820
 Thermal correction to Enthalpy=                  0.104764
 Thermal correction to Gibbs Free Energy=         0.071400
 Sum of electronic and zero-point Energies=           -206.414225
 Sum of electronic and thermal Energies=              -206.409059
 Sum of electronic and thermal Enthalpies=            -206.408115
 Sum of electronic and thermal Free Energies=         -206.441479

                     E (Thermal)             CV                S
                      KCal/Mol        Cal/Mol-Kelvin    Cal/Mol-Kelvin
 Total                   65.148             17.630             70.222
 Electronic               0.000              0.000              0.000
 Translational            0.889              2.981             38.248
 Rotational               0.889              2.981             24.189
 Vibrational             63.371             11.668              7.785
 Vibration     1          0.627              1.875              2.393
 Vibration     2          0.661              1.769              1.756
 Vibration     3          0.717              1.604              1.232
 Vibration     4          0.798              1.387              0.833
 Vibration     5          0.916              1.118              0.524

 Normal termination of Gaussian 09 at Mon Aug 22 19:28:29 2022.

 -----------------------------------------------------------------
 #P Geom=AllCheck Guess=TCheck SCRF=Check CCSD(T,E4T,FrzG4)/GTBas1
 -----------------------------------------------------------------

 Structure from the checkpoint file:  "G4.Frag_699.chk"
 --------
 Frag_699
 --------
 Charge =  0 Multiplicity = 1

 SCF Done:  E(RHF) =  -205.192413794     A.U. after   12 cycles
 E2 =    -0.6249077748D+00 EUMP2 =    -0.20581732156875D+03
 CCSD(T)
 CCSD(T)= -0.20587639395D+03
 \MP4SDQ=-205.8577615\CCSD=-205.85873\CCSD(T)=-205.8763939\RMSD=3.329e-
 Normal termination of Gaussian 09 at Mon Aug 22 19:29:12 2022.

 ---------------------------------------------------------
 #P Geom=AllCheck Guess=TCheck SCRF=Check MP4=FrzG4/GTBas2
 ---------------------------------------------------------

 Structure from the checkpoint file:  "G4.Frag_699.chk"
 --------
 Frag_699
 --------
 Charge =  0 Multiplicity = 1

 SCF Done:  E(RHF) =  -205.200530745     A.U. after   12 cycles
 E2 =    -0.6352002928D+00 EUMP2 =    -0.20583573103740D+03
 Normal termination of Gaussian 09 at Mon Aug 22 19:29:31 2022.

 ---------------------------------------------------------
 #P Geom=AllCheck Guess=TCheck SCRF=Check MP4=FrzG4/GTBas3
 ---------------------------------------------------------

 Structure from the checkpoint file:  "G4.Frag_699.chk"
 --------
 Frag_699
 --------
 Charge =  0 Multiplicity = 1

 SCF Done:  E(RHF) =  -205.224389419     A.U. after   11 cycles
 E2 =    -0.7686768555D+00 EUMP2 =    -0.20599306627453D+03
 Normal termination of Gaussian 09 at Mon Aug 22 19:38:59 2022.

 -----------------------------------------------------------
 #P Geom=AllCheck Guess=TCheck SCRF=Check MP2=Full/GTLargeXP
 -----------------------------------------------------------

 Structure from the checkpoint file:  "G4.Frag_699.chk"
 --------
 Frag_699
 --------
 Charge =  0 Multiplicity = 1

 SCF Done:  E(RHF) =  -205.280143977     A.U. after   12 cycles
 E2 =    -0.9983369567D+00 EUMP2 =    -0.20627848093394D+03
 Normal termination of Gaussian 09 at Mon Aug 22 19:40:07 2022.
 SCF Done:  E(RHF) =  -205.296278392     A.U. after    9 cycles
 Normal termination of Gaussian 09 at Mon Aug 22 19:42:05 2022.

                         Standard orientation:
 ---------------------------------------------------------------------
 Center     Atomic      Atomic             Coordinates (Angstroms)
 Number     Number       Type             X           Y           Z
 ---------------------------------------------------------------------
      1          6           0        1.453051    0.488485    0.093115
      2          7           0        0.634539   -0.683450   -0.203739
      3          7           0       -0.726746   -0.646230    0.213679
      4          7           0       -1.483292    0.537590   -0.041131
      5          1           0        1.108179    1.436548   -0.352596
      6          1           0        1.511686    0.623592    1.179231
      7          1           0        2.465874    0.301268   -0.275591
      8          1           0        0.636443   -0.879430   -1.199035
      9          1           0       -0.724468   -0.774457    1.219761
     10          1           0       -0.934294    1.385230    0.107979
     11          1           0       -1.753235    0.520974   -1.020109
 ---------------------------------------------------------------------

 SCF Done:  E(RHF) =  -205.299903999     A.U. after    8 cycles

 The electronic state is 1-A.
 Alpha  occ. eigenvalues --  -15.59916 -15.57395 -15.57090 -11.25315  -1.31476
 Alpha  occ. eigenvalues --   -1.15777  -0.99865  -0.88531  -0.69942  -0.66292
 Alpha  occ. eigenvalues --   -0.64698  -0.62517  -0.56855  -0.54101  -0.43706
 Alpha  occ. eigenvalues --   -0.40219  -0.38334
 Alpha virt. eigenvalues --    0.04299   0.05008   0.05320   0.05808   0.08307
 Alpha virt. eigenvalues --    0.08880   0.08948   0.09984   0.10576   0.13104
 Alpha virt. eigenvalues --    0.13741   0.14993   0.15381   0.19290   0.19732

 Mulliken charges:
               1
     1  C   -0.425074
     2  N   -0.347394
     3  N   -0.266053
     4  N   -0.601640
     5  H    0.136291
     6  H    0.165300
     7  H    0.182504
     8  H    0.284587
     9  H    0.304595
    10  H    0.276939
    11  H    0.289942
 Sum of Mulliken charges =  -0.00000

 Dipole moment (field-independent basis, Debye):
    X=              1.4649    Y=              1.8794    Z=             -0.8837  Tot=              2.5415
 Quadrupole moment (field-independent basis, Debye-Ang):
   XX=            -29.5107   YY=            -27.9035   ZZ=            -22.0184
   XY=              0.3913   XZ=              1.0077   YZ=             -0.3298

 Normal termination of Gaussian 09 at Mon Aug 22 20:33:14 2022.
