 Gaussian 09, Revision E.01,
 Gaussian 09:  ES64L-G09RevE.01 30-Nov-2015

 -----
 #P G4
 -----

 ---------
 Frag_1074
 ---------
 Symbolic Z-matrix:
 Charge =  0 Multiplicity = 1

 SCF Done:  E(RB3LYP) =  -285.107186807     A.U. after   14 cycles
 SCF Done:  E(RB3LYP) =  -285.118451347     A.U. after   12 cycles
 SCF Done:  E(RB3LYP) =  -285.120678562     A.U. after   11 cycles
 SCF Done:  E(RB3LYP) =  -285.120876242     A.U. after   12 cycles
 SCF Done:  E(RB3LYP) =  -285.121864509     A.U. after   12 cycles
 SCF Done:  E(RB3LYP) =  -285.122048773     A.U. after   10 cycles
 SCF Done:  E(RB3LYP) =  -285.122067615     A.U. after    9 cycles
 SCF Done:  E(RB3LYP) =  -285.122072550     A.U. after    7 cycles
 SCF Done:  E(RB3LYP) =  -285.122073245     A.U. after    7 cycles
 Optimization completed.
    -- Stationary point found.
 Normal termination of Gaussian 09 at Thu Aug 25 19:19:25 2022.

 ----------------------------------------------------------
 #P Geom=AllCheck Guess=TCheck SCRF=Check B3LYP/GTBas3 Freq
 ----------------------------------------------------------

 Structure from the checkpoint file:  "G4.Frag_1074.chk"
 ---------
 Frag_1074
 ---------
 Charge =  0 Multiplicity = 1

 SCF Done:  E(RB3LYP) =  -285.122073245     A.U. after    1 cycles

  Exact polarizability:  68.269  -1.543  56.606   1.070   0.428  54.837
 Approx polarizability:  92.238  -2.017  80.829   2.301   3.320  81.908

                      1                      2                      3
                      A                      A                      A
 Frequencies --    171.1889               204.0663               236.9543
 Red. masses --      2.0400                 1.1750                 1.0629
 Frc consts  --      0.0352                 0.0288                 0.0352
 IR Inten    --     28.6291                 5.2451                 0.5261

                      4                      5                      6
                      A                      A                      A
 Frequencies --    286.5545               305.7779               346.0837
 Red. masses --      2.4673                 1.1282                 1.8587
 Frc consts  --      0.1194                 0.0621                 0.1312
 IR Inten    --     29.3188                 2.9829                 4.4943

                      7                      8                      9
                      A                      A                      A
 Frequencies --    359.8400               412.8529               433.5508
 Red. masses --      1.6140                 2.1378                 1.9056
 Frc consts  --      0.1231                 0.2147                 0.2110
 IR Inten    --     47.4737                 4.7150                 0.4782

                     10                     11                     12
                      A                      A                      A
 Frequencies --    500.7006               583.8122               722.0839
 Red. masses --      2.6309                 2.9858                 4.6924
 Frc consts  --      0.3886                 0.5996                 1.4415
 IR Inten    --     25.5162                 2.7855                 6.7754

                     13                     14                     15
                      A                      A                      A
 Frequencies --    794.5197               846.0227               897.7751
 Red. masses --      4.8337                 2.4805                 1.3921
 Frc consts  --      1.7978                 1.0461                 0.6611
 IR Inten    --     27.2879                50.6177                48.3156

                     16                     17                     18
                      A                      A                      A
 Frequencies --    917.0575               938.3240              1000.4073
 Red. masses --      1.5032                 1.7971                 1.3858
 Frc consts  --      0.7449                 0.9322                 0.8171
 IR Inten    --     18.5122                27.1096                 7.6204

                     19                     20                     21
                      A                      A                      A
 Frequencies --   1059.2132              1090.8355              1151.0703
 Red. masses --      1.3634                 1.2591                 1.5398
 Frc consts  --      0.9012                 0.8828                 1.2021
 IR Inten    --     15.9424                39.8612                22.0686

                     22                     23                     24
                      A                      A                      A
 Frequencies --   1192.7796              1246.9935              1289.9111
 Red. masses --      2.3633                 3.0881                 2.0068
 Frc consts  --      1.9810                 2.8292                 1.9673
 IR Inten    --     31.1499                42.5688                24.9821

                     25                     26                     27
                      A                      A                      A
 Frequencies --   1379.9519              1399.2965              1406.9295
 Red. masses --      1.2809                 1.2483                 1.1624
 Frc consts  --      1.4371                 1.4401                 1.3556
 IR Inten    --     11.3418                30.8526                57.5955

                     28                     29                     30
                      A                      A                      A
 Frequencies --   1471.1888              1479.4291              1496.6308
 Red. masses --      1.0506                 1.0519                 1.0562
 Frc consts  --      1.3397                 1.3564                 1.3939
 IR Inten    --      0.1889                 0.4803                 0.8453

                     31                     32                     33
                      A                      A                      A
 Frequencies --   1503.9291              1610.6330              1626.2387
 Red. masses --      1.0537                 1.0867                 1.0684
 Frc consts  --      1.4042                 1.6610                 1.6648
 IR Inten    --      3.5681                31.3653                 2.5840

                     34                     35                     36
                      A                      A                      A
 Frequencies --   1677.7630              3011.5922              3031.4733
 Red. masses --      1.0572                 1.0379                 1.0351
 Frc consts  --      1.7534                 5.5465                 5.6046
 IR Inten    --     31.3147                30.8902                19.6826

                     37                     38                     39
                      A                      A                      A
 Frequencies --   3058.1973              3065.7211              3103.8074
 Red. masses --      1.0704                 1.0905                 1.1013
 Frc consts  --      5.8984                 6.0389                 6.2508
 IR Inten    --     80.2170               151.1507                32.0272

                     40                     41                     42
                      A                      A                      A
 Frequencies --   3110.1159              3116.9866              3172.7325
 Red. masses --      1.1008                 1.0981                 1.0698
 Frc consts  --      6.2738                 6.2860                 6.3446
 IR Inten    --     13.4134                39.2951                71.0756

                     43                     44                     45
                      A                      A                      A
 Frequencies --   3470.6935              3515.3924              3560.0462
 Red. masses --      1.0483                 1.0775                 1.0932
 Frc consts  --      7.4402                 7.8451                 8.1630
 IR Inten    --      2.0099                32.8038                 0.8329

 - Thermochemistry -
 -------------------
 Temperature   298.150 Kelvin.  Pressure   1.00000 Atm.
 Atom     1 has atomic number  6 and mass  12.00000

 Molecular mass:    89.09530 amu.
 Principal axes and moments of inertia in atomic units:
                           1         2         3
     Eigenvalues --   398.13290 644.10845 659.94008
           X            0.99958  -0.02687  -0.01088
           Y            0.02245   0.95497  -0.29584
           Z            0.01833   0.29547   0.95517
 This molecule is an asymmetric top.
 Rotational symmetry number  1.
 Rotational temperatures (Kelvin)      0.21755     0.13447     0.13124
 Rotational constants (GHZ):           4.53301     2.80192     2.73470
 Zero-point vibrational energy     402286.9 (Joules/Mol)
                                   96.14889 (Kcal/Mol)
 Warning -- explicit consideration of  11 degrees of freedom as
           vibrations may cause significant error
 Vibrational temperatures:    246.30   293.61   340.92   412.29   439.95
          (Kelvin)            497.94   517.73   594.00   623.78   720.40
                              839.97  1038.92  1143.14  1217.24  1291.70
                             1319.44  1350.04  1439.36  1523.97  1569.47
                             1656.13  1716.14  1794.14  1855.89  1985.44
                             2013.27  2024.26  2116.71  2128.57  2153.32
                             2163.82  2317.34  2339.79  2413.92  4333.00
                             4361.61  4400.06  4410.88  4465.68  4474.76
                             4484.64  4564.85  4993.55  5057.86  5122.11

 Zero-point correction=                           0.153223 (Hartree/Particle)
 Thermal correction to Energy=                    0.160865
 Thermal correction to Enthalpy=                  0.161810
 Thermal correction to Gibbs Free Energy=         0.122849
 Sum of electronic and zero-point Energies=           -284.968850
 Sum of electronic and thermal Energies=              -284.961208
 Sum of electronic and thermal Enthalpies=            -284.960264
 Sum of electronic and thermal Free Energies=         -284.999224

                     E (Thermal)             CV                S
                      KCal/Mol        Cal/Mol-Kelvin    Cal/Mol-Kelvin
 Total                  100.945             29.101             82.000
 Electronic               0.000              0.000              0.000
 Translational            0.889              2.981             39.374
 Rotational               0.889              2.981             26.629
 Vibrational             99.167             23.140             15.997
 Vibration     1          0.626              1.878              2.422
 Vibration     2          0.640              1.834              2.096
 Vibration     3          0.656              1.784              1.826
 Vibration     4          0.684              1.699              1.494
 Vibration     5          0.696              1.663              1.385
 Vibration     6          0.724              1.583              1.184
 Vibration     7          0.734              1.555              1.123
 Vibration     8          0.777              1.442              0.917
 Vibration     9          0.794              1.397              0.847
 Vibration    10          0.856              1.248              0.656
 Vibration    11          0.941              1.066              0.478

 Optimization completed.
    -- Stationary point found.
 Normal termination of Gaussian 09 at Thu Aug 25 19:22:54 2022.

 -----------------------------------------------------------------
 #P Geom=AllCheck Guess=TCheck SCRF=Check CCSD(T,E4T,FrzG4)/GTBas1
 -----------------------------------------------------------------

 Structure from the checkpoint file:  "G4.Frag_1074.chk"
 ---------
 Frag_1074
 ---------
 Charge =  0 Multiplicity = 1

 SCF Done:  E(RHF) =  -283.232542783     A.U. after   14 cycles
 E2 =    -0.8998975154D+00 EUMP2 =    -0.28413244029832D+03
 CCSD(T)
 CCSD(T)= -0.28422164056D+03
 9886\CCSD=-284.1932296\CCSD(T)=-284.2216406\RMSD=2.593e-09\PG=C01 [X(C
 Normal termination of Gaussian 09 at Thu Aug 25 19:30:49 2022.

 ---------------------------------------------------------
 #P Geom=AllCheck Guess=TCheck SCRF=Check MP4=FrzG4/GTBas2
 ---------------------------------------------------------

 Structure from the checkpoint file:  "G4.Frag_1074.chk"
 ---------
 Frag_1074
 ---------
 Charge =  0 Multiplicity = 1

 SCF Done:  E(RHF) =  -283.245179820     A.U. after   13 cycles
 E2 =    -0.9161998560D+00 EUMP2 =    -0.28416137967601D+03
 Normal termination of Gaussian 09 at Thu Aug 25 19:41:00 2022.

 ---------------------------------------------------------
 #P Geom=AllCheck Guess=TCheck SCRF=Check MP4=FrzG4/GTBas3
 ---------------------------------------------------------

 Structure from the checkpoint file:  "G4.Frag_1074.chk"
 ---------
 Frag_1074
 ---------
 Charge =  0 Multiplicity = 1

 SCF Done:  E(RHF) =  -283.274239041     A.U. after   12 cycles
 E2 =    -0.1109985359D+01 EUMP2 =    -0.28438422439975D+03
 Normal termination of Gaussian 09 at Thu Aug 25 23:46:00 2022.

 -----------------------------------------------------------
 #P Geom=AllCheck Guess=TCheck SCRF=Check MP2=Full/GTLargeXP
 -----------------------------------------------------------

 Structure from the checkpoint file:  "G4.Frag_1074.chk"
 ---------
 Frag_1074
 ---------
 Charge =  0 Multiplicity = 1

 SCF Done:  E(RHF) =  -283.348509081     A.U. after   12 cycles
 E2 =    -0.1446784376D+01 EUMP2 =    -0.28479529345712D+03
 Normal termination of Gaussian 09 at Thu Aug 25 23:54:07 2022.
 SCF Done:  E(RHF) =  -283.370429388     A.U. after   10 cycles
 Normal termination of Gaussian 09 at Fri Aug 26 00:02:54 2022.

                         Standard orientation:
 ---------------------------------------------------------------------
 Center     Atomic      Atomic             Coordinates (Angstroms)
 Number     Number       Type             X           Y           Z
 ---------------------------------------------------------------------
      1          6           0        0.538894    1.511437   -0.207660
      2          6           0        0.376466   -0.023824   -0.032618
      3          6           0        1.646097   -0.729788   -0.521026
      4          7           0        0.134671   -0.249661    1.438396
      5          7           0       -0.707190   -0.611200   -0.778994
      6          7           0       -1.914569   -0.087580   -0.150513
      7          1           0        1.413590    1.908393    0.323087
      8          1           0        0.649155    1.740640   -1.270519
      9          1           0       -0.334176    2.057665    0.171249
     10          1           0        1.788964   -0.557086   -1.591802
     11          1           0        2.532840   -0.372034    0.013263
     12          1           0        1.547837   -1.809110   -0.370239
     13          1           0        0.290268   -1.234084    1.638637
     14          1           0        0.775479    0.284414    2.019023
     15          1           0       -2.670129   -0.744486   -0.329630
     16          1           0       -1.718297   -0.025124    0.875572
     17          1           0       -2.234663    0.842951   -0.473032
 ---------------------------------------------------------------------

 SCF Done:  E(RHF) =  -283.375258103     A.U. after   10 cycles

 The electronic state is 1-A.
 Alpha  occ. eigenvalues --  -15.65847 -15.53161 -15.47817 -11.26205 -11.20066
 Alpha  occ. eigenvalues --  -11.19005  -1.29470  -1.17022  -1.03823  -0.94534
 Alpha  occ. eigenvalues --   -0.91618  -0.75288  -0.71957  -0.71183  -0.65077
 Alpha  occ. eigenvalues --   -0.61149  -0.57993  -0.55633  -0.52168  -0.50741
 Alpha  occ. eigenvalues --   -0.49321  -0.46569  -0.39605  -0.38402  -0.29588
 Alpha virt. eigenvalues --    0.03027   0.04193   0.04643   0.05478   0.06865
 Alpha virt. eigenvalues --    0.07155   0.07655   0.07912   0.08535   0.10171
 Alpha virt. eigenvalues --    0.10527   0.11346   0.11503   0.13253   0.13974

 Mulliken charges:
               1
     1  C   -0.560975
     2  C    0.462864
     3  C   -0.546548
     4  N   -0.813083
     5  N   -0.683623
     6  N   -0.474574
     7  H    0.153118
     8  H    0.185087
     9  H    0.127852
    10  H    0.176088
    11  H    0.151921
    12  H    0.166802
    13  H    0.300396
    14  H    0.298563
    15  H    0.353924
    16  H    0.377331
    17  H    0.324856
 Sum of Mulliken charges =  -0.00000

 Dipole moment (field-independent basis, Debye):
    X=             -2.3238    Y=              1.5501    Z=              2.2528  Tot=              3.5886
 Quadrupole moment (field-independent basis, Debye-Ang):
   XX=            -28.5277   YY=            -40.7150   ZZ=            -42.8193
   XY=             -1.1126   XZ=              0.8978   YZ=             -2.9419

 Normal termination of Gaussian 09 at Fri Aug 26 04:23:20 2022.
