 Gaussian 09, Revision E.01,
 Gaussian 09:  ES64L-G09RevE.01 30-Nov-2015

 -----
 #P G4
 -----

 --------
 Frag_434
 --------
 Symbolic Z-matrix:
 Charge =  0 Multiplicity = 1

 SCF Done:  E(RB3LYP) =  -232.444545688     A.U. after   13 cycles
 SCF Done:  E(RB3LYP) =  -232.447488489     A.U. after   10 cycles
 SCF Done:  E(RB3LYP) =  -232.447780731     A.U. after   11 cycles
 SCF Done:  E(RB3LYP) =  -232.448054485     A.U. after   11 cycles
 SCF Done:  E(RB3LYP) =  -232.448417924     A.U. after   12 cycles
 SCF Done:  E(RB3LYP) =  -232.449065816     A.U. after   12 cycles
 SCF Done:  E(RB3LYP) =  -232.452133258     A.U. after   13 cycles
 SCF Done:  E(RB3LYP) =  -232.444655478     A.U. after   13 cycles
 SCF Done:  E(RB3LYP) =  -232.452688950     A.U. after   10 cycles
 SCF Done:  E(RB3LYP) =  -232.452892231     A.U. after   11 cycles
 SCF Done:  E(RB3LYP) =  -232.452957507     A.U. after    9 cycles
 SCF Done:  E(RB3LYP) =  -232.452960113     A.U. after    9 cycles
 SCF Done:  E(RB3LYP) =  -232.452960348     A.U. after    7 cycles
 Optimization completed.
    -- Stationary point found.
 Normal termination of Gaussian 09 at Thu Aug 25 19:21:33 2022.

 ----------------------------------------------------------
 #P Geom=AllCheck Guess=TCheck SCRF=Check B3LYP/GTBas3 Freq
 ----------------------------------------------------------

 Structure from the checkpoint file:  "G4.Frag_434.chk"
 --------
 Frag_434
 --------
 Charge =  0 Multiplicity = 1

 SCF Done:  E(RB3LYP) =  -232.452960348     A.U. after    1 cycles

  Exact polarizability:  61.008   1.665  46.336  -5.178  -3.830  36.837
 Approx polarizability:  81.463   5.534  66.389 -10.776  -7.954  54.860

                      1                      2                      3
                      A                      A                      A
 Frequencies --    105.2738               242.4408               257.3265
 Red. masses --      2.2023                 1.1059                 1.1489
 Frc consts  --      0.0144                 0.0383                 0.0448
 IR Inten    --     10.1047                87.7603                 4.8941

                      4                      5                      6
                      A                      A                      A
 Frequencies --    284.0310               351.2483               431.9310
 Red. masses --      2.4872                 1.9601                 2.4083
 Frc consts  --      0.1182                 0.1425                 0.2647
 IR Inten    --      7.3797                 3.9658                 2.6666

                      7                      8                      9
                      A                      A                      A
 Frequencies --    583.3076               682.9065               810.6837
 Red. masses --      2.4249                 1.8091                 2.2284
 Frc consts  --      0.4861                 0.4971                 0.8629
 IR Inten    --      7.6833                 9.0024                 1.7534

                     10                     11                     12
                      A                      A                      A
 Frequencies --    933.2729               956.7624              1019.3289
 Red. masses --      1.9632                 1.3526                 1.6324
 Frc consts  --      1.0075                 0.7295                 0.9993
 IR Inten    --     19.1992                29.1482                24.9036

                     13                     14                     15
                      A                      A                      A
 Frequencies --   1035.2366              1050.2321              1100.6375
 Red. masses --      1.1521                 1.4130                 2.2099
 Frc consts  --      0.7274                 0.9182                 1.5773
 IR Inten    --     12.7198                 5.7988                 9.3290

                     16                     17                     18
                      A                      A                      A
 Frequencies --   1184.0406              1243.5980              1319.8381
 Red. masses --      2.3247                 1.1255                 1.2460
 Frc consts  --      1.9202                 1.0255                 1.2788
 IR Inten    --     42.5004                53.5502                 1.7064

                     19                     20                     21
                      A                      A                      A
 Frequencies --   1355.8755              1399.2846              1409.4456
 Red. masses --      1.3063                 1.2492                 1.3236
 Frc consts  --      1.4149                 1.4411                 1.5492
 IR Inten    --     18.2600                 5.4631                 5.4231

                     22                     23                     24
                      A                      A                      A
 Frequencies --   1451.1636              1492.2460              1500.6199
 Red. masses --      1.2426                 1.0475                 1.1160
 Frc consts  --      1.5418                 1.3743                 1.4807
 IR Inten    --     14.0986                 2.5363                 5.2331

                     25                     26                     27
                      A                      A                      A
 Frequencies --   1720.2501              2925.7923              3026.8068
 Red. masses --      5.1444                 1.0807                 1.0366
 Frc consts  --      8.9695                 5.4505                 5.5955
 IR Inten    --      4.7632                60.5490                25.6465

                     28                     29                     30
                      A                      A                      A
 Frequencies --   3094.9822              3120.1398              3144.1220
 Red. masses --      1.0990                 1.1022                 1.0769
 Frc consts  --      6.2024                 6.3222                 6.2722
 IR Inten    --     29.0186                19.1925                14.8266

                     31                     32                     33
                      A                      A                      A
 Frequencies --   3163.0122              3248.0064              3832.0292
 Red. masses --      1.0730                 1.1142                 1.0663
 Frc consts  --      6.3251                 6.9256                 9.2253
 IR Inten    --      9.4916                 6.7751                17.7706

 - Thermochemistry -
 -------------------
 Temperature   298.150 Kelvin.  Pressure   1.00000 Atm.
 Atom     1 has atomic number  6 and mass  12.00000

 Molecular mass:    72.05751 amu.
 Principal axes and moments of inertia in atomic units:
                           1         2         3
     Eigenvalues --   224.00534 447.57156 597.74697
           X            0.99982   0.01844  -0.00386
           Y           -0.01847   0.99981  -0.00692
           Z            0.00373   0.00699   0.99997
 This molecule is an asymmetric top.
 Rotational symmetry number  1.
 Rotational temperatures (Kelvin)      0.38666     0.19352     0.14490
 Rotational constants (GHZ):           8.05669     4.03230     3.01924
 Zero-point vibrational energy     295931.4 (Joules/Mol)
                                   70.72931 (Kcal/Mol)
 Warning -- explicit consideration of   7 degrees of freedom as
           vibrations may cause significant error
 Vibrational temperatures:    151.47   348.82   370.23   408.66   505.37
          (Kelvin)            621.45   839.25   982.55  1166.39  1342.77
                             1376.57  1466.59  1489.47  1511.05  1583.57
                             1703.57  1789.26  1898.95  1950.80  2013.26
                             2027.88  2087.90  2147.01  2159.05  2475.05
                             4209.56  4354.89  4452.98  4489.18  4523.68
                             4550.86  4673.15  5513.43

 Zero-point correction=                           0.112714 (Hartree/Particle)
 Thermal correction to Energy=                    0.118986
 Thermal correction to Enthalpy=                  0.119930
 Thermal correction to Gibbs Free Energy=         0.083616
 Sum of electronic and zero-point Energies=           -232.340246
 Sum of electronic and thermal Energies=              -232.333975
 Sum of electronic and thermal Enthalpies=            -232.333030
 Sum of electronic and thermal Free Energies=         -232.369344

                     E (Thermal)             CV                S
                      KCal/Mol        Cal/Mol-Kelvin    Cal/Mol-Kelvin
 Total                   74.665             21.996             76.428
 Electronic               0.000              0.000              0.000
 Translational            0.889              2.981             38.741
 Rotational               0.889              2.981             25.597
 Vibrational             72.887             16.034             12.090
 Vibration     1          0.605              1.945              3.354
 Vibration     2          0.659              1.775              1.785
 Vibration     3          0.667              1.750              1.680
 Vibration     4          0.682              1.703              1.509
 Vibration     5          0.728              1.573              1.161
 Vibration     6          0.793              1.401              0.852
 Vibration     7          0.940              1.067              0.479

 Optimization completed.
    -- Stationary point found.
 Normal termination of Gaussian 09 at Thu Aug 25 19:23:13 2022.

 -----------------------------------------------------------------
 #P Geom=AllCheck Guess=TCheck SCRF=Check CCSD(T,E4T,FrzG4)/GTBas1
 -----------------------------------------------------------------

 Structure from the checkpoint file:  "G4.Frag_434.chk"
 --------
 Frag_434
 --------
 Charge =  0 Multiplicity = 1

 SCF Done:  E(RHF) =  -230.954068457     A.U. after   12 cycles
 E2 =    -0.6937505228D+00 EUMP2 =    -0.23164781897955D+03
 CCSD(T)
 CCSD(T)= -0.23172061358D+03
 P4SDTQ=-231.718911\MP4SDQ=-231.6971259\CCSD=-231.6981861\CCSD(T)=-231.
 Normal termination of Gaussian 09 at Thu Aug 25 19:25:08 2022.

 ---------------------------------------------------------
 #P Geom=AllCheck Guess=TCheck SCRF=Check MP4=FrzG4/GTBas2
 ---------------------------------------------------------

 Structure from the checkpoint file:  "G4.Frag_434.chk"
 --------
 Frag_434
 --------
 Charge =  0 Multiplicity = 1

 SCF Done:  E(RHF) =  -230.962843592     A.U. after   12 cycles
 E2 =    -0.7033607827D+00 EUMP2 =    -0.23166620437504D+03
 Normal termination of Gaussian 09 at Thu Aug 25 19:27:23 2022.

 ---------------------------------------------------------
 #P Geom=AllCheck Guess=TCheck SCRF=Check MP4=FrzG4/GTBas3
 ---------------------------------------------------------

 Structure from the checkpoint file:  "G4.Frag_434.chk"
 --------
 Frag_434
 --------
 Charge =  0 Multiplicity = 1

 SCF Done:  E(RHF) =  -230.986119252     A.U. after   11 cycles
 E2 =    -0.8603642024D+00 EUMP2 =    -0.23184648345485D+03
 Normal termination of Gaussian 09 at Thu Aug 25 20:12:36 2022.

 -----------------------------------------------------------
 #P Geom=AllCheck Guess=TCheck SCRF=Check MP2=Full/GTLargeXP
 -----------------------------------------------------------

 Structure from the checkpoint file:  "G4.Frag_434.chk"
 --------
 Frag_434
 --------
 Charge =  0 Multiplicity = 1

 SCF Done:  E(RHF) =  -231.045273537     A.U. after   11 cycles
 E2 =    -0.1133973618D+01 EUMP2 =    -0.23217924715412D+03
 Normal termination of Gaussian 09 at Thu Aug 25 20:15:32 2022.
 SCF Done:  E(RHF) =  -231.064283294     A.U. after    8 cycles
 Normal termination of Gaussian 09 at Thu Aug 25 20:18:54 2022.

                         Standard orientation:
 ---------------------------------------------------------------------
 Center     Atomic      Atomic             Coordinates (Angstroms)
 Number     Number       Type             X           Y           Z
 ---------------------------------------------------------------------
      1          6           0        1.951387   -0.053095   -0.257086
      2          6           0        0.877248   -0.629016    0.269219
      3          6           0       -0.469814    0.021191    0.424140
      4          6           0       -1.554393   -0.759511   -0.332595
      5          8           0       -0.385438    1.363128   -0.030645
      6          1           0        2.892735   -0.584894   -0.343893
      7          1           0        1.920930    0.970048   -0.612266
      8          1           0        0.921741   -1.655845    0.627820
      9          1           0       -0.727918    0.004282    1.499302
     10          1           0       -1.607530   -1.796752    0.013476
     11          1           0       -2.540077   -0.306197   -0.173876
     12          1           0       -1.336693   -0.758997   -1.404468
     13          1           0       -1.266249    1.745922    0.017004
 ---------------------------------------------------------------------

 SCF Done:  E(RHF) =  -231.068293255     A.U. after    8 cycles

 The electronic state is 1-A.
 Alpha  occ. eigenvalues --  -20.55634 -11.28811 -11.22698 -11.22316 -11.21427
 Alpha  occ. eigenvalues --   -1.36584  -1.06588  -0.99056  -0.86211  -0.75173
 Alpha  occ. eigenvalues --   -0.70126  -0.62766  -0.61848  -0.59928  -0.54687
 Alpha  occ. eigenvalues --   -0.54211  -0.50889  -0.47730  -0.45190  -0.35884
 Alpha virt. eigenvalues --    0.03536   0.04520   0.04680   0.04986   0.06794
 Alpha virt. eigenvalues --    0.07115   0.07671   0.07851   0.08157   0.10072
 Alpha virt. eigenvalues --    0.10392   0.11035   0.12050   0.14424   0.15474

 Mulliken charges:
               1
     1  C   -0.433609
     2  C   -0.233529
     3  C    0.206418
     4  C   -0.527058
     5  O   -0.607261
     6  H    0.189979
     7  H    0.207164
     8  H    0.186628
     9  H    0.144792
    10  H    0.167664
    11  H    0.148476
    12  H    0.181673
    13  H    0.368663
 Sum of Mulliken charges =  -0.00000

 Dipole moment (field-independent basis, Debye):
    X=             -1.6845    Y=             -0.7576    Z=              0.4878  Tot=              1.9104
 Quadrupole moment (field-independent basis, Debye-Ang):
   XX=            -28.7706   YY=            -31.6149   ZZ=            -33.4248
   XY=             -2.4443   XZ=             -1.2008   YZ=             -0.7632

 Normal termination of Gaussian 09 at Thu Aug 25 21:59:53 2022.
