 Gaussian 09, Revision E.01,
 Gaussian 09:  ES64L-G09RevE.01 30-Nov-2015

 -----
 #P G4
 -----

 --------
 Frag_703
 --------
 Symbolic Z-matrix:
 Charge =  0 Multiplicity = 1

 SCF Done:  E(RB3LYP) =  -303.776255669     A.U. after   13 cycles
 SCF Done:  E(RB3LYP) =  -303.790504131     A.U. after   12 cycles
 SCF Done:  E(RB3LYP) =  -303.791747741     A.U. after   11 cycles
 SCF Done:  E(RB3LYP) =  -303.793305268     A.U. after   11 cycles
 SCF Done:  E(RB3LYP) =  -303.793219760     A.U. after   12 cycles
 SCF Done:  E(RB3LYP) =  -303.794625947     A.U. after   10 cycles
 SCF Done:  E(RB3LYP) =  -303.795638546     A.U. after   11 cycles
 SCF Done:  E(RB3LYP) =  -303.798999010     A.U. after   13 cycles
 SCF Done:  E(RB3LYP) =  -303.800213344     A.U. after   11 cycles
 SCF Done:  E(RB3LYP) =  -303.800859480     A.U. after   11 cycles
 SCF Done:  E(RB3LYP) =  -303.801217771     A.U. after    9 cycles
 SCF Done:  E(RB3LYP) =  -303.801222833     A.U. after    8 cycles
 SCF Done:  E(RB3LYP) =  -303.801223916     A.U. after    7 cycles
 Optimization completed.
    -- Stationary point found.
 Normal termination of Gaussian 09 at Fri Aug 26 05:55:52 2022.

 ----------------------------------------------------------
 #P Geom=AllCheck Guess=TCheck SCRF=Check B3LYP/GTBas3 Freq
 ----------------------------------------------------------

 Structure from the checkpoint file:  "G4.Frag_703.chk"
 --------
 Frag_703
 --------
 Charge =  0 Multiplicity = 1

 SCF Done:  E(RB3LYP) =  -303.801223916     A.U. after    1 cycles

  Exact polarizability:  60.126   3.501  64.082   0.174   1.659  36.076
 Approx polarizability:  78.641  10.438 101.423   2.262   4.092  55.680

                      1                      2                      3
                      A                      A                      A
 Frequencies --     85.9190               242.0889               284.6578
 Red. masses --      3.6420                 1.2485                 1.1890
 Frc consts  --      0.0158                 0.0431                 0.0568
 IR Inten    --      7.9639                 5.4714                30.3500

                      4                      5                      6
                      A                      A                      A
 Frequencies --    290.0126               310.6490               395.4822
 Red. masses --      2.0453                 2.0492                 1.4712
 Frc consts  --      0.1014                 0.1165                 0.1356
 IR Inten    --     52.4169                 4.8111                15.7527

                      7                      8                      9
                      A                      A                      A
 Frequencies --    451.9997               484.8086               533.2915
 Red. masses --      2.0733                 2.3835                 4.2189
 Frc consts  --      0.2496                 0.3301                 0.7069
 IR Inten    --     21.1785                14.7360                17.2833

                     10                     11                     12
                      A                      A                      A
 Frequencies --    616.5280               695.7104               709.8430
 Red. masses --      1.3858                 1.3499                 1.3364
 Frc consts  --      0.3104                 0.3850                 0.3967
 IR Inten    --    160.6480                 7.2382                19.6448

                     13                     14                     15
                      A                      A                      A
 Frequencies --    749.5559               757.8715               966.1118
 Red. masses --      3.4801                 2.7202                 2.5220
 Frc consts  --      1.1520                 0.9205                 1.3869
 IR Inten    --     55.4530               110.1034                 1.1825

                     16                     17                     18
                      A                      A                      A
 Frequencies --    997.9442              1109.4172              1139.9629
 Red. masses --      1.6431                 2.0234                 1.4063
 Frc consts  --      0.9641                 1.4673                 1.0767
 IR Inten    --      7.7971                 2.8925                22.2738

                     19                     20                     21
                      A                      A                      A
 Frequencies --   1194.4425              1230.5991              1407.0076
 Red. masses --      2.1601                 2.1471                 3.0168
 Frc consts  --      1.8157                 1.9158                 3.5188
 IR Inten    --      7.9668                 0.6395                71.8635

                     22                     23                     24
                      A                      A                      A
 Frequencies --   1413.2307              1431.8391              1464.2362
 Red. masses --      1.1690                 1.2154                 1.1794
 Frc consts  --      1.3756                 1.4681                 1.4898
 IR Inten    --     20.0469                 7.3319                 4.7684

                     25                     26                     27
                      A                      A                      A
 Frequencies --   1492.0919              1502.2082              1630.3710
 Red. masses --      1.0725                 1.0782                 1.1631
 Frc consts  --      1.4068                 1.4336                 1.8215
 IR Inten    --     15.5072                12.0229                63.9297

                     28                     29                     30
                      A                      A                      A
 Frequencies --   1701.0189              2971.6041              3101.1214
 Red. masses --      5.0574                 1.0559                 1.0767
 Frc consts  --      8.6218                 5.4935                 6.1006
 IR Inten    --    161.2685                53.3991                17.7313

                     31                     32                     33
                      A                      A                      A
 Frequencies --   3148.5218              3185.3052              3283.1891
 Red. masses --      1.1032                 1.0635                 1.1109
 Frc consts  --      6.4433                 6.3575                 7.0554
 IR Inten    --      9.1877                 2.3878                 7.1826

                     34                     35                     36
                      A                      A                      A
 Frequencies --   3555.5100              3641.6855              3662.5755
 Red. masses --      1.0468                 1.0677                 1.0977
 Frc consts  --      7.7972                 8.3425                 8.6755
 IR Inten    --     12.5109                 6.3210                13.6735

 - Thermochemistry -
 -------------------
 Temperature   298.150 Kelvin.  Pressure   1.00000 Atm.
 Atom     1 has atomic number  6 and mass  12.00000

 Molecular mass:    88.06366 amu.
 Principal axes and moments of inertia in atomic units:
                           1         2         3
     Eigenvalues --   361.23507 507.59741 824.63220
           X            0.99593  -0.08963  -0.00950
           Y            0.08970   0.99595   0.00666
           Z            0.00886  -0.00748   0.99993
 This molecule is an asymmetric top.
 Rotational symmetry number  1.
 Rotational temperatures (Kelvin)      0.23977     0.17063     0.10503
 Rotational constants (GHZ):           4.99603     3.55546     2.18854
 Zero-point vibrational energy     310062.6 (Joules/Mol)
                                   74.10673 (Kcal/Mol)
 Warning -- explicit consideration of  10 degrees of freedom as
           vibrations may cause significant error
 Vibrational temperatures:    123.62   348.31   409.56   417.26   446.95
          (Kelvin)            569.01   650.33   697.53   767.29   887.05
                             1000.97  1021.30  1078.44  1090.41  1390.02
                             1435.82  1596.20  1640.15  1718.53  1770.56
                             2024.37  2033.32  2060.09  2106.71  2146.78
                             2161.34  2345.74  2447.38  4275.47  4461.82
                             4530.01  4582.94  4723.77  5115.58  5239.57
                             5269.62

 Zero-point correction=                           0.118097 (Hartree/Particle)
 Thermal correction to Energy=                    0.125238
 Thermal correction to Enthalpy=                  0.126182
 Thermal correction to Gibbs Free Energy=         0.087793
 Sum of electronic and zero-point Energies=           -303.683127
 Sum of electronic and thermal Energies=              -303.675986
 Sum of electronic and thermal Enthalpies=            -303.675042
 Sum of electronic and thermal Free Energies=         -303.713431

                     E (Thermal)             CV                S
                      KCal/Mol        Cal/Mol-Kelvin    Cal/Mol-Kelvin
 Total                   78.588             26.475             80.796
 Electronic               0.000              0.000              0.000
 Translational            0.889              2.981             39.339
 Rotational               0.889              2.981             26.517
 Vibrational             76.811             20.513             14.940
 Vibration     1          0.601              1.959              3.751
 Vibration     2          0.658              1.776              1.787
 Vibration     3          0.683              1.702              1.506
 Vibration     4          0.686              1.692              1.474
 Vibration     5          0.699              1.653              1.359
 Vibration     6          0.762              1.480              0.979
 Vibration     7          0.811              1.356              0.790
 Vibration     8          0.841              1.284              0.697
 Vibration     9          0.888              1.176              0.580
 Vibration    10          0.976              0.997              0.422

 Normal termination of Gaussian 09 at Fri Aug 26 05:56:25 2022.

 -----------------------------------------------------------------
 #P Geom=AllCheck Guess=TCheck SCRF=Check CCSD(T,E4T,FrzG4)/GTBas1
 -----------------------------------------------------------------

 Structure from the checkpoint file:  "G4.Frag_703.chk"
 --------
 Frag_703
 --------
 Charge =  0 Multiplicity = 1

 SCF Done:  E(RHF) =  -301.915736868     A.U. after   13 cycles
 E2 =    -0.8934297060D+00 EUMP2 =    -0.30280916657388D+03
 CCSD(T)
 CCSD(T)= -0.30288738090D+03
 Q=-302.8575586\CCSD=-302.8580572\CCSD(T)=-302.8873809\RMSD=2.995e-09\P
 Normal termination of Gaussian 09 at Fri Aug 26 05:58:35 2022.

 ---------------------------------------------------------
 #P Geom=AllCheck Guess=TCheck SCRF=Check MP4=FrzG4/GTBas2
 ---------------------------------------------------------

 Structure from the checkpoint file:  "G4.Frag_703.chk"
 --------
 Frag_703
 --------
 Charge =  0 Multiplicity = 1

 SCF Done:  E(RHF) =  -301.927088531     A.U. after   12 cycles
 E2 =    -0.9079069614D+00 EUMP2 =    -0.30283499549233D+03
 Normal termination of Gaussian 09 at Fri Aug 26 05:59:17 2022.

 ---------------------------------------------------------
 #P Geom=AllCheck Guess=TCheck SCRF=Check MP4=FrzG4/GTBas3
 ---------------------------------------------------------

 Structure from the checkpoint file:  "G4.Frag_703.chk"
 --------
 Frag_703
 --------
 Charge =  0 Multiplicity = 1

 SCF Done:  E(RHF) =  -301.959091727     A.U. after   11 cycles
 E2 =    -0.1095283053D+01 EUMP2 =    -0.30305437477989D+03
 Normal termination of Gaussian 09 at Fri Aug 26 06:02:43 2022.

 -----------------------------------------------------------
 #P Geom=AllCheck Guess=TCheck SCRF=Check MP2=Full/GTLargeXP
 -----------------------------------------------------------

 Structure from the checkpoint file:  "G4.Frag_703.chk"
 --------
 Frag_703
 --------
 Charge =  0 Multiplicity = 1

 SCF Done:  E(RHF) =  -302.039341109     A.U. after   12 cycles
 E2 =    -0.1433496788D+01 EUMP2 =    -0.30347283789751D+03
 Normal termination of Gaussian 09 at Fri Aug 26 06:04:40 2022.
 SCF Done:  E(RHF) =  -302.063427366     A.U. after    9 cycles
 Normal termination of Gaussian 09 at Fri Aug 26 06:06:38 2022.

                         Standard orientation:
 ---------------------------------------------------------------------
 Center     Atomic      Atomic             Coordinates (Angstroms)
 Number     Number       Type             X           Y           Z
 ---------------------------------------------------------------------
      1          6           0        1.181379    1.426688    0.177148
      2          6           0        0.730000    0.181635   -0.053052
      3          7           0        1.540733   -0.956508   -0.038325
      4          7           0       -0.616548   -0.120891   -0.335822
      5          6           0       -1.623237    0.889313   -0.075774
      6          8           0       -1.023364   -1.374629    0.193540
      7          1           0        2.245684    1.613030    0.244957
      8          1           0        0.522031    2.272121    0.289827
      9          1           0        2.519358   -0.745822   -0.170516
     10          1           0        1.218134   -1.686513   -0.658743
     11          1           0       -1.430172    1.757065   -0.710008
     12          1           0       -1.643713    1.216608    0.976982
     13          1           0       -2.592369    0.465867   -0.341787
     14          1           0       -0.850188   -1.339349    1.150063
 ---------------------------------------------------------------------

 SCF Done:  E(RHF) =  -302.068568931     A.U. after    8 cycles

 The electronic state is 1-A.
 Alpha  occ. eigenvalues --  -20.59916 -15.62394 -15.56340 -11.30986 -11.25695
 Alpha  occ. eigenvalues --  -11.19454  -1.42547  -1.23158  -1.14330  -0.98761
 Alpha  occ. eigenvalues --   -0.92520  -0.77692  -0.71928  -0.70206  -0.65506
 Alpha  occ. eigenvalues --   -0.62302  -0.60859  -0.57083  -0.55082  -0.54509
 Alpha  occ. eigenvalues --   -0.51795  -0.48386  -0.40393  -0.31065
 Alpha virt. eigenvalues --    0.03769   0.04280   0.04835   0.05361   0.06839
 Alpha virt. eigenvalues --    0.07203   0.07872   0.08119   0.08641   0.09586
 Alpha virt. eigenvalues --    0.11823   0.12254   0.12866   0.13551   0.13588

 Mulliken charges:
               1
     1  C   -0.558331
     2  C    0.288706
     3  N   -0.710859
     4  N    0.020403
     5  C   -0.488895
     6  O   -0.492954
     7  H    0.163972
     8  H    0.178840
     9  H    0.311281
    10  H    0.339339
    11  H    0.196943
    12  H    0.167141
    13  H    0.212298
    14  H    0.372117
 Sum of Mulliken charges =  -0.00000

 Dipole moment (field-independent basis, Debye):
    X=              0.2858    Y=              0.3545    Z=              0.4737  Tot=              0.6571
 Quadrupole moment (field-independent basis, Debye-Ang):
   XX=            -33.3241   YY=            -37.9806   ZZ=            -38.3932
   XY=             -3.8896   XZ=             -3.0102   YZ=             -0.1336

 Normal termination of Gaussian 09 at Fri Aug 26 06:13:51 2022.
