 Gaussian 09, Revision E.01,
 Gaussian 09:  ES64L-G09RevE.01 30-Nov-2015

 ----------------
 #P G4 OPT=calcfc
 ----------------

 --------
 Frag_295
 --------
 Symbolic Z-matrix:
 Charge =  0 Multiplicity = 1

 SCF Done:  E(RB3LYP) =  -315.725883276     A.U. after   12 cycles
 SCF Done:  E(RB3LYP) =  -315.729622176     A.U. after   10 cycles
 SCF Done:  E(RB3LYP) =  -315.729663706     A.U. after    8 cycles
 SCF Done:  E(RB3LYP) =  -315.729667946     A.U. after    8 cycles
 SCF Done:  E(RB3LYP) =  -315.729622793     A.U. after    7 cycles
 SCF Done:  E(RB3LYP) =  -315.729677659     A.U. after    7 cycles
 SCF Done:  E(RB3LYP) =  -315.729648899     A.U. after    6 cycles
 SCF Done:  E(RB3LYP) =  -315.729673621     A.U. after    6 cycles
 SCF Done:  E(RB3LYP) =  -315.729674765     A.U. after    6 cycles
 SCF Done:  E(RB3LYP) =  -315.729673682     A.U. after    6 cycles
 SCF Done:  E(RB3LYP) =  -315.728598455     A.U. after   10 cycles
 SCF Done:  E(RB3LYP) =  -315.729079749     A.U. after   10 cycles
 SCF Done:  E(RB3LYP) =  -315.729674216     A.U. after    7 cycles
 Optimization completed.
    -- Stationary point found.
 Normal termination of Gaussian 09 at Wed Sep  8 11:05:28 2021.

 ----------------------------------------------------------
 #P Geom=AllCheck Guess=TCheck SCRF=Check B3LYP/GTBas3 Freq
 ----------------------------------------------------------

 Structure from the checkpoint file:  "/public/home/users/caep010/.cache/gau_scr/Gau-190649.chk"
 --------
 Frag_295
 --------
 Charge =  0 Multiplicity = 1

 SCF Done:  E(RB3LYP) =  -315.729674216     A.U. after    1 cycles

  Exact polarizability:  92.323   0.003  84.620   0.001   0.002  84.615
 Approx polarizability: 126.130   0.003 121.786   0.001   0.003 121.775

                      1                      2                      3
                      A                      A                      A
 Frequencies --     95.9963               205.0495               238.1545
 Red. masses --      2.3726                 1.0164                 1.1353
 Frc consts  --      0.0129                 0.0252                 0.0379
 IR Inten    --      0.0000                 0.0415                 0.0236

                      4                      5                      6
                      A                      A                      A
 Frequencies --    247.8674               263.1388               278.3123
 Red. masses --      1.1799                 1.1273                 1.2303
 Frc consts  --      0.0427                 0.0460                 0.0561
 IR Inten    --      0.0189                 0.0039                 0.0236

                      7                      8                      9
                      A                      A                      A
 Frequencies --    280.6970               303.7727               305.4031
 Red. masses --      1.3179                 1.8102                 1.8758
 Frc consts  --      0.0612                 0.0984                 0.1031
 IR Inten    --      0.0177                 0.0009                 0.0014

                     10                     11                     12
                      A                      A                      A
 Frequencies --    368.4508               373.3397               379.9119
 Red. masses --      1.7794                 1.8089                 2.2431
 Frc consts  --      0.1423                 0.1485                 0.1907
 IR Inten    --      0.0055                 0.0054                 0.0001

                     13                     14                     15
                      A                      A                      A
 Frequencies --    385.3398               389.3346               468.8187
 Red. masses --      2.1983                 2.1892                 2.5471
 Frc consts  --      0.1923                 0.1955                 0.3298
 IR Inten    --      0.0240                 0.0239                 0.0070

                     16                     17                     18
                      A                      A                      A
 Frequencies --    470.2905               478.6316               639.5917
 Red. masses --      2.5727                 2.0498                 2.9342
 Frc consts  --      0.3353                 0.2767                 0.7072
 IR Inten    --      0.0063                 0.0032                 0.0000

                     19                     20                     21
                      A                      A                      A
 Frequencies --    799.7517               878.6063               928.1896
 Red. masses --      2.7412                 2.0711                 1.6922
 Frc consts  --      1.0330                 0.9420                 0.8590
 IR Inten    --      1.9229                 0.0006                 0.0033

                     22                     23                     24
                      A                      A                      A
 Frequencies --    929.4863               935.9303               938.2560
 Red. masses --      1.6961                 1.8700                 1.8699
 Frc consts  --      0.8634                 0.9651                 0.9699
 IR Inten    --      0.0316                 0.6120                 0.5784

                     25                     26                     27
                      A                      A                      A
 Frequencies --    953.6609               965.1142              1015.2261
 Red. masses --      1.2052                 1.2021                 1.3333
 Frc consts  --      0.6458                 0.6597                 0.8097
 IR Inten    --      0.0323                 0.0022                 0.2982

                     28                     29                     30
                      A                      A                      A
 Frequencies --   1016.5056              1064.7164              1066.3786
 Red. masses --      1.3331                 1.3598                 1.3602
 Frc consts  --      0.8116                 0.9082                 0.9113
 IR Inten    --      0.2764                 0.0037                 0.0034

                     31                     32                     33
                      A                      A                      A
 Frequencies --   1205.3452              1205.7087              1207.8595
 Red. masses --      2.4302                 2.4276                 2.0574
 Frc consts  --      2.0802                 2.0793                 1.7685
 IR Inten    --      6.4252                 6.6980                23.9936

                     34                     35                     36
                      A                      A                      A
 Frequencies --   1267.1465              1267.4050              1276.8257
 Red. masses --      3.1046                 3.1279                 2.6190
 Frc consts  --      2.9370                 2.9603                 2.5157
 IR Inten    --      0.0010                 0.0019                 0.0009

                     37                     38                     39
                      A                      A                      A
 Frequencies --   1392.7860              1395.4017              1403.7389
 Red. masses --      1.2355                 1.2356                 1.2110
 Frc consts  --      1.4121                 1.4175                 1.4060
 IR Inten    --      1.7782                 0.3822                 8.4039

                     40                     41                     42
                      A                      A                      A
 Frequencies --   1406.5171              1421.2287              1443.4360
 Red. masses --      1.2114                 1.2285                 1.2048
 Frc consts  --      1.4119                 1.4621                 1.4790
 IR Inten    --      7.2402                17.5609                 0.0369

                     43                     44                     45
                      A                      A                      A
 Frequencies --   1475.1100              1484.1494              1485.0589
 Red. masses --      1.0507                 1.0466                 1.0463
 Frc consts  --      1.3470                 1.3583                 1.3596
 IR Inten    --      1.0125                 0.1181                 0.0558

                     46                     47                     48
                      A                      A                      A
 Frequencies --   1490.4020              1490.7252              1493.9977
 Red. masses --      1.0488                 1.0483                 1.0491
 Frc consts  --      1.3726                 1.3725                 1.3796
 IR Inten    --      0.1340                 0.0731                 0.0071

                     49                     50                     51
                      A                      A                      A
 Frequencies --   1505.8561              1506.0571              1518.9738
 Red. masses --      1.0471                 1.0477                 1.0511
 Frc consts  --      1.3989                 1.4001                 1.4289
 IR Inten    --      6.4441                 5.6081                11.5828

                     52                     53                     54
                      A                      A                      A
 Frequencies --   1519.8609              1520.3322              1526.9004
 Red. masses --      1.0531                 1.0549                 1.0647
 Frc consts  --      1.4333                 1.4365                 1.4625
 IR Inten    --      3.6351                 1.0076                 0.0065

                     55                     56                     57
                      A                      A                      A
 Frequencies --   3031.1307              3031.8349              3034.3369
 Red. masses --      1.0357                 1.0357                 1.0365
 Frc consts  --      5.6068                 5.6093                 5.6226
 IR Inten    --      7.6248                 1.5266                42.3153

                     58                     59                     60
                      A                      A                      A
 Frequencies --   3034.7731              3037.0413              3045.6085
 Red. masses --      1.0365                 1.0364                 1.0378
 Frc consts  --      5.6243                 5.6323                 5.6717
 IR Inten    --     36.0350                34.1441                 0.0499

                     61                     62                     63
                      A                      A                      A
 Frequencies --   3090.6500              3091.0660              3094.3702
 Red. masses --      1.1011                 1.1009                 1.0999
 Frc consts  --      6.1967                 6.1977                 6.2049
 IR Inten    --      0.2896                 0.4113                 2.6026

                     64                     65                     66
                      A                      A                      A
 Frequencies --   3094.5287              3099.8377              3102.8453
 Red. masses --      1.0996                 1.0994                 1.0981
 Frc consts  --      6.2040                 6.2245                 6.2288
 IR Inten    --      2.4578               158.1308                 0.9001

                     67                     68                     69
                      A                      A                      A
 Frequencies --   3104.9862              3113.3927              3113.6644
 Red. masses --      1.1020                 1.0998                 1.1003
 Frc consts  --      6.2599                 6.2811                 6.2849
 IR Inten    --      1.1510                88.2362                58.1996

                     70                     71                     72
                      A                      A                      A
 Frequencies --   3114.6305              3116.2606              3116.9963
 Red. masses --      1.1006                 1.1001                 1.0999
 Frc consts  --      6.2905                 6.2945                 6.2964
 IR Inten    --     44.2205                 3.2038                 6.7377

 - Thermochemistry -
 -------------------
 Temperature   298.150 Kelvin.  Pressure   1.00000 Atm.
 Atom     1 has atomic number  6 and mass  12.00000

 Molecular mass:   114.14085 amu.
 Principal axes and moments of inertia in atomic units:
                           1         2         3
     Eigenvalues --   782.160061094.524021094.57343
           X            1.00000   0.00003  -0.00002
           Y           -0.00002   0.99938   0.03517
           Z            0.00002  -0.03517   0.99938
 This molecule is an asymmetric top.
 Rotational symmetry number  1.
 Warning -- assumption of classical behavior for rotation
           may cause significant error
 Rotational temperatures (Kelvin)      0.11074     0.07913     0.07913
 Rotational constants (GHZ):           2.30738     1.64888     1.64881
 Zero-point vibrational energy     640257.5 (Joules/Mol)
                                  153.02522 (Kcal/Mol)
 Warning -- explicit consideration of  17 degrees of freedom as
           vibrations may cause significant error
 Vibrational temperatures:    138.12   295.02   342.65   356.63   378.60
          (Kelvin)            400.43   403.86   437.06   439.41   530.12
                              537.15   546.61   554.42   560.16   674.52
                              676.64   688.64   920.23  1150.66  1264.12
                             1335.46  1337.32  1346.59  1349.94  1372.10
                             1388.58  1460.68  1462.52  1531.89  1534.28
                             1734.22  1734.74  1737.84  1823.14  1823.51
                             1837.07  2003.91  2007.67  2019.66  2023.66
                             2044.83  2076.78  2122.35  2135.36  2136.67
                             2144.35  2144.82  2149.53  2166.59  2166.88
                             2185.46  2186.74  2187.42  2196.87  4361.12
                             4362.13  4365.73  4366.36  4369.62  4381.95
                             4446.75  4447.35  4452.10  4452.33  4459.97
                             4464.30  4467.38  4479.47  4479.86  4481.25
                             4483.60  4484.66

 Zero-point correction=                           0.243861 (Hartree/Particle)
 Thermal correction to Energy=                    0.254426
 Thermal correction to Enthalpy=                  0.255371
 Thermal correction to Gibbs Free Energy=         0.210347
 Sum of electronic and zero-point Energies=           -315.485813
 Sum of electronic and thermal Energies=              -315.475248
 Sum of electronic and thermal Enthalpies=            -315.474304
 Sum of electronic and thermal Free Energies=         -315.519327

                     E (Thermal)             CV                S
                      KCal/Mol        Cal/Mol-Kelvin    Cal/Mol-Kelvin
 Total                  159.655             42.042             94.759
 Electronic               0.000              0.000              0.000
 Translational            0.889              2.981             40.112
 Rotational               0.889              2.981             28.329
 Vibrational            157.877             36.081             26.318
 Vibration     1          0.603              1.952              3.534
 Vibration     2          0.640              1.833              2.087
 Vibration     3          0.656              1.782              1.817
 Vibration     4          0.661              1.766              1.746
 Vibration     5          0.670              1.740              1.641
 Vibration     6          0.679              1.714              1.544
 Vibration     7          0.680              1.709              1.529
 Vibration     8          0.695              1.667              1.396
 Vibration     9          0.696              1.663              1.387
 Vibration    10          0.741              1.537              1.086
 Vibration    11          0.745              1.527              1.066
 Vibration    12          0.750              1.513              1.040
 Vibration    13          0.754              1.501              1.018
 Vibration    14          0.757              1.493              1.003
 Vibration    15          0.826              1.319              0.741
 Vibration    16          0.827              1.316              0.737
 Vibration    17          0.835              1.297              0.714

 Normal termination of Gaussian 09 at Wed Sep  8 11:07:22 2021.

 -----------------------------------------------------------------
 #P Geom=AllCheck Guess=TCheck SCRF=Check CCSD(T,E4T,FrzG4)/GTBas1
 -----------------------------------------------------------------

 Structure from the checkpoint file:  "/public/home/users/caep010/.cache/gau_scr/Gau-190649.chk"
 --------
 Frag_295
 --------
 Charge =  0 Multiplicity = 1

 SCF Done:  E(RHF) =  -313.419905800     A.U. after   10 cycles
 E2 =    -0.1072166045D+01 EUMP2 =    -0.31449207184538D+03
 CCSD(T)
 CCSD(T)= -0.31462607683D+03
 57\CCSD(T)=-314.6260768\RMSD=2.274e-09\PG=C01 [X(C8H18)]\\@
 Normal termination of Gaussian 09 at Wed Sep  8 11:18:17 2021.

 ---------------------------------------------------------
 #P Geom=AllCheck Guess=TCheck SCRF=Check MP4=FrzG4/GTBas2
 ---------------------------------------------------------

 Structure from the checkpoint file:  "/public/home/users/caep010/.cache/gau_scr/Gau-190649.chk"
 --------
 Frag_295
 --------
 Charge =  0 Multiplicity = 1

 SCF Done:  E(RHF) =  -313.422833254     A.U. after    9 cycles
 E2 =    -0.1084405731D+01 EUMP2 =    -0.31450723898493D+03
 Normal termination of Gaussian 09 at Wed Sep  8 11:22:41 2021.

 ---------------------------------------------------------
 #P Geom=AllCheck Guess=TCheck SCRF=Check MP4=FrzG4/GTBas3
 ---------------------------------------------------------

 Structure from the checkpoint file:  "/public/home/users/caep010/.cache/gau_scr/Gau-190649.chk"
 --------
 Frag_295
 --------
 Charge =  0 Multiplicity = 1

 SCF Done:  E(RHF) =  -313.461183365     A.U. after    8 cycles
 E2 =    -0.1348132976D+01 EUMP2 =    -0.31480931634089D+03
 Normal termination of Gaussian 09 at Wed Sep  8 12:03:13 2021.

 -----------------------------------------------------------
 #P Geom=AllCheck Guess=TCheck SCRF=Check MP2=Full/GTLargeXP
 -----------------------------------------------------------

 Structure from the checkpoint file:  "/public/home/users/caep010/.cache/gau_scr/Gau-190649.chk"
 --------
 Frag_295
 --------
 Charge =  0 Multiplicity = 1

 SCF Done:  E(RHF) =  -313.522021455     A.U. after   10 cycles
 E2 =    -0.1772677939D+01 EUMP2 =    -0.31529469939398D+03
 Normal termination of Gaussian 09 at Wed Sep  8 12:13:16 2021.
 SCF Done:  E(RHF) =  -313.546840290     A.U. after    8 cycles
 Normal termination of Gaussian 09 at Wed Sep  8 12:17:11 2021.

                         Standard orientation:
 ---------------------------------------------------------------------
 Center     Atomic      Atomic             Coordinates (Angstroms)
 Number     Number       Type             X           Y           Z
 ---------------------------------------------------------------------
      1          6           0       -1.355213    0.717612   -1.247163
      2          6           0       -0.793397    0.000248   -0.000127
      3          6           0       -1.355989   -1.438465    0.001844
      4          6           0       -1.355589    0.721396    1.244826
      5          6           0        0.793210   -0.000175    0.000082
      6          6           0        1.355812    1.409315    0.289090
      7          6           0        1.355932   -0.454524   -1.364724
      8          6           0        1.355108   -0.955348    1.076238
      9          1           0       -2.443594    0.808690   -1.163456
     10          1           0       -0.953537    1.728939   -1.361811
     11          1           0       -1.145699    0.165508   -2.167307
     12          1           0       -2.444491   -1.410880   -0.117966
     13          1           0       -1.146126   -1.960411    0.939432
     14          1           0       -0.955646   -2.043269   -0.817514
     15          1           0       -2.444077    0.603713    1.281099
     16          1           0       -0.954962    0.314414    2.178189
     17          1           0       -1.146029    1.794358    1.227447
     18          1           0        1.146929    1.733600    1.312247
     19          1           0        2.444174    1.406436    0.165070
     20          1           0        0.954483    2.165393   -0.392570
     21          1           0        2.444242   -0.560826   -1.299985
     22          1           0        1.147496    0.269906   -2.156701
     23          1           0        0.954432   -1.422595   -1.679062
     24          1           0        2.443543   -0.847136    1.135688
     25          1           0        0.954113   -0.742929    2.071891
     26          1           0        1.145505   -2.003261    0.844917
 ---------------------------------------------------------------------

 SCF Done:  E(RHF) =  -313.552067475     A.U. after    7 cycles

 The electronic state is 1-A.
 Alpha  occ. eigenvalues --  -11.23279 -11.23229 -11.20552 -11.20551 -11.20550
 Alpha  occ. eigenvalues --  -11.20549 -11.20548 -11.20547  -1.11964  -1.03453
 Alpha  occ. eigenvalues --   -0.93812  -0.93808  -0.90882  -0.90880  -0.80259
 Alpha  occ. eigenvalues --   -0.69139  -0.64425  -0.60303  -0.60298  -0.58833
 Alpha  occ. eigenvalues --   -0.58828  -0.55124  -0.53065  -0.53061  -0.52210
 Alpha  occ. eigenvalues --   -0.50907  -0.50906  -0.49583  -0.48060  -0.48056
 Alpha  occ. eigenvalues --   -0.43198  -0.43191  -0.42309
 Alpha virt. eigenvalues --    0.03026   0.03836   0.04039   0.04039   0.05543
 Alpha virt. eigenvalues --    0.05543   0.06563   0.06563   0.06672   0.08486
 Alpha virt. eigenvalues --    0.08574   0.08575   0.09506   0.09620   0.09620

 Mulliken charges:
               1
     1  C   -0.644432
     2  C    0.400942
     3  C   -0.644345
     4  C   -0.644345
     5  C    0.400762
     6  C   -0.644459
     7  C   -0.644393
     8  C   -0.644367
     9  H    0.172418
    10  H    0.166780
    11  H    0.171607
    12  H    0.172376
    13  H    0.171583
    14  H    0.166748
    15  H    0.172367
    16  H    0.166815
    17  H    0.171594
    18  H    0.171585
    19  H    0.172414
    20  H    0.166779
    21  H    0.172403
    22  H    0.171597
    23  H    0.166795
    24  H    0.172385
    25  H    0.166787
    26  H    0.171606
 Sum of Mulliken charges =  -0.00000

 Dipole moment (field-independent basis, Debye):
    X=              0.0000    Y=             -0.0000    Z=             -0.0002  Tot=              0.0002
 Quadrupole moment (field-independent basis, Debye-Ang):
   XX=            -56.1948   YY=            -56.3406   ZZ=            -56.3407
   XY=             -0.0001   XZ=             -0.0005   YZ=              0.0006

 Normal termination of Gaussian 09 at Wed Sep  8 12:43:35 2021.
