 Gaussian 09, Revision E.01,
 Gaussian 09:  ES64L-G09RevE.01 30-Nov-2015

 -----
 #P G4
 -----

 --------
 Frag_704
 --------
 Symbolic Z-matrix:
 Charge =  0 Multiplicity = 1

 SCF Done:  E(RB3LYP) =  -210.390726364     A.U. after   12 cycles
 SCF Done:  E(RB3LYP) =  -210.394238303     A.U. after   11 cycles
 SCF Done:  E(RB3LYP) =  -210.394483962     A.U. after   10 cycles
 SCF Done:  E(RB3LYP) =  -210.394524045     A.U. after    8 cycles
 SCF Done:  E(RB3LYP) =  -210.394533126     A.U. after    8 cycles
 SCF Done:  E(RB3LYP) =  -210.394533993     A.U. after    7 cycles
 SCF Done:  E(RB3LYP) =  -210.394534553     A.U. after    7 cycles
 SCF Done:  E(RB3LYP) =  -210.394534898     A.U. after    7 cycles
 SCF Done:  E(RB3LYP) =  -210.394535199     A.U. after    7 cycles
 SCF Done:  E(RB3LYP) =  -210.394535396     A.U. after    7 cycles
 Optimization completed.
    -- Stationary point found.
 Normal termination of Gaussian 09 at Mon Aug 22 01:43:29 2022.

 ----------------------------------------------------------
 #P Geom=AllCheck Guess=TCheck SCRF=Check B3LYP/GTBas3 Freq
 ----------------------------------------------------------

 Structure from the checkpoint file:  "G4.Frag_704.chk"
 --------
 Frag_704
 --------
 Charge =  0 Multiplicity = 1

 SCF Done:  E(RB3LYP) =  -210.394535396     A.U. after    1 cycles

  Exact polarizability:  41.497   0.837  33.604  -0.998  -1.314  31.181
 Approx polarizability:  50.001   1.552  47.022  -0.473  -2.167  44.691

                      1                      2                      3
                      A                      A                      A
 Frequencies --     86.9605               213.2769               255.7123
 Red. masses --      2.3765                 1.1474                 1.1204
 Frc consts  --      0.0106                 0.0308                 0.0432
 IR Inten    --      3.8165                31.7279                56.5318

                      4                      5                      6
                      A                      A                      A
 Frequencies --    291.4068               501.7350               791.1853
 Red. masses --      2.6895                 4.9111                 1.2357
 Frc consts  --      0.1346                 0.7284                 0.4558
 IR Inten    --      0.1521                 1.8796               121.2855

                      7                      8                      9
                      A                      A                      A
 Frequencies --    973.6405              1013.7014              1094.9690
 Red. masses --      1.9675                 1.4235                 3.1468
 Frc consts  --      1.0989                 0.8618                 2.2229
 IR Inten    --     16.8199                26.6423                41.9591

                     10                     11                     12
                      A                      A                      A
 Frequencies --   1127.2606              1141.3224              1182.0564
 Red. masses --      3.4668                 1.3249                 1.7703
 Frc consts  --      2.5955                 1.0168                 1.4574
 IR Inten    --    157.7865                 1.6641                16.6761

                     13                     14                     15
                      A                      A                      A
 Frequencies --   1286.6680              1390.8541              1425.8208
 Red. masses --      1.3766                 1.2090                 1.1871
 Frc consts  --      1.3427                 1.3779                 1.4219
 IR Inten    --     23.6318                10.5741                44.8285

                     16                     17                     18
                      A                      A                      A
 Frequencies --   1459.9518              1484.1756              1495.2484
 Red. masses --      1.1691                 1.1416                 1.1416
 Frc consts  --      1.4682                 1.4816                 1.5038
 IR Inten    --      4.1304                18.8300                 3.5532

                     19                     20                     21
                      A                      A                      A
 Frequencies --   1515.1097              1526.7709              2873.9121
 Red. masses --      1.0552                 1.0983                 1.0728
 Frc consts  --      1.4271                 1.5084                 5.2205
 IR Inten    --      9.2755                 0.6841               112.6825

                     22                     23                     24
                      A                      A                      A
 Frequencies --   2937.7132              3053.3257              3056.2414
 Red. masses --      1.0606                 1.0859                 1.0751
 Frc consts  --      5.3928                 5.9649                 5.9169
 IR Inten    --     97.0257                14.0144                53.8929

                     25                     26                     27
                      A                      A                      A
 Frequencies --   3108.4239              3494.7659              3824.7423
 Red. masses --      1.1001                 1.0736                 1.0664
 Frc consts  --      6.2626                 7.7259                 9.1912
 IR Inten    --     26.1945                 1.0749                19.9524

 - Thermochemistry -
 -------------------
 Temperature   298.150 Kelvin.  Pressure   1.00000 Atm.
 Atom     1 has atomic number  6 and mass  12.00000

 Molecular mass:    61.05276 amu.
 Principal axes and moments of inertia in atomic units:
                           1         2         3
     Eigenvalues --    60.12309 447.90501 476.14781
           X            0.99991   0.00728  -0.01155
           Y           -0.00846   0.99441  -0.10520
           Z            0.01072   0.10529   0.99438
 This molecule is an asymmetric top.
 Rotational symmetry number  1.
 Rotational temperatures (Kelvin)      1.44061     0.19338     0.18191
 Rotational constants (GHZ):          30.01744     4.02929     3.79030
 Zero-point vibrational energy     254846.2 (Joules/Mol)
                                   60.90969 (Kcal/Mol)
 Warning -- explicit consideration of   5 degrees of freedom as
           vibrations may cause significant error
 Vibrational temperatures:    125.12   306.86   367.91   419.27   721.88
          (Kelvin)           1138.34  1400.85  1458.49  1575.41  1621.87
                             1642.11  1700.71  1851.23  2001.13  2051.44
                             2100.54  2135.39  2151.33  2179.90  2196.68
                             4134.91  4226.71  4393.05  4397.24  4472.32
                             5028.18  5502.94

 Zero-point correction=                           0.097066 (Hartree/Particle)
 Thermal correction to Energy=                    0.102626
 Thermal correction to Enthalpy=                  0.103570
 Thermal correction to Gibbs Free Energy=         0.069069
 Sum of electronic and zero-point Energies=           -210.297470
 Sum of electronic and thermal Energies=              -210.291910
 Sum of electronic and thermal Enthalpies=            -210.290965
 Sum of electronic and thermal Free Energies=         -210.325466

                     E (Thermal)             CV                S
                      KCal/Mol        Cal/Mol-Kelvin    Cal/Mol-Kelvin
 Total                   64.399             17.612             72.613
 Electronic               0.000              0.000              0.000
 Translational            0.889              2.981             38.247
 Rotational               0.889              2.981             24.065
 Vibrational             62.621             11.651             10.301
 Vibration     1          0.601              1.958              3.727
 Vibration     2          0.644              1.821              2.015
 Vibration     3          0.666              1.753              1.691
 Vibration     4          0.687              1.690              1.466
 Vibration     5          0.857              1.246              0.654

 Optimization completed.
    -- Stationary point found.
 Normal termination of Gaussian 09 at Mon Aug 22 01:44:13 2022.

 -----------------------------------------------------------------
 #P Geom=AllCheck Guess=TCheck SCRF=Check CCSD(T,E4T,FrzG4)/GTBas1
 -----------------------------------------------------------------

 Structure from the checkpoint file:  "G4.Frag_704.chk"
 --------
 Frag_704
 --------
 Charge =  0 Multiplicity = 1

 SCF Done:  E(RHF) =  -209.087394679     A.U. after   12 cycles
 E2 =    -0.6031666978D+00 EUMP2 =    -0.20969056137678D+03
 CCSD(T)
 CCSD(T)= -0.20974645648D+03
 54338\MP4SDQ=-209.7298764\CCSD=-209.7306922\CCSD(T)=-209.7464565\RMSD=
 Normal termination of Gaussian 09 at Mon Aug 22 01:44:50 2022.

 ---------------------------------------------------------
 #P Geom=AllCheck Guess=TCheck SCRF=Check MP4=FrzG4/GTBas2
 ---------------------------------------------------------

 Structure from the checkpoint file:  "G4.Frag_704.chk"
 --------
 Frag_704
 --------
 Charge =  0 Multiplicity = 1

 SCF Done:  E(RHF) =  -209.095428238     A.U. after   11 cycles
 E2 =    -0.6135793497D+00 EUMP2 =    -0.20970900758802D+03
 Normal termination of Gaussian 09 at Mon Aug 22 01:45:09 2022.

 ---------------------------------------------------------
 #P Geom=AllCheck Guess=TCheck SCRF=Check MP4=FrzG4/GTBas3
 ---------------------------------------------------------

 Structure from the checkpoint file:  "G4.Frag_704.chk"
 --------
 Frag_704
 --------
 Charge =  0 Multiplicity = 1

 SCF Done:  E(RHF) =  -209.119335926     A.U. after   11 cycles
 E2 =    -0.7533939776D+00 EUMP2 =    -0.20987272990345D+03
 Normal termination of Gaussian 09 at Mon Aug 22 01:54:36 2022.

 -----------------------------------------------------------
 #P Geom=AllCheck Guess=TCheck SCRF=Check MP2=Full/GTLargeXP
 -----------------------------------------------------------

 Structure from the checkpoint file:  "G4.Frag_704.chk"
 --------
 Frag_704
 --------
 Charge =  0 Multiplicity = 1

 SCF Done:  E(RHF) =  -209.177198859     A.U. after   11 cycles
 E2 =    -0.9841046376D+00 EUMP2 =    -0.21016130349643D+03
 Normal termination of Gaussian 09 at Mon Aug 22 01:55:48 2022.
 SCF Done:  E(RHF) =  -209.194247539     A.U. after    8 cycles
 Normal termination of Gaussian 09 at Mon Aug 22 01:57:28 2022.

                         Standard orientation:
 ---------------------------------------------------------------------
 Center     Atomic      Atomic             Coordinates (Angstroms)
 Number     Number       Type             X           Y           Z
 ---------------------------------------------------------------------
      1          6           0        1.816909    0.093554   -0.007502
      2          7           0        0.493205   -0.504931   -0.135338
      3          6           0       -0.575973    0.453827    0.095333
      4          8           0       -1.845815   -0.096327   -0.152202
      5          1           0        2.001396    0.602116    0.956608
      6          1           0        2.580628   -0.678285   -0.134876
      7          1           0        1.958007    0.835514   -0.801829
      8          1           0        0.403973   -1.269435    0.528504
      9          1           0       -0.537163    0.899549    1.111500
     10          1           0       -0.444701    1.271481   -0.623321
     11          1           0       -2.093667   -0.640098    0.601411
 ---------------------------------------------------------------------

 SCF Done:  E(RHF) =  -209.198104446     A.U. after    8 cycles

 The electronic state is 1-A.
 Alpha  occ. eigenvalues --  -20.55938 -15.54616 -11.30369 -11.24920  -1.37240
 Alpha  occ. eigenvalues --   -1.19783  -0.93552  -0.86224  -0.70170  -0.67631
 Alpha  occ. eigenvalues --   -0.63193  -0.59046  -0.55826  -0.53398  -0.50075
 Alpha  occ. eigenvalues --   -0.46854  -0.37958
 Alpha virt. eigenvalues --    0.04077   0.04176   0.05062   0.05718   0.07005
 Alpha virt. eigenvalues --    0.07842   0.07971   0.11451   0.11600   0.13654
 Alpha virt. eigenvalues --    0.14610   0.15121   0.16189   0.18486   0.18861

 Mulliken charges:
               1
     1  C   -0.449581
     2  N   -0.320807
     3  C   -0.008735
     4  O   -0.551066
     5  H    0.137945
     6  H    0.171910
     7  H    0.166320
     8  H    0.243039
     9  H    0.104484
    10  H    0.155604
    11  H    0.350886
 Sum of Mulliken charges =  -0.00000

 Dipole moment (field-independent basis, Debye):
    X=              1.1724    Y=             -0.0461    Z=              2.4834  Tot=              2.7466
 Quadrupole moment (field-independent basis, Debye-Ang):
   XX=            -27.0150   YY=            -24.6427   ZZ=            -26.0057
   XY=              1.3402   XZ=             -3.0823   YZ=             -3.0376

 Normal termination of Gaussian 09 at Mon Aug 22 02:46:04 2022.
