 Gaussian 09, Revision E.01,
 Gaussian 09:  ES64L-G09RevE.01 30-Nov-2015

 -----
 #P G4
 -----

 --------
 Frag_608
 --------
 Symbolic Z-matrix:
 Charge =  0 Multiplicity = 1

 SCF Done:  E(RB3LYP) =  -328.360124239     A.U. after   12 cycles
 SCF Done:  E(RB3LYP) =  -328.365862287     A.U. after   10 cycles
 SCF Done:  E(RB3LYP) =  -328.366480064     A.U. after   10 cycles
 SCF Done:  E(RB3LYP) =  -328.366644424     A.U. after   10 cycles
 SCF Done:  E(RB3LYP) =  -328.366718492     A.U. after   10 cycles
 SCF Done:  E(RB3LYP) =  -328.366750166     A.U. after    9 cycles
 SCF Done:  E(RB3LYP) =  -328.366782234     A.U. after    9 cycles
 SCF Done:  E(RB3LYP) =  -328.366796013     A.U. after    9 cycles
 SCF Done:  E(RB3LYP) =  -328.366802489     A.U. after    9 cycles
 SCF Done:  E(RB3LYP) =  -328.366803016     A.U. after    7 cycles
 Optimization completed.
    -- Stationary point found.
 Normal termination of Gaussian 09 at Fri Aug 26 02:44:19 2022.

 ----------------------------------------------------------
 #P Geom=AllCheck Guess=TCheck SCRF=Check B3LYP/GTBas3 Freq
 ----------------------------------------------------------

 Structure from the checkpoint file:  "G4.Frag_608.chk"
 --------
 Frag_608
 --------
 Charge =  0 Multiplicity = 1

 SCF Done:  E(RB3LYP) =  -328.366803016     A.U. after    1 cycles

  Exact polarizability:  71.208   2.069  67.279   0.616  -1.196  60.737
 Approx polarizability:  93.967   1.486  92.470  -0.334  -0.417  90.831

                      1                      2                      3
                      A                      A                      A
 Frequencies --     59.9792               176.8519               208.9966
 Red. masses --      2.3281                 1.0547                 1.3408
 Frc consts  --      0.0049                 0.0194                 0.0345
 IR Inten    --      1.4606                14.5565                 6.0835

                      4                      5                      6
                      A                      A                      A
 Frequencies --    229.6843               245.1358               279.5197
 Red. masses --      1.1054                 1.1707                 2.0468
 Frc consts  --      0.0344                 0.0414                 0.0942
 IR Inten    --      2.2102                37.0710                 2.8293

                      7                      8                      9
                      A                      A                      A
 Frequencies --    284.7093               317.4563               364.6717
 Red. masses --      2.5772                 1.0580                 2.1532
 Frc consts  --      0.1231                 0.0628                 0.1687
 IR Inten    --      7.5863                75.1448                 3.8484

                     10                     11                     12
                      A                      A                      A
 Frequencies --    378.0098               406.9571               476.6006
 Red. masses --      2.7870                 2.5497                 2.7756
 Frc consts  --      0.2346                 0.2488                 0.3715
 IR Inten    --      6.6246                 5.8665                17.7270

                     13                     14                     15
                      A                      A                      A
 Frequencies --    504.8687               558.8842               716.7154
 Red. masses --      2.8453                 2.5383                 2.8347
 Frc consts  --      0.4273                 0.4671                 0.8579
 IR Inten    --     11.2456                10.8417                 3.2440

                     16                     17                     18
                      A                      A                      A
 Frequencies --    841.2971               879.7576               913.8489
 Red. masses --      1.9414                 2.3030                 2.2119
 Frc consts  --      0.8096                 1.0502                 1.0884
 IR Inten    --     86.4711                37.0166                41.5000

                     19                     20                     21
                      A                      A                      A
 Frequencies --    927.3708               960.7197               971.7296
 Red. masses --      1.1893                 1.5198                 1.6325
 Frc consts  --      0.6026                 0.8265                 0.9082
 IR Inten    --      0.1508                 1.3456                 0.7359

                     22                     23                     24
                      A                      A                      A
 Frequencies --   1018.0388              1057.4904              1110.2180
 Red. masses --      1.4904                 1.4844                 2.2680
 Frc consts  --      0.9101                 0.9781                 1.6470
 IR Inten    --     27.3069                30.6174                25.8361

                     25                     26                     27
                      A                      A                      A
 Frequencies --   1165.6913              1187.0639              1193.3357
 Red. masses --      2.2810                 1.4098                 1.8869
 Frc consts  --      1.8262                 1.1705                 1.5832
 IR Inten    --     69.3486                18.1554                 5.9130

                     28                     29                     30
                      A                      A                      A
 Frequencies --   1294.9134              1331.1060              1350.8290
 Red. masses --      2.3538                 1.4025                 1.3293
 Frc consts  --      2.3255                 1.4641                 1.4292
 IR Inten    --     23.2878                11.3801                 3.5142

                     31                     32                     33
                      A                      A                      A
 Frequencies --   1388.4377              1400.6357              1418.2383
 Red. masses --      1.2965                 1.2445                 1.2214
 Frc consts  --      1.4726                 1.4385                 1.4475
 IR Inten    --      2.3380                12.0474                 7.6312

                     34                     35                     36
                      A                      A                      A
 Frequencies --   1429.5300              1484.7789              1487.1043
 Red. masses --      1.8335                 1.0567                 1.0506
 Frc consts  --      2.2076                 1.3726                 1.3689
 IR Inten    --     33.5400                 2.3861                 0.2145

                     37                     38                     39
                      A                      A                      A
 Frequencies --   1492.5488              1498.8843              1510.2725
 Red. masses --      1.0546                 1.0481                 1.0550
 Frc consts  --      1.3842                 1.3874                 1.4178
 IR Inten    --      1.2915                 3.8213                 6.1571

                     40                     41                     42
                      A                      A                      A
 Frequencies --   1517.6063              1661.3449              3025.3173
 Red. masses --      1.0513                 1.0961                 1.0388
 Frc consts  --      1.4266                 1.7824                 5.6016
 IR Inten    --      5.3941                34.8557                24.1038

                     43                     44                     45
                      A                      A                      A
 Frequencies --   3031.0640              3040.7171              3052.7432
 Red. masses --      1.0811                 1.0370                 1.0371
 Frc consts  --      5.8522                 5.6491                 5.6943
 IR Inten    --     15.7570                21.6873                12.9317

                     46                     47                     48
                      A                      A                      A
 Frequencies --   3088.2550              3098.0601              3106.0944
 Red. masses --      1.1009                 1.0986                 1.0989
 Frc consts  --      6.1864                 6.2124                 6.2466
 IR Inten    --     37.5289                12.9056                40.0542

                     49                     50                     51
                      A                      A                      A
 Frequencies --   3118.9345              3123.6298              3151.4430
 Red. masses --      1.1009                 1.1010                 1.1012
 Frc consts  --      6.3098                 6.3294                 6.4435
 IR Inten    --     16.0709                33.7249                15.2713

                     52                     53                     54
                      A                      A                      A
 Frequencies --   3492.8880              3570.1996              3818.8496
 Red. masses --      1.0486                 1.0922                 1.0655
 Frc consts  --      7.5373                 8.2025                 9.1556
 IR Inten    --      0.3802                 0.4480                 6.3259

 - Thermochemistry -
 -------------------
 Temperature   298.150 Kelvin.  Pressure   1.00000 Atm.
 Atom     1 has atomic number  6 and mass  12.00000

 Molecular mass:   103.09971 amu.
 Principal axes and moments of inertia in atomic units:
                           1         2         3
     Eigenvalues --   569.43695 807.14974 978.30693
           X            0.99825   0.05878   0.00650
           Y           -0.05834   0.99680  -0.05467
           Z           -0.00970   0.05420   0.99848
 This molecule is an asymmetric top.
 Rotational symmetry number  1.
 Warning -- assumption of classical behavior for rotation
           may cause significant error
 Rotational temperatures (Kelvin)      0.15210     0.10731     0.08853
 Rotational constants (GHZ):           3.16934     2.23594     1.84476
 Zero-point vibrational energy     475037.3 (Joules/Mol)
                                  113.53663 (Kcal/Mol)
 Warning -- explicit consideration of  14 degrees of freedom as
           vibrations may cause significant error
 Vibrational temperatures:     86.30   254.45   300.70   330.46   352.70
          (Kelvin)            402.17   409.63   456.75   524.68   543.87
                              585.52   685.72   726.39   804.11  1031.19
                             1210.44  1265.77  1314.82  1334.28  1382.26
                             1398.10  1464.73  1521.49  1597.35  1677.17
                             1707.92  1716.94  1863.09  1915.16  1943.54
                             1997.65  2015.20  2040.53  2056.77  2136.26
                             2139.61  2147.44  2156.56  2172.94  2183.49
                             2390.30  4352.75  4361.02  4374.91  4392.21
                             4443.30  4457.41  4468.97  4487.45  4494.20
                             4534.22  5025.48  5136.71  5494.47

 Zero-point correction=                           0.180932 (Hartree/Particle)
 Thermal correction to Energy=                    0.190292
 Thermal correction to Enthalpy=                  0.191236
 Thermal correction to Gibbs Free Energy=         0.148032
 Sum of electronic and zero-point Energies=           -328.185871
 Sum of electronic and thermal Energies=              -328.176511
 Sum of electronic and thermal Enthalpies=            -328.175567
 Sum of electronic and thermal Free Energies=         -328.218771

                     E (Thermal)             CV                S
                      KCal/Mol        Cal/Mol-Kelvin    Cal/Mol-Kelvin
 Total                  119.410             35.034             90.931
 Electronic               0.000              0.000              0.000
 Translational            0.889              2.981             39.809
 Rotational               0.889              2.981             27.599
 Vibrational            117.633             29.072             23.523
 Vibration     1          0.597              1.973              4.458
 Vibration     2          0.628              1.871              2.361
 Vibration     3          0.642              1.827              2.052
 Vibration     4          0.652              1.796              1.881
 Vibration     5          0.660              1.771              1.765
 Vibration     6          0.680              1.711              1.537
 Vibration     7          0.683              1.702              1.505
 Vibration     8          0.704              1.640              1.323
 Vibration     9          0.738              1.545              1.102
 Vibration    10          0.748              1.517              1.047
 Vibration    11          0.772              1.455              0.937
 Vibration    12          0.833              1.302              0.719
 Vibration    13          0.860              1.239              0.646
 Vibration    14          0.914              1.120              0.526

 Normal termination of Gaussian 09 at Fri Aug 26 02:45:22 2022.

 -----------------------------------------------------------------
 #P Geom=AllCheck Guess=TCheck SCRF=Check CCSD(T,E4T,FrzG4)/GTBas1
 -----------------------------------------------------------------

 Structure from the checkpoint file:  "G4.Frag_608.chk"
 --------
 Frag_608
 --------
 Charge =  0 Multiplicity = 1

 SCF Done:  E(RHF) =  -326.210285875     A.U. after   11 cycles
 E2 =    -0.1008894423D+01 EUMP2 =    -0.32721918029734D+03
 CCSD(T)
 CCSD(T)= -0.32732162036D+03
 SD=-327.2910756\CCSD(T)=-327.3216204\RMSD=8.667e-09\PG=C01 [X(C5H13N1O
 Normal termination of Gaussian 09 at Fri Aug 26 02:50:26 2022.

 ---------------------------------------------------------
 #P Geom=AllCheck Guess=TCheck SCRF=Check MP4=FrzG4/GTBas2
 ---------------------------------------------------------

 Structure from the checkpoint file:  "G4.Frag_608.chk"
 --------
 Frag_608
 --------
 Charge =  0 Multiplicity = 1

 SCF Done:  E(RHF) =  -326.219225439     A.U. after   12 cycles
 E2 =    -0.1024556944D+01 EUMP2 =    -0.32724378238353D+03
 Normal termination of Gaussian 09 at Fri Aug 26 02:52:08 2022.

 ---------------------------------------------------------
 #P Geom=AllCheck Guess=TCheck SCRF=Check MP4=FrzG4/GTBas3
 ---------------------------------------------------------

 Structure from the checkpoint file:  "G4.Frag_608.chk"
 --------
 Frag_608
 --------
 Charge =  0 Multiplicity = 1

 SCF Done:  E(RHF) =  -326.257149766     A.U. after   10 cycles
 E2 =    -0.1258209242D+01 EUMP2 =    -0.32751535900722D+03
 Normal termination of Gaussian 09 at Fri Aug 26 03:06:00 2022.

 -----------------------------------------------------------
 #P Geom=AllCheck Guess=TCheck SCRF=Check MP2=Full/GTLargeXP
 -----------------------------------------------------------

 Structure from the checkpoint file:  "G4.Frag_608.chk"
 --------
 Frag_608
 --------
 Charge =  0 Multiplicity = 1

 SCF Done:  E(RHF) =  -326.336584579     A.U. after   11 cycles
 E2 =    -0.1647267141D+01 EUMP2 =    -0.32798385172019D+03
 Normal termination of Gaussian 09 at Fri Aug 26 03:10:45 2022.
 SCF Done:  E(RHF) =  -326.362575005     A.U. after    9 cycles
 Normal termination of Gaussian 09 at Fri Aug 26 03:16:00 2022.

                         Standard orientation:
 ---------------------------------------------------------------------
 Center     Atomic      Atomic             Coordinates (Angstroms)
 Number     Number       Type             X           Y           Z
 ---------------------------------------------------------------------
      1          6           0       -1.697221   -1.119617   -0.085715
      2          6           0       -0.833734    0.100624   -0.448157
      3          6           0       -1.493353    1.382521    0.081116
      4          6           0        0.647138   -0.055861    0.003802
      5          6           0        1.508693    1.133765   -0.426133
      6          7           0        0.716573   -0.178522    1.451693
      7          8           0        1.241815   -1.170529   -0.686325
      8          1           0       -1.846178   -1.208801    0.996544
      9          1           0       -2.690633   -1.022807   -0.534262
     10          1           0       -1.277239   -2.061518   -0.455744
     11          1           0       -0.788743    0.154369   -1.542829
     12          1           0       -1.458679    1.410584    1.173974
     13          1           0       -0.998843    2.281980   -0.294360
     14          1           0       -2.541659    1.429797   -0.231965
     15          1           0        1.409628    1.307744   -1.500494
     16          1           0        2.559376    0.908859   -0.219801
     17          1           0        1.231473    2.038379    0.115735
     18          1           0        1.685091   -0.308057    1.729470
     19          1           0        0.210271   -0.998993    1.770946
     20          1           0        0.766470   -1.966247   -0.427951
 ---------------------------------------------------------------------

 SCF Done:  E(RHF) =  -326.368254552     A.U. after    8 cycles

 The electronic state is 1-A.
 Alpha  occ. eigenvalues --  -20.54768 -15.54168 -11.30979 -11.22909 -11.22191
 Alpha  occ. eigenvalues --  -11.20844 -11.20767  -1.36270  -1.17825  -1.06494
 Alpha  occ. eigenvalues --   -0.98424  -0.92829  -0.84865  -0.75594  -0.70467
 Alpha  occ. eigenvalues --   -0.66632  -0.62535  -0.60653  -0.58400  -0.55502
 Alpha  occ. eigenvalues --   -0.54960  -0.53678  -0.52960  -0.51635  -0.50072
 Alpha  occ. eigenvalues --   -0.47396  -0.46441  -0.43438  -0.40929
 Alpha virt. eigenvalues --    0.03084   0.03999   0.04339   0.04896   0.05939
 Alpha virt. eigenvalues --    0.06520   0.06829   0.07297   0.07731   0.09149
 Alpha virt. eigenvalues --    0.09328   0.09465   0.10663   0.10719   0.11225

 Mulliken charges:
               1
     1  C   -0.605012
     2  C    0.015004
     3  C   -0.574587
     4  C    0.468248
     5  C   -0.577373
     6  N   -0.761067
     7  O   -0.609606
     8  H    0.165596
     9  H    0.177077
    10  H    0.160276
    11  H    0.161454
    12  H    0.191590
    13  H    0.164981
    14  H    0.163801
    15  H    0.171782
    16  H    0.175807
    17  H    0.183510
    18  H    0.295874
    19  H    0.280188
    20  H    0.352457
 Sum of Mulliken charges =  -0.00000

 Dipole moment (field-independent basis, Debye):
    X=             -0.9533    Y=             -0.8620    Z=              0.5883  Tot=              1.4135
 Quadrupole moment (field-independent basis, Debye-Ang):
   XX=            -46.9204   YY=            -43.7790   ZZ=            -47.9202
   XY=              1.7824   XZ=              3.0309   YZ=             -3.6851

 Normal termination of Gaussian 09 at Fri Aug 26 03:31:15 2022.
