 Gaussian 09, Revision E.01,
 Gaussian 09:  ES64L-G09RevE.01 30-Nov-2015

 -----
 #P G4
 -----

 ---------
 Frag_1017
 ---------
 Symbolic Z-matrix:
 Charge =  0 Multiplicity = 1

 SCF Done:  E(RB3LYP) =  -225.157323494     A.U. after   14 cycles
 SCF Done:  E(RB3LYP) =  -225.176280654     A.U. after   13 cycles
 SCF Done:  E(RB3LYP) =  -225.179423928     A.U. after   13 cycles
 SCF Done:  E(RB3LYP) =  -225.180351259     A.U. after   12 cycles
 SCF Done:  E(RB3LYP) =  -225.181187985     A.U. after   12 cycles
 SCF Done:  E(RB3LYP) =  -225.181969023     A.U. after   12 cycles
 SCF Done:  E(RB3LYP) =  -225.182396381     A.U. after   12 cycles
 SCF Done:  E(RB3LYP) =  -225.182567435     A.U. after   11 cycles
 SCF Done:  E(RB3LYP) =  -225.182622498     A.U. after   11 cycles
 SCF Done:  E(RB3LYP) =  -225.182633302     A.U. after   10 cycles
 SCF Done:  E(RB3LYP) =  -225.182635050     A.U. after    7 cycles
 SCF Done:  E(RB3LYP) =  -225.182635166     A.U. after    7 cycles
 Optimization completed.
    -- Stationary point found.
 Normal termination of Gaussian 09 at Fri Aug 19 21:30:56 2022.

 ----------------------------------------------------------
 #P Geom=AllCheck Guess=TCheck SCRF=Check B3LYP/GTBas3 Freq
 ----------------------------------------------------------

 Structure from the checkpoint file:  "G4.Frag_1017.chk"
 ---------
 Frag_1017
 ---------
 Charge =  0 Multiplicity = 1

 SCF Done:  E(RB3LYP) =  -225.182635166     A.U. after    1 cycles

  Exact polarizability:  40.100  -0.345  31.587   1.323  -0.049  18.545
 Approx polarizability:  56.198   5.190  52.884   1.065   0.091  26.965

                      1                      2                      3
                      A                      A                      A
 Frequencies --    117.4484               341.9502               364.6711
 Red. masses --      1.1118                 2.5967                 4.1209
 Frc consts  --      0.0090                 0.1789                 0.3229
 IR Inten    --     57.2593                52.5328                22.3662

                      4                      5                      6
                      A                      A                      A
 Frequencies --    767.4350               802.1791               864.1587
 Red. masses --      3.9719                 1.2966                 6.6499
 Frc consts  --      1.3782                 0.4916                 2.9258
 IR Inten    --     17.9419                41.4062                17.7510

                      7                      8                      9
                      A                      A                      A
 Frequencies --   1021.8472              1057.3803              1220.4798
 Red. masses --      1.3706                 1.8093                 1.3077
 Frc consts  --      0.8432                 1.1919                 1.1477
 IR Inten    --      5.3643               121.8659                21.3849

                     10                     11                     12
                      A                      A                      A
 Frequencies --   1304.5739              1385.0582              1396.6185
 Red. masses --      1.7145                 1.4481                 1.1746
 Frc consts  --      1.7192                 1.6368                 1.3498
 IR Inten    --    125.5542                34.9099                 5.9265

                     13                     14                     15
                      A                      A                      A
 Frequencies --   1630.8297              1724.0337              3103.1633
 Red. masses --      1.1462                 4.4467                 1.0920
 Frc consts  --      1.7961                 7.7872                 6.1957
 IR Inten    --     72.2221               189.6992                27.5836

                     16                     17                     18
                      A                      A                      A
 Frequencies --   3375.8710              3490.2449              3549.4785
 Red. masses --      1.0515                 1.0898                 1.0768
 Frc consts  --      7.0604                 7.8219                 7.9933
 IR Inten    --     25.0546                 9.1243                10.4656

 - Thermochemistry -
 -------------------
 Temperature   298.150 Kelvin.  Pressure   1.00000 Atm.
 Atom     1 has atomic number  7 and mass  14.00307

 Molecular mass:    60.03236 amu.
 Principal axes and moments of inertia in atomic units:
                           1         2         3
     Eigenvalues --    91.45875 259.47519 345.04537
           X            0.99873  -0.04682   0.01852
           Y            0.04706   0.99881  -0.01263
           Z           -0.01791   0.01349   0.99975
 This molecule is an asymmetric top.
 Rotational symmetry number  1.
 Rotational temperatures (Kelvin)      0.94703     0.33380     0.25102
 Rotational constants (GHZ):          19.73284     6.95535     5.23045
 Zero-point vibrational energy     164590.7 (Joules/Mol)
                                   39.33813 (Kcal/Mol)
 Warning -- explicit consideration of   3 degrees of freedom as
           vibrations may cause significant error
 Vibrational temperatures:    168.98   491.99   524.68  1104.17  1154.16
          (Kelvin)           1243.33  1470.21  1521.33  1756.00  1876.99
                             1992.79  2009.42  2346.40  2480.50  4464.75
                             4857.12  5021.68  5106.90

 Zero-point correction=                           0.062689 (Hartree/Particle)
 Thermal correction to Energy=                    0.067277
 Thermal correction to Enthalpy=                  0.068221
 Thermal correction to Gibbs Free Energy=         0.035846
 Sum of electronic and zero-point Energies=           -225.119946
 Sum of electronic and thermal Energies=              -225.115358
 Sum of electronic and thermal Enthalpies=            -225.114414
 Sum of electronic and thermal Free Energies=         -225.146789

                     E (Thermal)             CV                S
                      KCal/Mol        Cal/Mol-Kelvin    Cal/Mol-Kelvin
 Total                   42.217             14.246             68.139
 Electronic               0.000              0.000              0.000
 Translational            0.889              2.981             38.197
 Rotational               0.889              2.981             23.619
 Vibrational             40.440              8.285              6.322
 Vibration     1          0.608              1.935              3.142
 Vibration     2          0.721              1.592              1.203
 Vibration     3          0.738              1.545              1.102

 Normal termination of Gaussian 09 at Fri Aug 19 21:31:23 2022.

 -----------------------------------------------------------------
 #P Geom=AllCheck Guess=TCheck SCRF=Check CCSD(T,E4T,FrzG4)/GTBas1
 -----------------------------------------------------------------

 Structure from the checkpoint file:  "G4.Frag_1017.chk"
 ---------
 Frag_1017
 ---------
 Charge =  0 Multiplicity = 1

 SCF Done:  E(RHF) =  -223.866874285     A.U. after   13 cycles
 E2 =    -0.6320619330D+00 EUMP2 =    -0.22449893621762D+03
 CCSD(T)
 CCSD(T)= -0.22454618726D+03
 4.5475636\MP4SDQ=-224.5255582\CCSD=-224.5252271\CCSD(T)=-224.5461873\R
 Normal termination of Gaussian 09 at Fri Aug 19 21:31:45 2022.

 ---------------------------------------------------------
 #P Geom=AllCheck Guess=TCheck SCRF=Check MP4=FrzG4/GTBas2
 ---------------------------------------------------------

 Structure from the checkpoint file:  "G4.Frag_1017.chk"
 ---------
 Frag_1017
 ---------
 Charge =  0 Multiplicity = 1

 SCF Done:  E(RHF) =  -223.875618689     A.U. after   13 cycles
 E2 =    -0.6417926865D+00 EUMP2 =    -0.22451741137557D+03
 Normal termination of Gaussian 09 at Fri Aug 19 21:31:55 2022.

 ---------------------------------------------------------
 #P Geom=AllCheck Guess=TCheck SCRF=Check MP4=FrzG4/GTBas3
 ---------------------------------------------------------

 Structure from the checkpoint file:  "G4.Frag_1017.chk"
 ---------
 Frag_1017
 ---------
 Charge =  0 Multiplicity = 1

 SCF Done:  E(RHF) =  -223.896845029     A.U. after   11 cycles
 E2 =    -0.7674157315D+00 EUMP2 =    -0.22466426076039D+03
 Normal termination of Gaussian 09 at Fri Aug 19 21:35:09 2022.

 -----------------------------------------------------------
 #P Geom=AllCheck Guess=TCheck SCRF=Check MP2=Full/GTLargeXP
 -----------------------------------------------------------

 Structure from the checkpoint file:  "G4.Frag_1017.chk"
 ---------
 Frag_1017
 ---------
 Charge =  0 Multiplicity = 1

 SCF Done:  E(RHF) =  -223.960817391     A.U. after   12 cycles
 E2 =    -0.9975660114D+00 EUMP2 =    -0.22495838340263D+03
 Normal termination of Gaussian 09 at Fri Aug 19 21:35:47 2022.
 SCF Done:  E(RHF) =  -223.978958392     A.U. after    9 cycles
 Normal termination of Gaussian 09 at Fri Aug 19 21:37:04 2022.

                         Standard orientation:
 ---------------------------------------------------------------------
 Center     Atomic      Atomic             Coordinates (Angstroms)
 Number     Number       Type             X           Y           Z
 ---------------------------------------------------------------------
      1          7           0       -1.260849   -0.653783    0.012452
      2          6           0       -0.744558    0.501892    0.012276
      3          8           0        0.576846    0.723348   -0.016085
      4          7           0        1.385182   -0.475980   -0.110189
      5          1           0       -2.275059   -0.609093    0.026452
      6          1           0       -1.254440    1.469025    0.021650
      7          1           0        1.819278   -0.516741    0.813079
      8          1           0        0.692463   -1.232981   -0.121997
 ---------------------------------------------------------------------

 SCF Done:  E(RHF) =  -223.982784073     A.U. after    8 cycles

 The electronic state is 1-A.
 Alpha  occ. eigenvalues --  -20.62329 -15.61571 -15.55261 -11.35183  -1.45811
 Alpha  occ. eigenvalues --   -1.21248  -1.11605  -0.83305  -0.75253  -0.68997
 Alpha  occ. eigenvalues --   -0.67415  -0.59205  -0.55946  -0.46870  -0.45647
 Alpha  occ. eigenvalues --   -0.40677
 Alpha virt. eigenvalues --    0.04075   0.05001   0.05232   0.05909   0.08597
 Alpha virt. eigenvalues --    0.09682   0.09868   0.11463   0.11513   0.13412
 Alpha virt. eigenvalues --    0.16136   0.16966   0.17141   0.18095   0.19137

 Mulliken charges:
               1
     1  N   -0.703940
     2  C    0.264609
     3  O   -0.255405
     4  N   -0.479944
     5  H    0.306740
     6  H    0.214195
     7  H    0.308016
     8  H    0.345730
 Sum of Mulliken charges =  -0.00000

 Dipole moment (field-independent basis, Debye):
    X=             -1.5823    Y=              0.5785    Z=              1.3697  Tot=              2.1713
 Quadrupole moment (field-independent basis, Debye-Ang):
   XX=            -21.0781   YY=            -23.9141   ZZ=            -24.7898
   XY=             -3.6236   XZ=              3.0692   YZ=             -0.5490

 Normal termination of Gaussian 09 at Fri Aug 19 22:12:12 2022.
