 Gaussian 09, Revision E.01,
 Gaussian 09:  ES64L-G09RevE.01 30-Nov-2015

 -----
 #P G4
 -----

 ---------
 Frag_1079
 ---------
 Symbolic Z-matrix:
 Charge =  0 Multiplicity = 1

 SCF Done:  E(RB3LYP) =  -303.845492072     A.U. after   13 cycles
 SCF Done:  E(RB3LYP) =  -303.851230310     A.U. after   12 cycles
 SCF Done:  E(RB3LYP) =  -303.852483539     A.U. after   12 cycles
 SCF Done:  E(RB3LYP) =  -303.854045443     A.U. after   13 cycles
 SCF Done:  E(RB3LYP) =  -303.854591962     A.U. after   11 cycles
 SCF Done:  E(RB3LYP) =  -303.854942914     A.U. after   11 cycles
 SCF Done:  E(RB3LYP) =  -303.855023350     A.U. after   11 cycles
 SCF Done:  E(RB3LYP) =  -303.855043831     A.U. after   10 cycles
 SCF Done:  E(RB3LYP) =  -303.855051723     A.U. after    8 cycles
 SCF Done:  E(RB3LYP) =  -303.855054024     A.U. after    8 cycles
 SCF Done:  E(RB3LYP) =  -303.855054757     A.U. after    8 cycles
 Optimization completed.
    -- Stationary point found.
 Normal termination of Gaussian 09 at Wed Aug 24 14:14:20 2022.

 ----------------------------------------------------------
 #P Geom=AllCheck Guess=TCheck SCRF=Check B3LYP/GTBas3 Freq
 ----------------------------------------------------------

 Structure from the checkpoint file:  "G4.Frag_1079.chk"
 ---------
 Frag_1079
 ---------
 Charge =  0 Multiplicity = 1

 SCF Done:  E(RB3LYP) =  -303.855054757     A.U. after    1 cycles

  Exact polarizability:  63.630  -2.860  50.861  -0.612  -0.064  39.643
 Approx polarizability:  88.914  -9.059  73.824   1.213  -0.113  58.873

                      1                      2                      3
                      A                      A                      A
 Frequencies --    119.7326               241.2394               272.6799
 Red. masses --      2.5707                 1.1420                 1.3947
 Frc consts  --      0.0217                 0.0392                 0.0611
 IR Inten    --      0.0862                21.6099                 3.9776

                      4                      5                      6
                      A                      A                      A
 Frequencies --    293.1267               327.7418               393.0562
 Red. masses --      1.7058                 1.9865                 1.7159
 Frc consts  --      0.0864                 0.1257                 0.1562
 IR Inten    --     16.8851                 1.6400                64.9944

                      7                      8                      9
                      A                      A                      A
 Frequencies --    421.5923               461.6674               519.8847
 Red. masses --      1.7495                 2.3756                 2.7813
 Frc consts  --      0.1832                 0.2983                 0.4429
 IR Inten    --     52.5891                13.0126                69.1750

                     10                     11                     12
                      A                      A                      A
 Frequencies --    576.6455               720.5751               771.6855
 Red. masses --      2.6590                 1.9355                 3.5577
 Frc consts  --      0.5209                 0.5921                 1.2483
 IR Inten    --     13.1173                 0.9070                 5.2178

                     13                     14                     15
                      A                      A                      A
 Frequencies --    884.1628               898.9026               957.9747
 Red. masses --      1.7305                 1.6935                 2.0850
 Frc consts  --      0.7971                 0.8063                 1.1273
 IR Inten    --     62.9337               151.1726                99.0972

                     16                     17                     18
                      A                      A                      A
 Frequencies --    974.9731              1032.7783              1052.0800
 Red. masses --      1.3805                 1.1257                 1.6348
 Frc consts  --      0.7732                 0.7074                 1.0662
 IR Inten    --     25.3485                11.3038                80.9654

                     19                     20                     21
                      A                      A                      A
 Frequencies --   1065.2224              1117.2992              1257.2765
 Red. masses --      1.7338                 1.6072                 1.6939
 Frc consts  --      1.1591                 1.1821                 1.5776
 IR Inten    --     72.5525                31.3030                43.4898

                     22                     23                     24
                      A                      A                      A
 Frequencies --   1317.6641              1361.0182              1389.0036
 Red. masses --      1.3064                 1.6059                 1.8249
 Frc consts  --      1.3363                 1.7526                 2.0744
 IR Inten    --     21.6616                96.9162                22.1570

                     25                     26                     27
                      A                      A                      A
 Frequencies --   1447.8635              1631.4092              1656.6497
 Red. masses --      1.3388                 1.1215                 1.1050
 Frc consts  --      1.6536                 1.7586                 1.7868
 IR Inten    --     40.6166                34.4643                28.1009

                     28                     29                     30
                      A                      A                      A
 Frequencies --   1718.7902              3145.8761              3159.9312
 Red. masses --      4.9437                 1.0674                 1.0826
 Frc consts  --      8.6049                 6.2237                 6.3689
 IR Inten    --      1.3378                11.0803                 9.0156

                     31                     32                     33
                      A                      A                      A
 Frequencies --   3239.8165              3472.0179              3489.6381
 Red. masses --      1.1148                 1.0489                 1.0487
 Frc consts  --      6.8945                 7.4500                 7.5242
 IR Inten    --      6.5710                 0.1490                 0.6488

                     34                     35                     36
                      A                      A                      A
 Frequencies --   3551.4993              3575.6016              3786.7275
 Red. masses --      1.0914                 1.0924                 1.0651
 Frc consts  --      8.1105                 8.2289                 8.9986
 IR Inten    --      0.1003                 2.1446                13.0453

 - Thermochemistry -
 -------------------
 Temperature   298.150 Kelvin.  Pressure   1.00000 Atm.
 Atom     1 has atomic number  6 and mass  12.00000

 Molecular mass:    88.06366 amu.
 Principal axes and moments of inertia in atomic units:
                           1         2         3
     Eigenvalues --   361.74583 630.28930 654.15523
           X            0.99971   0.00333  -0.02375
           Y           -0.00472   0.99825  -0.05887
           Z            0.02351   0.05896   0.99798
 This molecule is an asymmetric top.
 Rotational symmetry number  1.
 Rotational temperatures (Kelvin)      0.23943     0.13742     0.13241
 Rotational constants (GHZ):           4.98898     2.86335     2.75889
 Zero-point vibrational energy     312846.2 (Joules/Mol)
                                   74.77204 (Kcal/Mol)
 Warning -- explicit consideration of  10 degrees of freedom as
           vibrations may cause significant error
 Vibrational temperatures:    172.27   347.09   392.33   421.74   471.55
          (Kelvin)            565.52   606.58   664.24   748.00   829.66
                             1036.75  1110.28  1272.11  1293.32  1378.31
                             1402.77  1485.94  1513.71  1532.62  1607.54
                             1808.94  1895.82  1958.20  1998.46  2083.15
                             2347.23  2383.55  2472.95  4526.21  4546.43
                             4661.37  4995.45  5020.80  5109.81  5144.49
                             5448.25

 Zero-point correction=                           0.119157 (Hartree/Particle)
 Thermal correction to Energy=                    0.126254
 Thermal correction to Enthalpy=                  0.127198
 Thermal correction to Gibbs Free Energy=         0.089083
 Sum of electronic and zero-point Energies=           -303.735898
 Sum of electronic and thermal Energies=              -303.728801
 Sum of electronic and thermal Enthalpies=            -303.727856
 Sum of electronic and thermal Free Energies=         -303.765972

                     E (Thermal)             CV                S
                      KCal/Mol        Cal/Mol-Kelvin    Cal/Mol-Kelvin
 Total                   79.226             26.574             80.220
 Electronic               0.000              0.000              0.000
 Translational            0.889              2.981             39.339
 Rotational               0.889              2.981             26.503
 Vibrational             77.448             20.613             14.378
 Vibration     1          0.609              1.933              3.105
 Vibration     2          0.658              1.777              1.794
 Vibration     3          0.676              1.724              1.579
 Vibration     4          0.688              1.687              1.456
 Vibration     5          0.711              1.620              1.271
 Vibration     6          0.760              1.485              0.989
 Vibration     7          0.784              1.423              0.887
 Vibration     8          0.819              1.335              0.761
 Vibration     9          0.875              1.206              0.610
 Vibration    10          0.933              1.082              0.492

 Normal termination of Gaussian 09 at Wed Aug 24 14:16:44 2022.

 -----------------------------------------------------------------
 #P Geom=AllCheck Guess=TCheck SCRF=Check CCSD(T,E4T,FrzG4)/GTBas1
 -----------------------------------------------------------------

 Structure from the checkpoint file:  "G4.Frag_1079.chk"
 ---------
 Frag_1079
 ---------
 Charge =  0 Multiplicity = 1

 SCF Done:  E(RHF) =  -301.981866676     A.U. after   12 cycles
 E2 =    -0.8916941027D+00 EUMP2 =    -0.30287356077838D+03
 CCSD(T)
 CCSD(T)= -0.30295106514D+03
 SDQ=-302.9225313\CCSD=-302.9233488\CCSD(T)=-302.9510651\RMSD=6.407e-09
 Normal termination of Gaussian 09 at Wed Aug 24 14:22:55 2022.

 ---------------------------------------------------------
 #P Geom=AllCheck Guess=TCheck SCRF=Check MP4=FrzG4/GTBas2
 ---------------------------------------------------------

 Structure from the checkpoint file:  "G4.Frag_1079.chk"
 ---------
 Frag_1079
 ---------
 Charge =  0 Multiplicity = 1

 SCF Done:  E(RHF) =  -301.995586791     A.U. after   12 cycles
 E2 =    -0.9075124607D+00 EUMP2 =    -0.30290309925196D+03
 Normal termination of Gaussian 09 at Wed Aug 24 14:28:55 2022.

 ---------------------------------------------------------
 #P Geom=AllCheck Guess=TCheck SCRF=Check MP4=FrzG4/GTBas3
 ---------------------------------------------------------

 Structure from the checkpoint file:  "G4.Frag_1079.chk"
 ---------
 Frag_1079
 ---------
 Charge =  0 Multiplicity = 1

 SCF Done:  E(RHF) =  -302.026668504     A.U. after   11 cycles
 E2 =    -0.1093516605D+01 EUMP2 =    -0.30312018510880D+03
 Normal termination of Gaussian 09 at Wed Aug 24 16:58:33 2022.

 -----------------------------------------------------------
 #P Geom=AllCheck Guess=TCheck SCRF=Check MP2=Full/GTLargeXP
 -----------------------------------------------------------

 Structure from the checkpoint file:  "G4.Frag_1079.chk"
 ---------
 Frag_1079
 ---------
 Charge =  0 Multiplicity = 1

 SCF Done:  E(RHF) =  -302.109240025     A.U. after   12 cycles
 E2 =    -0.1431643095D+01 EUMP2 =    -0.30354088312038D+03
 Normal termination of Gaussian 09 at Wed Aug 24 17:04:19 2022.
 SCF Done:  E(RHF) =  -302.133060240     A.U. after    8 cycles
 Normal termination of Gaussian 09 at Wed Aug 24 17:09:45 2022.

                         Standard orientation:
 ---------------------------------------------------------------------
 Center     Atomic      Atomic             Coordinates (Angstroms)
 Number     Number       Type             X           Y           Z
 ---------------------------------------------------------------------
      1          6           0       -2.159124   -0.004872   -0.058430
      2          6           0       -1.005317   -0.659635   -0.023669
      3          6           0        0.368409   -0.015394   -0.005518
      4          7           0        0.292367    1.392891   -0.362645
      5          7           0        1.237057   -0.758975   -0.897969
      6          8           0        0.911484   -0.090163    1.316186
      7          1           0       -3.108709   -0.528900   -0.034045
      8          1           0       -2.186882    1.078103   -0.108872
      9          1           0       -0.987473   -1.745733    0.039217
     10          1           0        1.206164    1.809079   -0.205363
     11          1           0        0.085678    1.475153   -1.354016
     12          1           0        2.185004   -0.403324   -0.794191
     13          1           0        1.267278   -1.733969   -0.608996
     14          1           0        0.317292    0.412891    1.886774
 ---------------------------------------------------------------------

 SCF Done:  E(RHF) =  -302.138225977     A.U. after    8 cycles

 The electronic state is 1-A.
 Alpha  occ. eigenvalues --  -20.55861 -15.54746 -15.54723 -11.34927 -11.23428
 Alpha  occ. eigenvalues --  -11.22666  -1.38304  -1.21167  -1.13964  -1.04652
 Alpha  occ. eigenvalues --   -0.87302  -0.76885  -0.71205  -0.68205  -0.66167
 Alpha  occ. eigenvalues --   -0.63848  -0.59699  -0.58891  -0.54447  -0.51504
 Alpha  occ. eigenvalues --   -0.46414  -0.43505  -0.41815  -0.37629
 Alpha virt. eigenvalues --    0.03889   0.04364   0.04857   0.05765   0.06551
 Alpha virt. eigenvalues --    0.07051   0.07626   0.08375   0.08677   0.10074
 Alpha virt. eigenvalues --    0.11081   0.11712   0.12891   0.13429   0.13711

 Mulliken charges:
               1
     1  C   -0.453211
     2  C   -0.186502
     3  C    0.538255
     4  N   -0.775926
     5  N   -0.695869
     6  O   -0.597832
     7  H    0.194152
     8  H    0.217564
     9  H    0.177675
    10  H    0.299992
    11  H    0.319083
    12  H    0.291904
    13  H    0.287215
    14  H    0.383501
 Sum of Mulliken charges =  -0.00000

 Dipole moment (field-independent basis, Debye):
    X=              0.0735    Y=              0.2135    Z=             -0.0934  Tot=              0.2444
 Quadrupole moment (field-independent basis, Debye-Ang):
   XX=            -34.1435   YY=            -34.8768   ZZ=            -40.0865
   XY=              1.4758   XZ=             -1.9697   YZ=             -0.7896

 Normal termination of Gaussian 09 at Wed Aug 24 19:53:42 2022.
