 Gaussian 09, Revision E.01,
 Gaussian 09:  ES64L-G09RevE.01 30-Nov-2015

 -----
 #P G4
 -----

 --------
 Frag_529
 --------
 Symbolic Z-matrix:
 Charge =  0 Multiplicity = 1

 SCF Done:  E(RB3LYP) =  -287.828913535     A.U. after   14 cycles
 SCF Done:  E(RB3LYP) =  -287.833998556     A.U. after   12 cycles
 SCF Done:  E(RB3LYP) =  -287.834529411     A.U. after   11 cycles
 SCF Done:  E(RB3LYP) =  -287.834500001     A.U. after   12 cycles
 SCF Done:  E(RB3LYP) =  -287.834748186     A.U. after    9 cycles
 SCF Done:  E(RB3LYP) =  -287.835210166     A.U. after   12 cycles
 SCF Done:  E(RB3LYP) =  -287.825575994     A.U. after   15 cycles
 SCF Done:  E(RB3LYP) =  -287.836217081     A.U. after   13 cycles
 SCF Done:  E(RB3LYP) =  -287.837031838     A.U. after   13 cycles
 SCF Done:  E(RB3LYP) =  -287.837557284     A.U. after   11 cycles
 SCF Done:  E(RB3LYP) =  -287.838755028     A.U. after   11 cycles
 SCF Done:  E(RB3LYP) =  -287.838755453     A.U. after    7 cycles
 SCF Done:  E(RB3LYP) =  -287.838755427     A.U. after    6 cycles
 Optimization completed.
    -- Stationary point found.
 Normal termination of Gaussian 09 at Sat Aug 20 06:06:06 2022.

 ----------------------------------------------------------
 #P Geom=AllCheck Guess=TCheck SCRF=Check B3LYP/GTBas3 Freq
 ----------------------------------------------------------

 Structure from the checkpoint file:  "G4.Frag_529.chk"
 --------
 Frag_529
 --------
 Charge =  0 Multiplicity = 1

 SCF Done:  E(RB3LYP) =  -287.838755427     A.U. after    1 cycles

  Exact polarizability:  60.075  -1.166  54.798   0.572  -3.173  45.396
 Approx polarizability:  76.054   0.171  82.825  -1.232  -9.760  69.541

                      1                      2                      3
                      A                      A                      A
 Frequencies --     72.0841               119.4891               235.6641
 Red. masses --      3.4074                 1.0391                 1.7315
 Frc consts  --      0.0104                 0.0087                 0.0567
 IR Inten    --      3.6281                 0.3925                 3.0373

                      4                      5                      6
                      A                      A                      A
 Frequencies --    245.0930               256.4000               304.3340
 Red. masses --      1.1637                 1.4359                 2.7027
 Frc consts  --      0.0412                 0.0556                 0.1475
 IR Inten    --     25.0230                17.1494                 3.1372

                      7                      8                      9
                      A                      A                      A
 Frequencies --    362.2882               448.6583               596.8987
 Red. masses --      2.9929                 2.5713                 2.5838
 Frc consts  --      0.2314                 0.3050                 0.5424
 IR Inten    --      0.4627                 9.0905                 2.3422

                     10                     11                     12
                      A                      A                      A
 Frequencies --    613.7390               750.6136               867.7958
 Red. masses --      3.3691                 2.4794                 2.0304
 Frc consts  --      0.7477                 0.8231                 0.9009
 IR Inten    --      8.6749                 7.4720               100.5174

                     13                     14                     15
                      A                      A                      A
 Frequencies --    917.3532               962.2234               985.4584
 Red. masses --      1.4150                 1.5366                 1.6159
 Frc consts  --      0.7016                 0.8382                 0.9246
 IR Inten    --     61.0595                18.8990                 7.5605

                     16                     17                     18
                      A                      A                      A
 Frequencies --   1036.9015              1097.6148              1167.8387
 Red. masses --      1.8925                 2.3286                 2.4371
 Frc consts  --      1.1988                 1.6529                 1.9583
 IR Inten    --      5.4668                 9.8152                45.0681

                     19                     20                     21
                      A                      A                      A
 Frequencies --   1192.1558              1243.8294              1339.5637
 Red. masses --      1.3122                 2.0535                 1.2852
 Frc consts  --      1.0988                 1.8719                 1.3588
 IR Inten    --      3.6397                29.2665                 4.9924

                     22                     23                     24
                      A                      A                      A
 Frequencies --   1381.0093              1395.5488              1411.0690
 Red. masses --      1.2704                 1.2776                 1.4160
 Frc consts  --      1.4275                 1.4660                 1.6611
 IR Inten    --     26.4050                 3.0598                 6.4948

                     25                     26                     27
                      A                      A                      A
 Frequencies --   1462.7664              1474.8460              1496.5199
 Red. masses --      1.0544                 1.0532                 1.0448
 Frc consts  --      1.3293                 1.3497                 1.3787
 IR Inten    --      8.5090                 7.0220                 6.9019

                     28                     29                     30
                      A                      A                      A
 Frequencies --   1497.8826              1639.4603              1810.6906
 Red. masses --      1.0840                 1.1030                 9.0978
 Frc consts  --      1.4329                 1.7467                17.5741
 IR Inten    --      5.5611                61.5378               120.1660

                     31                     32                     33
                      A                      A                      A
 Frequencies --   2997.9847              3029.5504              3038.5579
 Red. masses --      1.0826                 1.0339                 1.0387
 Frc consts  --      5.7330                 5.5909                 5.6501
 IR Inten    --     32.9015                18.3152                 3.0528

                     34                     35                     36
                      A                      A                      A
 Frequencies --   3098.4390              3103.3734              3111.0914
 Red. masses --      1.1001                 1.0965                 1.1027
 Frc consts  --      6.2224                 6.2222                 6.2885
 IR Inten    --     17.8380                20.0923                23.5527

                     37                     38                     39
                      A                      A                      A
 Frequencies --   3153.1910              3488.5519              3575.6087
 Red. masses --      1.1027                 1.0491                 1.0918
 Frc consts  --      6.4598                 7.5227                 8.2239
 IR Inten    --      9.4388                10.6103                 5.8929

 - Thermochemistry -
 -------------------
 Temperature   298.150 Kelvin.  Pressure   1.00000 Atm.
 Atom     1 has atomic number  6 and mass  12.00000

 Molecular mass:    87.06841 amu.
 Principal axes and moments of inertia in atomic units:
                           1         2         3
     Eigenvalues --   373.31537 617.17600 801.41555
           X            0.99879  -0.03495   0.03449
           Y            0.03434   0.99925   0.01791
           Z           -0.03509  -0.01670   0.99924
 This molecule is an asymmetric top.
 Rotational symmetry number  1.
 Rotational temperatures (Kelvin)      0.23201     0.14034     0.10808
 Rotational constants (GHZ):           4.83436     2.92419     2.25194
 Zero-point vibrational energy     340828.9 (Joules/Mol)
                                   81.46006 (Kcal/Mol)
 Warning -- explicit consideration of  10 degrees of freedom as
           vibrations may cause significant error
 Vibrational temperatures:    103.71   171.92   339.07   352.63   368.90
          (Kelvin)            437.87   521.25   645.52   858.80   883.03
                             1079.96  1248.56  1319.87  1384.42  1417.85
                             1491.87  1579.22  1680.26  1715.24  1789.59
                             1927.33  1986.96  2007.88  2030.21  2104.59
                             2121.97  2153.16  2155.12  2358.81  2605.18
                             4313.43  4358.84  4371.80  4457.96  4465.06
                             4476.16  4536.73  5019.24  5144.50

 Zero-point correction=                           0.129815 (Hartree/Particle)
 Thermal correction to Energy=                    0.137407
 Thermal correction to Enthalpy=                  0.138351
 Thermal correction to Gibbs Free Energy=         0.098509
 Sum of electronic and zero-point Energies=           -287.708941
 Sum of electronic and thermal Energies=              -287.701349
 Sum of electronic and thermal Enthalpies=            -287.700405
 Sum of electronic and thermal Free Energies=         -287.740246

                     E (Thermal)             CV                S
                      KCal/Mol        Cal/Mol-Kelvin    Cal/Mol-Kelvin
 Total                   86.224             26.440             83.853
 Electronic               0.000              0.000              0.000
 Translational            0.889              2.981             39.305
 Rotational               0.889              2.981             26.715
 Vibrational             84.446             20.478             17.833
 Vibration     1          0.598              1.967              4.096
 Vibration     2          0.609              1.933              3.109
 Vibration     3          0.655              1.786              1.835
 Vibration     4          0.660              1.771              1.766
 Vibration     5          0.666              1.752              1.686
 Vibration     6          0.695              1.665              1.393
 Vibration     7          0.736              1.550              1.112
 Vibration     8          0.808              1.364              0.800
 Vibration     9          0.955              1.038              0.455
 Vibration    10          0.973              1.003              0.427

 Optimization completed.
    -- Stationary point found.
 Normal termination of Gaussian 09 at Sat Aug 20 06:08:50 2022.

 -----------------------------------------------------------------
 #P Geom=AllCheck Guess=TCheck SCRF=Check CCSD(T,E4T,FrzG4)/GTBas1
 -----------------------------------------------------------------

 Structure from the checkpoint file:  "G4.Frag_529.chk"
 --------
 Frag_529
 --------
 Charge =  0 Multiplicity = 1

 SCF Done:  E(RHF) =  -286.014522445     A.U. after   14 cycles
 E2 =    -0.8588537415D+00 EUMP2 =    -0.28687337618661D+03
 CCSD(T)
 CCSD(T)= -0.28695423866D+03
 .9262428\CCSD(T)=-286.9542387\RMSD=3.449e-09\PG=C01 [X(C4H9N1O1)]\\@
 Normal termination of Gaussian 09 at Sat Aug 20 06:15:17 2022.

 ---------------------------------------------------------
 #P Geom=AllCheck Guess=TCheck SCRF=Check MP4=FrzG4/GTBas2
 ---------------------------------------------------------

 Structure from the checkpoint file:  "G4.Frag_529.chk"
 --------
 Frag_529
 --------
 Charge =  0 Multiplicity = 1

 SCF Done:  E(RHF) =  -286.023162369     A.U. after   13 cycles
 E2 =    -0.8710986506D+00 EUMP2 =    -0.28689426101914D+03
 Normal termination of Gaussian 09 at Sat Aug 20 06:21:51 2022.

 ---------------------------------------------------------
 #P Geom=AllCheck Guess=TCheck SCRF=Check MP4=FrzG4/GTBas3
 ---------------------------------------------------------

 Structure from the checkpoint file:  "G4.Frag_529.chk"
 --------
 Frag_529
 --------
 Charge =  0 Multiplicity = 1

 SCF Done:  E(RHF) =  -286.051435326     A.U. after   11 cycles
 E2 =    -0.1059122312D+01 EUMP2 =    -0.28711055763797D+03
 Normal termination of Gaussian 09 at Sat Aug 20 09:39:33 2022.

 -----------------------------------------------------------
 #P Geom=AllCheck Guess=TCheck SCRF=Check MP2=Full/GTLargeXP
 -----------------------------------------------------------

 Structure from the checkpoint file:  "G4.Frag_529.chk"
 --------
 Frag_529
 --------
 Charge =  0 Multiplicity = 1

 SCF Done:  E(RHF) =  -286.123074991     A.U. after   12 cycles
 E2 =    -0.1389756063D+01 EUMP2 =    -0.28751283105399D+03
 Normal termination of Gaussian 09 at Sat Aug 20 09:45:48 2022.
 SCF Done:  E(RHF) =  -286.145421688     A.U. after    9 cycles
 Normal termination of Gaussian 09 at Sat Aug 20 09:52:13 2022.

                         Standard orientation:
 ---------------------------------------------------------------------
 Center     Atomic      Atomic             Coordinates (Angstroms)
 Number     Number       Type             X           Y           Z
 ---------------------------------------------------------------------
      1          6           0       -1.920805    0.609483   -0.369799
      2          6           0       -0.740259   -0.248357    0.034970
      3          8           0       -0.871525   -1.251570    0.699409
      4          6           0        0.648279    0.210691   -0.425855
      5          6           0        1.153512    1.291765    0.558546
      6          7           0        1.517196   -0.954034   -0.532527
      7          1           0       -2.801933    0.332900    0.210373
      8          1           0       -2.127789    0.442958   -1.434043
      9          1           0       -1.707331    1.676088   -0.251753
     10          1           0        0.537554    0.680515   -1.413913
     11          1           0        2.147415    1.632704    0.250999
     12          1           0        1.228396    0.878520    1.569564
     13          1           0        0.499784    2.169923    0.589324
     14          1           0        1.247494   -1.611252    0.195392
     15          1           0        2.483873   -0.693047   -0.370700
 ---------------------------------------------------------------------

 SCF Done:  E(RHF) =  -286.150203404     A.U. after    8 cycles

 The electronic state is 1-A.
 Alpha  occ. eigenvalues --  -20.54790 -15.53794 -11.33285 -11.27171 -11.23879
 Alpha  occ. eigenvalues --  -11.23420  -1.39435  -1.18849  -1.03742  -0.98692
 Alpha  occ. eigenvalues --   -0.87489  -0.73931  -0.69287  -0.64500  -0.62576
 Alpha  occ. eigenvalues --   -0.60223  -0.59626  -0.56852  -0.56078  -0.53418
 Alpha  occ. eigenvalues --   -0.51601  -0.49614  -0.41428  -0.39525
 Alpha virt. eigenvalues --    0.03040   0.03793   0.04491   0.05315   0.06378
 Alpha virt. eigenvalues --    0.06944   0.07191   0.07651   0.08038   0.09703
 Alpha virt. eigenvalues --    0.09985   0.10236   0.11152   0.12039   0.13188

 Mulliken charges:
               1
     1  C   -0.574639
     2  C    0.480284
     3  O   -0.552835
     4  C    0.027433
     5  C   -0.563754
     6  N   -0.711359
     7  H    0.212088
     8  H    0.198751
     9  H    0.186269
    10  H    0.167298
    11  H    0.171356
    12  H    0.187272
    13  H    0.164003
    14  H    0.325911
    15  H    0.281920
 Sum of Mulliken charges =  -0.00000

 Dipole moment (field-independent basis, Debye):
    X=              0.4512    Y=              3.3181    Z=             -0.3940  Tot=              3.3717
 Quadrupole moment (field-independent basis, Debye-Ang):
   XX=            -34.3774   YY=            -41.2002   ZZ=            -40.0569
   XY=             -1.8054   XZ=              3.7205   YZ=             -0.4954

 Normal termination of Gaussian 09 at Sat Aug 20 12:45:10 2022.
