 Gaussian 09, Revision E.01,
 Gaussian 09:  ES64L-G09RevE.01 30-Nov-2015

 -----
 #P G4
 -----

 ---------
 Frag_1123
 ---------
 Symbolic Z-matrix:
 Charge =  0 Multiplicity = 1

 SCF Done:  E(RB3LYP) =  -287.699284625     A.U. after   14 cycles
 SCF Done:  E(RB3LYP) =  -287.706491223     A.U. after   12 cycles
 SCF Done:  E(RB3LYP) =  -287.708637853     A.U. after   12 cycles
 SCF Done:  E(RB3LYP) =  -287.712265398     A.U. after   14 cycles
 SCF Done:  E(RB3LYP) =  -287.713795814     A.U. after   12 cycles
 SCF Done:  E(RB3LYP) =  -287.715289288     A.U. after   12 cycles
 SCF Done:  E(RB3LYP) =  -287.715416722     A.U. after   12 cycles
 SCF Done:  E(RB3LYP) =  -287.715507094     A.U. after   11 cycles
 SCF Done:  E(RB3LYP) =  -287.715520944     A.U. after    8 cycles
 SCF Done:  E(RB3LYP) =  -287.715522678     A.U. after    8 cycles
 Optimization completed.
    -- Stationary point found.
 Normal termination of Gaussian 09 at Fri Aug 26 11:44:21 2022.

 ----------------------------------------------------------
 #P Geom=AllCheck Guess=TCheck SCRF=Check B3LYP/GTBas3 Freq
 ----------------------------------------------------------

 Structure from the checkpoint file:  "G4.Frag_1123.chk"
 ---------
 Frag_1123
 ---------
 Charge =  0 Multiplicity = 1

 SCF Done:  E(RB3LYP) =  -287.715522678     A.U. after    1 cycles

  Exact polarizability:  68.774  -0.006  45.967  -3.632   0.019  54.553
 Approx polarizability:  94.448  -0.018  62.543  -9.550   0.051  90.299

                      1                      2                      3
                      A                      A                      A
 Frequencies --    130.9723               248.9147               284.0825
 Red. masses --      2.6529                 1.0210                 1.1313
 Frc consts  --      0.0268                 0.0373                 0.0538
 IR Inten    --      0.7806                 0.3140                 1.1622

                      4                      5                      6
                      A                      A                      A
 Frequencies --    335.6427               347.1243               362.6338
 Red. masses --      2.4778                 2.0185                 2.3918
 Frc consts  --      0.1645                 0.1433                 0.1853
 IR Inten    --     12.1920                 3.5353                 1.3526

                      7                      8                      9
                      A                      A                      A
 Frequencies --    453.5606               480.9522               555.7124
 Red. masses --      3.0160                 2.9315                 3.0348
 Frc consts  --      0.3656                 0.3995                 0.5522
 IR Inten    --     13.0686                13.1942                 4.8599

                     10                     11                     12
                      A                      A                      A
 Frequencies --    707.3512               726.3029               891.1822
 Red. masses --      3.1273                 1.7569                 2.6575
 Frc consts  --      0.9219                 0.5461                 1.2435
 IR Inten    --      0.6265                15.1910                 4.2495

                     13                     14                     15
                      A                      A                      A
 Frequencies --    919.7203               962.6626               978.8728
 Red. masses --      1.9753                 1.3449                 3.6539
 Frc consts  --      0.9845                 0.7343                 2.0628
 IR Inten    --      3.1290                 6.5938                27.6273

                     16                     17                     18
                      A                      A                      A
 Frequencies --    996.2343              1046.0233              1094.9131
 Red. masses --      1.0701                 1.7218                 1.2665
 Frc consts  --      0.6258                 1.1100                 0.8946
 IR Inten    --     32.0996                 4.3808                 3.0990

                     19                     20                     21
                      A                      A                      A
 Frequencies --   1201.4308              1205.3617              1256.3976
 Red. masses --      1.8203                 2.4406                 1.9331
 Frc consts  --      1.5481                 2.0892                 1.7979
 IR Inten    --     10.5938                 0.3472                 1.6475

                     22                     23                     24
                      A                      A                      A
 Frequencies --   1304.1496              1362.4238              1402.2575
 Red. masses --      1.2229                 1.1659                 1.1663
 Frc consts  --      1.2255                 1.2751                 1.3512
 IR Inten    --      7.1756                11.8395                 0.1648

                     25                     26                     27
                      A                      A                      A
 Frequencies --   1434.8929              1458.9244              1473.4628
 Red. masses --      1.1951                 1.0504                 1.0488
 Frc consts  --      1.4498                 1.3173                 1.3416
 IR Inten    --      0.2254                 1.7761                 7.1632

                     28                     29                     30
                      A                      A                      A
 Frequencies --   1476.8095              1495.8348              1719.0044
 Red. masses --      1.0510                 1.0478                 5.3967
 Frc consts  --      1.3505                 1.3813                 9.3957
 IR Inten    --      5.1484                10.1866                15.7976

                     31                     32                     33
                      A                      A                      A
 Frequencies --   3037.7271              3046.6572              3145.2043
 Red. masses --      1.0385                 1.0378                 1.0949
 Frc consts  --      5.6463                 5.6755                 6.3815
 IR Inten    --     13.1164                41.2272                 0.5800

                     34                     35                     36
                      A                      A                      A
 Frequencies --   3151.2112              3159.9592              3183.3011
 Red. masses --      1.0955                 1.0561                 1.1061
 Frc consts  --      6.4092                 6.2134                 6.6037
 IR Inten    --     18.7248                 4.4067                 2.4261

                     37                     38                     39
                      A                      A                      A
 Frequencies --   3186.4239              3194.7424              3269.7072
 Red. masses --      1.1063                 1.0978                 1.1170
 Frc consts  --      6.6180                 6.6015                 7.0361
 IR Inten    --      8.8424                15.5077                 0.7897

 - Thermochemistry -
 -------------------
 Temperature   298.150 Kelvin.  Pressure   1.00000 Atm.
 Atom     1 has atomic number  6 and mass  12.00000

 Molecular mass:    87.06841 amu.
 Principal axes and moments of inertia in atomic units:
                           1         2         3
     Eigenvalues --   356.21200 606.26150 615.70185
           X            0.99968  -0.00007  -0.02521
           Y            0.00003   1.00000  -0.00187
           Z            0.02521   0.00187   0.99968
 This molecule is an asymmetric top.
 Rotational symmetry number  1.
 Rotational temperatures (Kelvin)      0.24315     0.14287     0.14067
 Rotational constants (GHZ):           5.06648     2.97684     2.93119
 Zero-point vibrational energy     339074.0 (Joules/Mol)
                                   81.04062 (Kcal/Mol)
 Warning -- explicit consideration of   9 degrees of freedom as
           vibrations may cause significant error
 Vibrational temperatures:    188.44   358.13   408.73   482.91   499.43
          (Kelvin)            521.75   652.57   691.98   799.55  1017.72
                             1044.99  1282.21  1323.27  1385.06  1408.38
                             1433.36  1504.99  1575.33  1728.59  1734.24
                             1807.67  1876.38  1960.22  2017.53  2064.49
                             2099.06  2119.98  2124.80  2152.17  2473.26
                             4370.61  4383.45  4525.24  4533.88  4546.47
                             4580.05  4584.55  4596.52  4704.37

 Zero-point correction=                           0.129146 (Hartree/Particle)
 Thermal correction to Energy=                    0.135957
 Thermal correction to Enthalpy=                  0.136902
 Thermal correction to Gibbs Free Energy=         0.099381
 Sum of electronic and zero-point Energies=           -287.586376
 Sum of electronic and thermal Energies=              -287.579565
 Sum of electronic and thermal Enthalpies=            -287.578621
 Sum of electronic and thermal Free Energies=         -287.616141

                     E (Thermal)             CV                S
                      KCal/Mol        Cal/Mol-Kelvin    Cal/Mol-Kelvin
 Total                   85.315             25.658             78.968
 Electronic               0.000              0.000              0.000
 Translational            0.889              2.981             39.305
 Rotational               0.889              2.981             26.389
 Vibrational             83.537             19.696             13.274
 Vibration     1          0.612              1.922              2.932
 Vibration     2          0.662              1.765              1.738
 Vibration     3          0.682              1.703              1.509
 Vibration     4          0.717              1.604              1.233
 Vibration     5          0.725              1.581              1.179
 Vibration     6          0.736              1.549              1.111
 Vibration     7          0.812              1.353              0.785
 Vibration     8          0.837              1.292              0.708
 Vibration     9          0.911              1.127              0.532

 Normal termination of Gaussian 09 at Fri Aug 26 11:44:56 2022.

 -----------------------------------------------------------------
 #P Geom=AllCheck Guess=TCheck SCRF=Check CCSD(T,E4T,FrzG4)/GTBas1
 -----------------------------------------------------------------

 Structure from the checkpoint file:  "G4.Frag_1123.chk"
 ---------
 Frag_1123
 ---------
 Charge =  0 Multiplicity = 1

 SCF Done:  E(RHF) =  -285.882801851     A.U. after   12 cycles
 E2 =    -0.8669371069D+00 EUMP2 =    -0.28674973895801D+03
 CCSD(T)
 CCSD(T)= -0.28683480676D+03
 6.8041475\CCSD(T)=-286.8348068\RMSD=6.253e-09\PG=C01 [X(C4H9N1O1)]\\@
 Normal termination of Gaussian 09 at Fri Aug 26 11:47:10 2022.

 ---------------------------------------------------------
 #P Geom=AllCheck Guess=TCheck SCRF=Check MP4=FrzG4/GTBas2
 ---------------------------------------------------------

 Structure from the checkpoint file:  "G4.Frag_1123.chk"
 ---------
 Frag_1123
 ---------
 Charge =  0 Multiplicity = 1

 SCF Done:  E(RHF) =  -285.895466902     A.U. after   12 cycles
 E2 =    -0.8816949816D+00 EUMP2 =    -0.28677716188368D+03
 Normal termination of Gaussian 09 at Fri Aug 26 11:47:51 2022.

 ---------------------------------------------------------
 #P Geom=AllCheck Guess=TCheck SCRF=Check MP4=FrzG4/GTBas3
 ---------------------------------------------------------

 Structure from the checkpoint file:  "G4.Frag_1123.chk"
 ---------
 Frag_1123
 ---------
 Charge =  0 Multiplicity = 1

 SCF Done:  E(RHF) =  -285.916056861     A.U. after   12 cycles
 E2 =    -0.1067158881D+01 EUMP2 =    -0.28698321574220D+03
 Normal termination of Gaussian 09 at Fri Aug 26 11:51:48 2022.

 -----------------------------------------------------------
 #P Geom=AllCheck Guess=TCheck SCRF=Check MP2=Full/GTLargeXP
 -----------------------------------------------------------

 Structure from the checkpoint file:  "G4.Frag_1123.chk"
 ---------
 Frag_1123
 ---------
 Charge =  0 Multiplicity = 1

 SCF Done:  E(RHF) =  -285.991387439     A.U. after   12 cycles
 E2 =    -0.1399427694D+01 EUMP2 =    -0.28739081513260D+03
 Normal termination of Gaussian 09 at Fri Aug 26 11:54:00 2022.
 SCF Done:  E(RHF) =  -286.013850768     A.U. after    9 cycles
 Normal termination of Gaussian 09 at Fri Aug 26 11:56:22 2022.

                         Standard orientation:
 ---------------------------------------------------------------------
 Center     Atomic      Atomic             Coordinates (Angstroms)
 Number     Number       Type             X           Y           Z
 ---------------------------------------------------------------------
      1          6           0       -2.100394   -0.000056   -0.015670
      2          6           0       -0.963302   -0.001366   -0.681790
      3          7           0        0.327209    0.000086    0.075382
      4          6           0        1.094099    1.230070   -0.334060
      5          6           0        1.094937   -1.230630   -0.330625
      6          8           0        0.162601    0.002118    1.409134
      7          1           0       -2.049620    0.002053    1.067508
      8          1           0       -3.052584   -0.001714   -0.531500
      9          1           0       -0.849972   -0.004044   -1.760644
     10          1           0        1.258632    1.267482   -1.416016
     11          1           0        2.039972    1.198426    0.205656
     12          1           0        0.504334    2.080869    0.002394
     13          1           0        1.260441   -1.270248   -1.412335
     14          1           0        0.505219   -2.080959    0.007082
     15          1           0        2.040258   -1.197514    0.209974
 ---------------------------------------------------------------------

 SCF Done:  E(RHF) =  -286.018620594     A.U. after    8 cycles

 The electronic state is 1-A.
 Alpha  occ. eigenvalues --  -20.45964 -15.70372 -11.27276 -11.26945 -11.26941
 Alpha  occ. eigenvalues --  -11.23365  -1.39124  -1.12270  -1.04688  -0.98597
 Alpha  occ. eigenvalues --   -0.88748  -0.77418  -0.70101  -0.66517  -0.65486
 Alpha  occ. eigenvalues --   -0.61829  -0.58126  -0.56723  -0.54393  -0.54334
 Alpha  occ. eigenvalues --   -0.51901  -0.39211  -0.37643  -0.37167
 Alpha virt. eigenvalues --    0.02918   0.03939   0.04011   0.04904   0.06304
 Alpha virt. eigenvalues --    0.06515   0.06760   0.07570   0.07832   0.09449
 Alpha virt. eigenvalues --    0.09964   0.10482   0.10789   0.13244   0.13846

 Mulliken charges:
               1
     1  C   -0.397431
     2  C   -0.279588
     3  N    0.538753
     4  C   -0.496814
     5  C   -0.496851
     6  O   -0.733240
     7  H    0.268054
     8  H    0.209124
     9  H    0.211222
    10  H    0.172002
    11  H    0.202344
    12  H    0.214030
    13  H    0.172010
    14  H    0.213960
    15  H    0.202425
 Sum of Mulliken charges =  -0.00000

 Dipole moment (field-independent basis, Debye):
    X=              0.6206    Y=             -0.0079    Z=             -4.6438  Tot=              4.6851
 Quadrupole moment (field-independent basis, Debye-Ang):
   XX=            -32.7360   YY=            -36.6526   ZZ=            -42.8225
   XY=             -0.0012   XZ=             -1.4321   YZ=             -0.0056

 Normal termination of Gaussian 09 at Fri Aug 26 12:04:42 2022.
