 Gaussian 09, Revision E.01,
 Gaussian 09:  ES64L-G09RevE.01 30-Nov-2015

 -----
 #P G4
 -----

 --------
 Frag_881
 --------
 Symbolic Z-matrix:
 Charge =  0 Multiplicity = 1

 SCF Done:  E(RB3LYP) =  -221.333669715     A.U. after   12 cycles
 SCF Done:  E(RB3LYP) =  -221.342481349     A.U. after   12 cycles
 SCF Done:  E(RB3LYP) =  -221.344036157     A.U. after   11 cycles
 SCF Done:  E(RB3LYP) =  -221.344440065     A.U. after   10 cycles
 SCF Done:  E(RB3LYP) =  -221.344491471     A.U. after   11 cycles
 SCF Done:  E(RB3LYP) =  -221.344530648     A.U. after   10 cycles
 SCF Done:  E(RB3LYP) =  -221.344530532     A.U. after   10 cycles
 SCF Done:  E(RB3LYP) =  -221.344538489     A.U. after    9 cycles
 Optimization completed.
    -- Stationary point found.
 Normal termination of Gaussian 09 at Tue Aug 30 12:30:55 2022.

 ----------------------------------------------------------
 #P Geom=AllCheck Guess=TCheck SCRF=Check B3LYP/GTBas3 Freq
 ----------------------------------------------------------

 Structure from the checkpoint file:  "G4.Frag_881.chk"
 --------
 Frag_881
 --------
 Charge =  0 Multiplicity = 1

 SCF Done:  E(RB3LYP) =  -221.344538489     A.U. after    1 cycles

  Exact polarizability:  55.994  -0.393  27.173   1.586   0.156  17.485
 Approx polarizability:  85.833  -6.782  42.278  -1.391   0.715  26.090

                      1                      2                      3
                      A                      A                      A
 Frequencies --    294.4365               368.1058               431.9193
 Red. masses --      1.6890                 2.5273                 1.7973
 Frc consts  --      0.0863                 0.2018                 0.1975
 IR Inten    --     48.6521               116.6759                17.1032

                      4                      5                      6
                      A                      A                      A
 Frequencies --    433.2313               656.2952               756.4464
 Red. masses --      1.4757                 4.5498                 1.7802
 Frc consts  --      0.1632                 1.1546                 0.6002
 IR Inten    --      0.0605                 0.0002               557.2293

                      7                      8                      9
                      A                      A                      A
 Frequencies --    829.8492              1099.2515              1155.8402
 Red. masses --      1.3896                 2.0380                 3.0503
 Frc consts  --      0.5638                 1.4510                 2.4010
 IR Inten    --      0.0012                 0.0000                50.2547

                     10                     11                     12
                      A                      A                      A
 Frequencies --   1329.4192              1340.6214              1612.7965
 Red. masses --      1.2886                 2.0553                 1.7652
 Frc consts  --      1.3418                 2.1764                 2.7053
 IR Inten    --      2.2969                 0.0000                 0.0000

                     13                     14                     15
                      A                      A                      A
 Frequencies --   1633.6104              1648.8298              3453.2655
 Red. masses --      1.1052                 2.0557                 1.0498
 Frc consts  --      1.7377                 3.2928                 7.3762
 IR Inten    --     51.2139                 0.0002                 0.0104

                     16                     17                     18
                      A                      A                      A
 Frequencies --   3453.4084              3608.9489              3609.2039
 Red. masses --      1.0491                 1.0930                 1.0935
 Frc consts  --      7.3718                 8.3873                 8.3926
 IR Inten    --      2.1891                26.8844                 0.0765

 - Thermochemistry -
 -------------------
 Temperature   298.150 Kelvin.  Pressure   1.00000 Atm.
 Atom     1 has atomic number  7 and mass  14.00307

 Molecular mass:    60.04360 amu.
 Principal axes and moments of inertia in atomic units:
                           1         2         3
     Eigenvalues --    32.47963 377.17598 404.78109
           X            0.99962   0.01096   0.02539
           Y           -0.01117   0.99990   0.00826
           Z           -0.02530  -0.00854   0.99964
 This molecule is an asymmetric top.
 Rotational symmetry number  1.
 Rotational temperatures (Kelvin)      2.66671     0.22964     0.21398
 Rotational constants (GHZ):          55.56532     4.78488     4.45856
 Zero-point vibrational energy     165775.4 (Joules/Mol)
                                   39.62127 (Kcal/Mol)
 Warning -- explicit consideration of   4 degrees of freedom as
           vibrations may cause significant error
 Vibrational temperatures:    423.63   529.62   621.43   623.32   944.26
          (Kelvin)           1088.36  1193.97  1581.58  1662.99  1912.74
                             1928.85  2320.45  2350.40  2372.30  4968.47
                             4968.68  5192.47  5192.83

 Zero-point correction=                           0.063141 (Hartree/Particle)
 Thermal correction to Energy=                    0.067667
 Thermal correction to Enthalpy=                  0.068611
 Thermal correction to Gibbs Free Energy=         0.037002
 Sum of electronic and zero-point Energies=           -221.281398
 Sum of electronic and thermal Energies=              -221.276872
 Sum of electronic and thermal Enthalpies=            -221.275928
 Sum of electronic and thermal Free Energies=         -221.307537

                     E (Thermal)             CV                S
                      KCal/Mol        Cal/Mol-Kelvin    Cal/Mol-Kelvin
 Total                   42.461             15.146             66.527
 Electronic               0.000              0.000              0.000
 Translational            0.889              2.981             38.198
 Rotational               0.889              2.981             23.121
 Vibrational             40.684              9.184              5.209
 Vibration     1          0.689              1.684              1.448
 Vibration     2          0.741              1.538              1.088
 Vibration     3          0.793              1.401              0.852
 Vibration     4          0.794              1.398              0.848

 Optimization completed.
    -- Stationary point found.
 Normal termination of Gaussian 09 at Tue Aug 30 12:31:07 2022.

 -----------------------------------------------------------------
 #P Geom=AllCheck Guess=TCheck SCRF=Check CCSD(T,E4T,FrzG4)/GTBas1
 -----------------------------------------------------------------

 Structure from the checkpoint file:  "G4.Frag_881.chk"
 --------
 Frag_881
 --------
 Charge =  0 Multiplicity = 1

 SCF Done:  E(RHF) =  -220.016239882     A.U. after   14 cycles
 E2 =    -0.6565573789D+00 EUMP2 =    -0.22067279726092D+03
 CCSD(T)
 CCSD(T)= -0.22072095852D+03
 8999\MP4SDQ=-220.6981611\CCSD=-220.6981306\CCSD(T)=-220.7209585\RMSD=3
 Normal termination of Gaussian 09 at Tue Aug 30 12:31:29 2022.

 ---------------------------------------------------------
 #P Geom=AllCheck Guess=TCheck SCRF=Check MP4=FrzG4/GTBas2
 ---------------------------------------------------------

 Structure from the checkpoint file:  "G4.Frag_881.chk"
 --------
 Frag_881
 --------
 Charge =  0 Multiplicity = 1

 SCF Done:  E(RHF) =  -220.026674858     A.U. after   12 cycles
 E2 =    -0.6678866766D+00 EUMP2 =    -0.22069456153467D+03
 Normal termination of Gaussian 09 at Tue Aug 30 12:31:35 2022.

 ---------------------------------------------------------
 #P Geom=AllCheck Guess=TCheck SCRF=Check MP4=FrzG4/GTBas3
 ---------------------------------------------------------

 Structure from the checkpoint file:  "G4.Frag_881.chk"
 --------
 Frag_881
 --------
 Charge =  0 Multiplicity = 1

 SCF Done:  E(RHF) =  -220.047625035     A.U. after   12 cycles
 E2 =    -0.7841358221D+00 EUMP2 =    -0.22083176085687D+03
 Normal termination of Gaussian 09 at Tue Aug 30 12:32:00 2022.

 -----------------------------------------------------------
 #P Geom=AllCheck Guess=TCheck SCRF=Check MP2=Full/GTLargeXP
 -----------------------------------------------------------

 Structure from the checkpoint file:  "G4.Frag_881.chk"
 --------
 Frag_881
 --------
 Charge =  0 Multiplicity = 1

 SCF Done:  E(RHF) =  -220.109134306     A.U. after   12 cycles
 E2 =    -0.1014960665D+01 EUMP2 =    -0.22112409497066D+03
 Normal termination of Gaussian 09 at Tue Aug 30 12:32:16 2022.
 SCF Done:  E(RHF) =  -220.127520461     A.U. after    9 cycles
 Normal termination of Gaussian 09 at Tue Aug 30 12:32:37 2022.

                         Standard orientation:
 ---------------------------------------------------------------------
 Center     Atomic      Atomic             Coordinates (Angstroms)
 Number     Number       Type             X           Y           Z
 ---------------------------------------------------------------------
      1          7           0       -1.713537   -0.067456    0.107884
      2          7           0       -0.433251    0.445994    0.010800
      3          7           0        0.433253   -0.446014   -0.010113
      4          7           0        1.713482    0.067421   -0.108357
      5          1           0       -1.767291   -1.028158   -0.227422
      6          1           0       -2.344076    0.543380   -0.395917
      7          1           0        1.767399    1.028289    0.226442
      8          1           0        2.344338   -0.543126    0.395400
 ---------------------------------------------------------------------

 SCF Done:  E(RHF) =  -220.131123570     A.U. after    8 cycles

 The electronic state is 1-A.
 Alpha  occ. eigenvalues --  -15.64876 -15.64736 -15.59048 -15.59046  -1.42126
 Alpha  occ. eigenvalues --   -1.24760  -1.09681  -0.84920  -0.73094  -0.72822
 Alpha  occ. eigenvalues --   -0.63244  -0.61128  -0.57574  -0.48774  -0.42562
 Alpha  occ. eigenvalues --   -0.35564
 Alpha virt. eigenvalues --    0.05134   0.06030   0.06602   0.08021   0.08883
 Alpha virt. eigenvalues --    0.09054   0.09867   0.11290   0.12740   0.14093
 Alpha virt. eigenvalues --    0.14879   0.15252   0.16366   0.19545   0.20345

 Mulliken charges:
               1
     1  N   -0.542114
     2  N   -0.086595
     3  N   -0.086661
     4  N   -0.542032
     5  H    0.311560
     6  H    0.317156
     7  H    0.311550
     8  H    0.317135
 Sum of Mulliken charges =  -0.00000

 Dipole moment (field-independent basis, Debye):
    X=              0.0009    Y=              0.0008    Z=             -0.0011  Tot=              0.0016
 Quadrupole moment (field-independent basis, Debye-Ang):
   XX=            -17.8025   YY=            -23.4017   ZZ=            -26.0593
   XY=              0.6999   XZ=              6.1842   YZ=              0.0864

 Normal termination of Gaussian 09 at Tue Aug 30 12:34:31 2022.
