 Gaussian 09, Revision E.01,
 Gaussian 09:  ES64L-G09RevE.01 30-Nov-2015

 -----
 #P G4
 -----

 --------
 Frag_535
 --------
 Symbolic Z-matrix:
 Charge =  0 Multiplicity = 1

 SCF Done:  E(RB3LYP) =  -264.527171622     A.U. after   14 cycles
 SCF Done:  E(RB3LYP) =  -264.545774516     A.U. after   12 cycles
 SCF Done:  E(RB3LYP) =  -264.548371430     A.U. after   12 cycles
 SCF Done:  E(RB3LYP) =  -264.552423256     A.U. after   13 cycles
 SCF Done:  E(RB3LYP) =  -264.550982032     A.U. after   14 cycles
 SCF Done:  E(RB3LYP) =  -264.554076093     A.U. after   11 cycles
 SCF Done:  E(RB3LYP) =  -264.555944924     A.U. after   11 cycles
 SCF Done:  E(RB3LYP) =  -264.557720872     A.U. after   12 cycles
 SCF Done:  E(RB3LYP) =  -264.558143878     A.U. after   11 cycles
 SCF Done:  E(RB3LYP) =  -264.558407325     A.U. after   11 cycles
 SCF Done:  E(RB3LYP) =  -264.558469062     A.U. after    9 cycles
 SCF Done:  E(RB3LYP) =  -264.558471485     A.U. after    8 cycles
 SCF Done:  E(RB3LYP) =  -264.558471974     A.U. after    7 cycles
 Optimization completed.
    -- Stationary point found.
 Normal termination of Gaussian 09 at Sat Aug 20 06:04:07 2022.

 ----------------------------------------------------------
 #P Geom=AllCheck Guess=TCheck SCRF=Check B3LYP/GTBas3 Freq
 ----------------------------------------------------------

 Structure from the checkpoint file:  "G4.Frag_535.chk"
 --------
 Frag_535
 --------
 Charge =  0 Multiplicity = 1

 SCF Done:  E(RB3LYP) =  -264.558471974     A.U. after    1 cycles

  Exact polarizability:  49.246  -4.811  40.757   1.374  -0.265  29.057
 Approx polarizability:  69.060 -10.024  61.211   3.176  -1.222  42.910

                      1                      2                      3
                      A                      A                      A
 Frequencies --    108.1330               287.9552               320.3048
 Red. masses --      2.4374                 1.2060                 3.2294
 Frc consts  --      0.0168                 0.0589                 0.1952
 IR Inten    --      3.8434                12.9378                16.3544

                      4                      5                      6
                      A                      A                      A
 Frequencies --    483.2423               538.7314               651.9737
 Red. masses --      3.4379                 3.0434                 4.7807
 Frc consts  --      0.4730                 0.5204                 1.1973
 IR Inten    --      8.4611                 7.6212                 4.3889

                      7                      8                      9
                      A                      A                      A
 Frequencies --    759.8282               824.7166               866.1923
 Red. masses --      1.1212                 2.1941                 1.0834
 Frc consts  --      0.3814                 0.8792                 0.4789
 IR Inten    --     41.4588                35.8675                93.6389

                     10                     11                     12
                      A                      A                      A
 Frequencies --    879.9441               969.4718              1073.5734
 Red. masses --      1.7790                 1.7738                 3.0674
 Frc consts  --      0.8116                 0.9823                 2.0830
 IR Inten    --     58.7177                48.5804                 7.1367

                     13                     14                     15
                      A                      A                      A
 Frequencies --   1112.5647              1163.2900              1306.6492
 Red. masses --      1.5820                 1.2216                 1.5390
 Frc consts  --      1.1538                 0.9740                 1.5482
 IR Inten    --    158.0461                 1.5863                14.0711

                     16                     17                     18
                      A                      A                      A
 Frequencies --   1326.7792              1383.5608              1460.5624
 Red. masses --      1.3207                 1.3423                 1.7773
 Frc consts  --      1.3698                 1.5139                 2.2338
 IR Inten    --     52.4798                 8.0396               254.3611

                     19                     20                     21
                      A                      A                      A
 Frequencies --   1482.4841              1660.0323              1773.8676
 Red. masses --      1.0857                 1.0920                 7.0214
 Frc consts  --      1.4059                 1.7729                13.0171
 IR Inten    --      3.4587                26.6375               189.4943

                     22                     23                     24
                      A                      A                      A
 Frequencies --   3021.4725              3072.4403              3486.9013
 Red. masses --      1.0626                 1.1007                 1.0750
 Frc consts  --      5.7157                 6.1219                 7.7005
 IR Inten    --     29.2383                14.0346                 0.2872

                     25                     26                     27
                      A                      A                      A
 Frequencies --   3518.0335              3550.4242              3603.3331
 Red. masses --      1.0501                 1.0642                 1.0939
 Frc consts  --      7.6572                 7.9037                 8.3682
 IR Inten    --     16.9155               225.4415                 6.6741

 - Thermochemistry -
 -------------------
 Temperature   298.150 Kelvin.  Pressure   1.00000 Atm.
 Atom     1 has atomic number  7 and mass  14.00307

 Molecular mass:    74.04801 amu.
 Principal axes and moments of inertia in atomic units:
                           1         2         3
     Eigenvalues --   185.08055 446.64602 601.51109
           X            0.99992  -0.01244  -0.00273
           Y            0.01247   0.99989   0.00827
           Z            0.00263  -0.00831   0.99996
 This molecule is an asymmetric top.
 Rotational symmetry number  1.
 Rotational temperatures (Kelvin)      0.46798     0.19392     0.14399
 Rotational constants (GHZ):           9.75111     4.04065     3.00035
 Zero-point vibrational energy     243359.1 (Joules/Mol)
                                   58.16422 (Kcal/Mol)
 Warning -- explicit consideration of   5 degrees of freedom as
           vibrations may cause significant error
 Vibrational temperatures:    155.58   414.30   460.85   695.28   775.11
          (Kelvin)            938.04  1093.22  1186.58  1246.26  1266.04
                             1394.85  1544.63  1600.73  1673.71  1879.97
                             1908.94  1990.63  2101.42  2132.96  2388.41
                             2552.20  4347.22  4420.55  5016.87  5061.66
                             5108.26  5184.39

 Zero-point correction=                           0.092691 (Hartree/Particle)
 Thermal correction to Energy=                    0.098079
 Thermal correction to Enthalpy=                  0.099023
 Thermal correction to Gibbs Free Energy=         0.064291
 Sum of electronic and zero-point Energies=           -264.465781
 Sum of electronic and thermal Energies=              -264.460393
 Sum of electronic and thermal Enthalpies=            -264.459449
 Sum of electronic and thermal Free Energies=         -264.494181

                     E (Thermal)             CV                S
                      KCal/Mol        Cal/Mol-Kelvin    Cal/Mol-Kelvin
 Total                   61.545             18.860             73.099
 Electronic               0.000              0.000              0.000
 Translational            0.889              2.981             38.822
 Rotational               0.889              2.981             25.412
 Vibrational             59.768             12.898              8.865
 Vibration     1          0.606              1.943              3.302
 Vibration     2          0.685              1.696              1.486
 Vibration     3          0.706              1.635              1.309
 Vibration     4          0.839              1.287              0.701
 Vibration     5          0.894              1.164              0.568

 Normal termination of Gaussian 09 at Sat Aug 20 06:05:21 2022.

 -----------------------------------------------------------------
 #P Geom=AllCheck Guess=TCheck SCRF=Check CCSD(T,E4T,FrzG4)/GTBas1
 -----------------------------------------------------------------

 Structure from the checkpoint file:  "G4.Frag_535.chk"
 --------
 Frag_535
 --------
 Charge =  0 Multiplicity = 1

 SCF Done:  E(RHF) =  -262.962341228     A.U. after   13 cycles
 E2 =    -0.7612739031D+00 EUMP2 =    -0.26372361513154D+03
 CCSD(T)
 CCSD(T)= -0.26378337072D+03
 842162\MP4SDQ=-263.7596713\CCSD=-263.7595671\CCSD(T)=-263.7833707\RMSD
 Normal termination of Gaussian 09 at Sat Aug 20 06:07:03 2022.

 ---------------------------------------------------------
 #P Geom=AllCheck Guess=TCheck SCRF=Check MP4=FrzG4/GTBas2
 ---------------------------------------------------------

 Structure from the checkpoint file:  "G4.Frag_535.chk"
 --------
 Frag_535
 --------
 Charge =  0 Multiplicity = 1

 SCF Done:  E(RHF) =  -262.972830982     A.U. after   12 cycles
 E2 =    -0.7740723956D+00 EUMP2 =    -0.26374690337729D+03
 Normal termination of Gaussian 09 at Sat Aug 20 06:08:56 2022.

 ---------------------------------------------------------
 #P Geom=AllCheck Guess=TCheck SCRF=Check MP4=FrzG4/GTBas3
 ---------------------------------------------------------

 Structure from the checkpoint file:  "G4.Frag_535.chk"
 --------
 Frag_535
 --------
 Charge =  0 Multiplicity = 1

 SCF Done:  E(RHF) =  -263.002267437     A.U. after   11 cycles
 E2 =    -0.9302765619D+00 EUMP2 =    -0.26393254399930D+03
 Normal termination of Gaussian 09 at Sat Aug 20 06:43:59 2022.

 -----------------------------------------------------------
 #P Geom=AllCheck Guess=TCheck SCRF=Check MP2=Full/GTLargeXP
 -----------------------------------------------------------

 Structure from the checkpoint file:  "G4.Frag_535.chk"
 --------
 Frag_535
 --------
 Charge =  0 Multiplicity = 1

 SCF Done:  E(RHF) =  -263.074977100     A.U. after   12 cycles
 E2 =    -0.1214662498D+01 EUMP2 =    -0.26428963959788D+03
 Normal termination of Gaussian 09 at Sat Aug 20 06:46:52 2022.
 SCF Done:  E(RHF) =  -263.095857065     A.U. after    8 cycles
 Normal termination of Gaussian 09 at Sat Aug 20 06:49:31 2022.

                         Standard orientation:
 ---------------------------------------------------------------------
 Center     Atomic      Atomic             Coordinates (Angstroms)
 Number     Number       Type             X           Y           Z
 ---------------------------------------------------------------------
      1          7           0       -1.829321    0.497859   -0.133782
      2          6           0       -0.673810   -0.000219    0.015513
      3          8           0       -0.509073   -1.330158    0.079802
      4          6           0        0.636958    0.778642    0.189857
      5          7           0        1.785700   -0.072551   -0.138818
      6          1           0       -1.768516    1.515082   -0.163527
      7          1           0        0.458840   -1.465246    0.122332
      8          1           0        0.580824    1.709846   -0.388148
      9          1           0        0.716628    1.058524    1.246451
     10          1           0        2.621161    0.220776    0.352565
     11          1           0        1.990110   -0.045408   -1.132114
 ---------------------------------------------------------------------

 SCF Done:  E(RHF) =  -263.100399609     A.U. after    8 cycles

 The electronic state is 1-A.
 Alpha  occ. eigenvalues --  -20.57888 -15.58416 -15.52442 -11.33477 -11.29078
 Alpha  occ. eigenvalues --   -1.41563  -1.21834  -1.18435  -0.95869  -0.80350
 Alpha  occ. eigenvalues --   -0.73148  -0.69596  -0.65096  -0.63139  -0.60392
 Alpha  occ. eigenvalues --   -0.55319  -0.54859  -0.45296  -0.41737  -0.39423
 Alpha virt. eigenvalues --    0.02595   0.04244   0.04814   0.05882   0.07628
 Alpha virt. eigenvalues --    0.07835   0.07989   0.09154   0.09437   0.12046
 Alpha virt. eigenvalues --    0.13088   0.13849   0.15220   0.15776   0.16819

 Mulliken charges:
               1
     1  N   -0.638076
     2  C    0.403551
     3  O   -0.508986
     4  C   -0.214661
     5  N   -0.707366
     6  H    0.264399
     7  H    0.418577
     8  H    0.174198
     9  H    0.191840
    10  H    0.313008
    11  H    0.303515
 Sum of Mulliken charges =  -0.00000

 Dipole moment (field-independent basis, Debye):
    X=              5.3779    Y=              2.6455    Z=             -0.0069  Tot=              5.9934
 Quadrupole moment (field-independent basis, Debye-Ang):
   XX=            -34.0710   YY=            -29.8834   ZZ=            -29.3809
   XY=             -1.4435   XZ=             -0.9242   YZ=              0.2811

 Normal termination of Gaussian 09 at Sat Aug 20 08:11:20 2022.
