 Gaussian 09, Revision E.01,
 Gaussian 09:  ES64L-G09RevE.01 30-Nov-2015

 -----
 #P G4
 -----

 --------
 Frag_980
 --------
 Symbolic Z-matrix:
 Charge =  0 Multiplicity = 1

 SCF Done:  E(RB3LYP) =  -280.405077484     A.U. after   15 cycles
 SCF Done:  E(RB3LYP) =  -280.501422427     A.U. after   13 cycles
 SCF Done:  E(RB3LYP) =  -280.549482587     A.U. after   14 cycles
 SCF Done:  E(RB3LYP) =  -280.561536505     A.U. after   13 cycles
 SCF Done:  E(RB3LYP) =  -280.566969469     A.U. after   12 cycles
 SCF Done:  E(RB3LYP) =  -280.567922417     A.U. after   11 cycles
 SCF Done:  E(RB3LYP) =  -280.568463025     A.U. after   11 cycles
 SCF Done:  E(RB3LYP) =  -280.569474758     A.U. after   13 cycles
 SCF Done:  E(RB3LYP) =  -280.571313006     A.U. after   11 cycles
 SCF Done:  E(RB3LYP) =  -280.573174131     A.U. after   12 cycles
 SCF Done:  E(RB3LYP) =  -280.576038085     A.U. after    9 cycles
 SCF Done:  E(RB3LYP) =  -280.576041622     A.U. after    8 cycles
 SCF Done:  E(RB3LYP) =  -280.576042205     A.U. after    7 cycles
 Optimization completed.
    -- Stationary point found.
 Normal termination of Gaussian 09 at Tue Aug 30 11:56:05 2022.

 ----------------------------------------------------------
 #P Geom=AllCheck Guess=TCheck SCRF=Check B3LYP/GTBas3 Freq
 ----------------------------------------------------------

 Structure from the checkpoint file:  "G4.Frag_980.chk"
 --------
 Frag_980
 --------
 Charge =  0 Multiplicity = 1

 SCF Done:  E(RB3LYP) =  -280.576042205     A.U. after    1 cycles

  Exact polarizability:  52.507  -0.182  35.766   0.488  -0.033  23.457
 Approx polarizability:  70.751   2.406  61.124  -0.032   0.112  34.681

                      1                      2                      3
                      A                      A                      A
 Frequencies --    244.1735               335.3718               358.3683
 Red. masses --      3.4878                 2.5599                 1.0788
 Frc consts  --      0.1225                 0.1696                 0.0816
 IR Inten    --     42.0406               161.1416                 1.5916

                      4                      5                      6
                      A                      A                      A
 Frequencies --    423.3496               505.9719               533.4944
 Red. masses --      1.2039                 2.0232                 1.5937
 Frc consts  --      0.1271                 0.3052                 0.2673
 IR Inten    --     13.8501               221.2145                78.8474

                      7                      8                      9
                      A                      A                      A
 Frequencies --    712.9446               789.5396               915.5774
 Red. masses --      4.6451                10.5419                 5.6763
 Frc consts  --      1.3911                 3.8719                 2.8035
 IR Inten    --      1.6869                41.6823                13.7192

                     10                     11                     12
                      A                      A                      A
 Frequencies --   1033.4335              1106.9754              1133.0731
 Red. masses --      4.0895                 1.6731                 1.2042
 Frc consts  --      2.5733                 1.2079                 0.9109
 IR Inten    --     31.5158                34.0927                 4.4647

                     13                     14                     15
                      A                      A                      A
 Frequencies --   1168.4440              1218.4419              1469.1064
 Red. masses --      1.6826                 1.2435                 3.8248
 Frc consts  --      1.3535                 1.0877                 4.8637
 IR Inten    --    185.6946               145.2609               202.1984

                     16                     17                     18
                      A                      A                      A
 Frequencies --   1615.4299              1626.9324              1634.1803
 Red. masses --      1.3312                 1.0573                 1.0828
 Frc consts  --      2.0467                 1.6488                 1.7037
 IR Inten    --    153.8948                22.6419                26.6850

                     19                     20                     21
                      A                      A                      A
 Frequencies --   1680.6789              2518.8149              3436.3887
 Red. masses --      3.6605                 1.0745                 1.0490
 Frc consts  --      6.0920                 4.0167                 7.2987
 IR Inten    --    180.8146               370.9276                 8.6787

                     22                     23                     24
                      A                      A                      A
 Frequencies --   3492.6736              3584.0078              3703.9461
 Red. masses --      1.0969                 1.0458                 1.0998
 Frc consts  --      7.8836                 7.9149                 8.8902
 IR Inten    --     18.2605                21.0420                27.5653

 - Thermochemistry -
 -------------------
 Temperature   298.150 Kelvin.  Pressure   1.00000 Atm.
 Atom     1 has atomic number  7 and mass  14.00307

 Molecular mass:    75.04326 amu.
 Principal axes and moments of inertia in atomic units:
                           1         2         3
     Eigenvalues --   161.00395 410.70786 560.48202
           X            0.99963  -0.02565   0.00920
           Y            0.02570   0.99965  -0.00557
           Z           -0.00905   0.00580   0.99994
 This molecule is an asymmetric top.
 Rotational symmetry number  1.
 Rotational temperatures (Kelvin)      0.53796     0.21089     0.15453
 Rotational constants (GHZ):          11.20930     4.39422     3.21998
 Zero-point vibrational energy     210789.9 (Joules/Mol)
                                   50.37999 (Kcal/Mol)
 Warning -- explicit consideration of   6 degrees of freedom as
           vibrations may cause significant error
 Vibrational temperatures:    351.31   482.52   515.61   609.10   727.98
          (Kelvin)            767.58  1025.77  1135.97  1317.31  1486.88
                             1592.69  1630.24  1681.13  1753.06  2113.71
                             2324.24  2340.79  2351.22  2418.12  3624.01
                             4944.19  5025.17  5156.58  5329.15

 Zero-point correction=                           0.080286 (Hartree/Particle)
 Thermal correction to Energy=                    0.085420
 Thermal correction to Enthalpy=                  0.086364
 Thermal correction to Gibbs Free Energy=         0.052544
 Sum of electronic and zero-point Energies=           -280.495757
 Sum of electronic and thermal Energies=              -280.490622
 Sum of electronic and thermal Enthalpies=            -280.489678
 Sum of electronic and thermal Free Energies=         -280.523498

                     E (Thermal)             CV                S
                      KCal/Mol        Cal/Mol-Kelvin    Cal/Mol-Kelvin
 Total                   53.602             18.238             71.181
 Electronic               0.000              0.000              0.000
 Translational            0.889              2.981             38.862
 Rotational               0.889              2.981             25.120
 Vibrational             51.824             12.276              7.199
 Vibration     1          0.660              1.772              1.772
 Vibration     2          0.716              1.605              1.234
 Vibration     3          0.733              1.558              1.129
 Vibration     4          0.786              1.419              0.881
 Vibration     5          0.861              1.237              0.643
 Vibration     6          0.888              1.176              0.579

 Optimization completed.
    -- Stationary point found.
 Normal termination of Gaussian 09 at Tue Aug 30 11:56:23 2022.

 -----------------------------------------------------------------
 #P Geom=AllCheck Guess=TCheck SCRF=Check CCSD(T,E4T,FrzG4)/GTBas1
 -----------------------------------------------------------------

 Structure from the checkpoint file:  "G4.Frag_980.chk"
 --------
 Frag_980
 --------
 Charge =  0 Multiplicity = 1

 SCF Done:  E(RHF) =  -278.930642328     A.U. after   13 cycles
 E2 =    -0.7985816205D+00 EUMP2 =    -0.27972922394848D+03
 CCSD(T)
 CCSD(T)= -0.27978165755D+03
 Normal termination of Gaussian 09 at Tue Aug 30 11:57:14 2022.

 ---------------------------------------------------------
 #P Geom=AllCheck Guess=TCheck SCRF=Check MP4=FrzG4/GTBas2
 ---------------------------------------------------------

 Structure from the checkpoint file:  "G4.Frag_980.chk"
 --------
 Frag_980
 --------
 Charge =  0 Multiplicity = 1

 SCF Done:  E(RHF) =  -278.943156712     A.U. after   12 cycles
 E2 =    -0.8130106162D+00 EUMP2 =    -0.27975616732841D+03
 Normal termination of Gaussian 09 at Tue Aug 30 11:57:28 2022.

 ---------------------------------------------------------
 #P Geom=AllCheck Guess=TCheck SCRF=Check MP4=FrzG4/GTBas3
 ---------------------------------------------------------

 Structure from the checkpoint file:  "G4.Frag_980.chk"
 --------
 Frag_980
 --------
 Charge =  0 Multiplicity = 1

 SCF Done:  E(RHF) =  -278.970427220     A.U. after   12 cycles
 E2 =    -0.9678689950D+00 EUMP2 =    -0.27993829621524D+03
 Normal termination of Gaussian 09 at Tue Aug 30 11:58:36 2022.

 -----------------------------------------------------------
 #P Geom=AllCheck Guess=TCheck SCRF=Check MP2=Full/GTLargeXP
 -----------------------------------------------------------

 Structure from the checkpoint file:  "G4.Frag_980.chk"
 --------
 Frag_980
 --------
 Charge =  0 Multiplicity = 1

 SCF Done:  E(RHF) =  -279.050907783     A.U. after   12 cycles
 E2 =    -0.1257771791D+01 EUMP2 =    -0.28030867957420D+03
 Normal termination of Gaussian 09 at Tue Aug 30 11:59:18 2022.
 SCF Done:  E(RHF) =  -279.072961068     A.U. after    9 cycles
 Normal termination of Gaussian 09 at Tue Aug 30 12:00:04 2022.

                         Standard orientation:
 ---------------------------------------------------------------------
 Center     Atomic      Atomic             Coordinates (Angstroms)
 Number     Number       Type             X           Y           Z
 ---------------------------------------------------------------------
      1          7           0        1.760779   -0.412993   -0.078115
      2          6           0        0.466662    0.056154   -0.006761
      3          8           0        0.233443    1.296054    0.004048
      4          7           0       -0.494245   -0.893027    0.007969
      5          7           0       -1.717247   -0.104351    0.002810
      6          1           0        1.886749   -1.373606    0.202648
      7          1           0        2.450840    0.232527    0.271277
      8          1           0       -2.284070   -0.300231    0.827401
      9          1           0       -1.289612    0.901918    0.007498
     10          1           0       -2.276432   -0.293358   -0.829294
 ---------------------------------------------------------------------

 SCF Done:  E(RHF) =  -279.077613441     A.U. after    8 cycles

 The electronic state is 1-A.
 Alpha  occ. eigenvalues --  -20.50167 -15.67555 -15.55782 -15.54161 -11.34563
 Alpha  occ. eigenvalues --   -1.38917  -1.29181  -1.19550  -1.06224  -0.77748
 Alpha  occ. eigenvalues --   -0.75457  -0.75015  -0.69855  -0.62108  -0.60609
 Alpha  occ. eigenvalues --   -0.56806  -0.45767  -0.43153  -0.41753  -0.35998
 Alpha virt. eigenvalues --    0.02899   0.04995   0.05784   0.06137   0.08468
 Alpha virt. eigenvalues --    0.08725   0.08939   0.11670   0.12339   0.12616
 Alpha virt. eigenvalues --    0.12974   0.13687   0.15515   0.17388   0.17629

 Mulliken charges:
               1
     1  N   -0.679238
     2  C    0.683362
     3  O   -0.730765
     4  N   -0.564522
     5  N   -0.467730
     6  H    0.327840
     7  H    0.336959
     8  H    0.352329
     9  H    0.389867
    10  H    0.351896
 Sum of Mulliken charges =  -0.00000

 Dipole moment (field-independent basis, Debye):
    X=             -3.0637    Y=             -0.9432    Z=              0.9284  Tot=              3.3373
 Quadrupole moment (field-independent basis, Debye-Ang):
   XX=            -14.6397   YY=            -36.6098   ZZ=            -29.8879
   XY=             -2.2980   XZ=              2.4487   YZ=             -0.4939

 Normal termination of Gaussian 09 at Tue Aug 30 12:04:45 2022.
