 Gaussian 09, Revision E.01,
 Gaussian 09:  ES64L-G09RevE.01 30-Nov-2015

 -----
 #P G4
 -----

 --------
 Frag_604
 --------
 Symbolic Z-matrix:
 Charge =  0 Multiplicity = 1

 SCF Done:  E(RB3LYP) =  -343.171961409     A.U. after   14 cycles
 SCF Done:  E(RB3LYP) =  -343.194768664     A.U. after   11 cycles
 SCF Done:  E(RB3LYP) =  -343.198777567     A.U. after   12 cycles
 SCF Done:  E(RB3LYP) =  -343.199961213     A.U. after   12 cycles
 SCF Done:  E(RB3LYP) =  -343.200508391     A.U. after   12 cycles
 SCF Done:  E(RB3LYP) =  -343.200606580     A.U. after   10 cycles
 SCF Done:  E(RB3LYP) =  -343.200675289     A.U. after    9 cycles
 SCF Done:  E(RB3LYP) =  -343.200698933     A.U. after    9 cycles
 SCF Done:  E(RB3LYP) =  -343.200702423     A.U. after    8 cycles
 SCF Done:  E(RB3LYP) =  -343.200702844     A.U. after    7 cycles
 SCF Done:  E(RB3LYP) =  -343.200702707     A.U. after    7 cycles
 Optimization completed.
    -- Stationary point found.
 Normal termination of Gaussian 09 at Fri Aug 26 07:49:53 2022.

 ----------------------------------------------------------
 #P Geom=AllCheck Guess=TCheck SCRF=Check B3LYP/GTBas3 Freq
 ----------------------------------------------------------

 Structure from the checkpoint file:  "G4.Frag_604.chk"
 --------
 Frag_604
 --------
 Charge =  0 Multiplicity = 1

 SCF Done:  E(RB3LYP) =  -343.200702707     A.U. after    1 cycles

  Exact polarizability:  65.836   1.746  64.230   0.355   0.829  52.321
 Approx polarizability:  91.102   4.622 100.024   1.106   1.939  72.851

                      1                      2                      3
                      A                      A                      A
 Frequencies --     78.9859               216.4510               227.1655
 Red. masses --      4.5991                 1.2847                 1.3599
 Frc consts  --      0.0169                 0.0355                 0.0413
 IR Inten    --      0.2752                 0.1115                 9.6609

                      4                      5                      6
                      A                      A                      A
 Frequencies --    267.1163               275.3156               282.4080
 Red. masses --      1.4005                 1.0638                 2.9741
 Frc consts  --      0.0589                 0.0475                 0.1398
 IR Inten    --      4.5295                19.8064                 3.6109

                      7                      8                      9
                      A                      A                      A
 Frequencies --    344.4742               385.9068               414.0455
 Red. masses --      2.4828                 3.1886                 2.5793
 Frc consts  --      0.1736                 0.2798                 0.2605
 IR Inten    --      0.1136                 1.8909                 4.1043

                     10                     11                     12
                      A                      A                      A
 Frequencies --    515.6394               557.5890               584.1398
 Red. masses --      4.0688                 2.6712                 1.2044
 Frc consts  --      0.6374                 0.4893                 0.2421
 IR Inten    --      4.5232                27.7758                92.6153

                     13                     14                     15
                      A                      A                      A
 Frequencies --    717.7713               741.5298               848.5469
 Red. masses --      3.5807                 5.0354                 2.0601
 Frc consts  --      1.0869                 1.6313                 0.8739
 IR Inten    --     14.2638                22.5503                53.6190

                     16                     17                     18
                      A                      A                      A
 Frequencies --    913.2962               929.6247               939.8290
 Red. masses --      1.3419                 1.3755                 1.3717
 Frc consts  --      0.6595                 0.7004                 0.7139
 IR Inten    --     49.2590                34.9159                10.5828

                     19                     20                     21
                      A                      A                      A
 Frequencies --    981.9464              1029.4271              1080.6195
 Red. masses --      1.6916                 1.3189                 1.7873
 Frc consts  --      0.9610                 0.8235                 1.2297
 IR Inten    --      0.4624                 5.1619                79.6872

                     22                     23                     24
                      A                      A                      A
 Frequencies --   1099.6961              1208.6010              1240.9921
 Red. masses --      1.8049                 2.4337                 1.6708
 Frc consts  --      1.2860                 2.0945                 1.5161
 IR Inten    --     86.7680                43.3820               127.8434

                     25                     26                     27
                      A                      A                      A
 Frequencies --   1270.6175              1329.3773              1392.4342
 Red. masses --      2.0290                 1.7895                 1.2328
 Frc consts  --      1.9301                 1.8633                 1.4083
 IR Inten    --     14.6943                10.5749                 6.1794

                     28                     29                     30
                      A                      A                      A
 Frequencies --   1403.5779              1440.9965              1480.1045
 Red. masses --      1.3892                 1.8889                 1.0481
 Frc consts  --      1.6124                 2.3109                 1.3529
 IR Inten    --      5.0767                34.7320                 0.1024

                     31                     32                     33
                      A                      A                      A
 Frequencies --   1487.5567              1498.9196              1512.7400
 Red. masses --      1.0485                 1.0543                 1.1010
 Frc consts  --      1.3670                 1.3956                 1.4845
 IR Inten    --      1.5014                 6.8289                16.2335

                     34                     35                     36
                      A                      A                      A
 Frequencies --   1651.9610              1749.1428              3031.0972
 Red. masses --      1.1114                 7.8689                 1.0368
 Frc consts  --      1.7869                14.1845                 5.6126
 IR Inten    --     40.3413               176.0240                21.2212

                     37                     38                     39
                      A                      A                      A
 Frequencies --   3037.4289              3096.6312              3109.4345
 Red. masses --      1.0389                 1.1020                 1.0977
 Frc consts  --      5.6471                 6.2262                 6.2528
 IR Inten    --     20.2681                26.4042                21.4757

                     40                     41                     42
                      A                      A                      A
 Frequencies --   3130.3740              3140.3068              3486.1600
 Red. masses --      1.0995                 1.1013                 1.0535
 Frc consts  --      6.3478                 6.3987                 7.5435
 IR Inten    --     10.9379                15.9589                 3.3630

                     43                     44                     45
                      A                      A                      A
 Frequencies --   3488.8638              3568.0040              3755.6646
 Red. masses --      1.0687                 1.0919                 1.0640
 Frc consts  --      7.6640                 8.1899                 8.8421
 IR Inten    --     12.7372                 0.6426                47.7386

 - Thermochemistry -
 -------------------
 Temperature   298.150 Kelvin.  Pressure   1.00000 Atm.
 Atom     1 has atomic number  6 and mass  12.00000

 Molecular mass:   102.07931 amu.
 Principal axes and moments of inertia in atomic units:
                           1         2         3
     Eigenvalues --   541.54789 760.08297 907.69980
           X            0.99987   0.01592  -0.00175
           Y           -0.01592   0.99987   0.00222
           Z            0.00179  -0.00219   1.00000
 This molecule is an asymmetric top.
 Rotational symmetry number  1.
 Warning -- assumption of classical behavior for rotation
           may cause significant error
 Rotational temperatures (Kelvin)      0.15994     0.11395     0.09542
 Rotational constants (GHZ):           3.33256     2.37440     1.98826
 Zero-point vibrational energy     388442.5 (Joules/Mol)
                                   92.83998 (Kcal/Mol)
 Warning -- explicit consideration of  12 degrees of freedom as
           vibrations may cause significant error
 Vibrational temperatures:    113.64   311.42   326.84   384.32   396.12
          (Kelvin)            406.32   495.62   555.23   595.72   741.89
                              802.25   840.45  1032.71  1066.89  1220.87
                             1314.03  1337.52  1352.20  1412.80  1481.11
                             1554.77  1582.22  1738.91  1785.51  1828.13
                             1912.68  2003.40  2019.43  2073.27  2129.54
                             2140.26  2156.61  2176.49  2376.80  2516.62
                             4361.07  4370.18  4455.36  4473.78  4503.90
                             4518.20  5015.80  5019.69  5133.56  5403.56

 Zero-point correction=                           0.147950 (Hartree/Particle)
 Thermal correction to Energy=                    0.156161
 Thermal correction to Enthalpy=                  0.157105
 Thermal correction to Gibbs Free Energy=         0.116201
 Sum of electronic and zero-point Energies=           -343.052753
 Sum of electronic and thermal Energies=              -343.044542
 Sum of electronic and thermal Enthalpies=            -343.043598
 Sum of electronic and thermal Free Energies=         -343.084502

                     E (Thermal)             CV                S
                      KCal/Mol        Cal/Mol-Kelvin    Cal/Mol-Kelvin
 Total                   97.992             30.825             86.090
 Electronic               0.000              0.000              0.000
 Translational            0.889              2.981             39.779
 Rotational               0.889              2.981             27.415
 Vibrational             96.215             24.863             18.895
 Vibration     1          0.600              1.963              3.916
 Vibration     2          0.645              1.816              1.989
 Vibration     3          0.651              1.800              1.901
 Vibration     4          0.672              1.733              1.615
 Vibration     5          0.677              1.719              1.563
 Vibration     6          0.681              1.706              1.519
 Vibration     7          0.723              1.587              1.191
 Vibration     8          0.755              1.500              1.016
 Vibration     9          0.778              1.440              0.912
 Vibration    10          0.871              1.215              0.620
 Vibration    11          0.913              1.123              0.529
 Vibration    12          0.941              1.066              0.478

 Optimization completed.
    -- Stationary point found.
 Normal termination of Gaussian 09 at Fri Aug 26 07:50:44 2022.

 -----------------------------------------------------------------
 #P Geom=AllCheck Guess=TCheck SCRF=Check CCSD(T,E4T,FrzG4)/GTBas1
 -----------------------------------------------------------------

 Structure from the checkpoint file:  "G4.Frag_604.chk"
 --------
 Frag_604
 --------
 Charge =  0 Multiplicity = 1

 SCF Done:  E(RHF) =  -341.043886935     A.U. after   13 cycles
 E2 =    -0.1028721505D+01 EUMP2 =    -0.34207260844006D+03
 CCSD(T)
 CCSD(T)= -0.34216332646D+03
 96258\CCSD=-342.1297841\CCSD(T)=-342.1633265\RMSD=3.991e-09\PG=C01 [X(
 Normal termination of Gaussian 09 at Fri Aug 26 07:55:06 2022.

 ---------------------------------------------------------
 #P Geom=AllCheck Guess=TCheck SCRF=Check MP4=FrzG4/GTBas2
 ---------------------------------------------------------

 Structure from the checkpoint file:  "G4.Frag_604.chk"
 --------
 Frag_604
 --------
 Charge =  0 Multiplicity = 1

 SCF Done:  E(RHF) =  -341.055038991     A.U. after   13 cycles
 E2 =    -0.1044847953D+01 EUMP2 =    -0.34209988694335D+03
 Normal termination of Gaussian 09 at Fri Aug 26 07:56:31 2022.

 ---------------------------------------------------------
 #P Geom=AllCheck Guess=TCheck SCRF=Check MP4=FrzG4/GTBas3
 ---------------------------------------------------------

 Structure from the checkpoint file:  "G4.Frag_604.chk"
 --------
 Frag_604
 --------
 Charge =  0 Multiplicity = 1

 SCF Done:  E(RHF) =  -341.091822720     A.U. after   11 cycles
 E2 =    -0.1263480750D+01 EUMP2 =    -0.34235530346982D+03
 Normal termination of Gaussian 09 at Fri Aug 26 08:08:15 2022.

 -----------------------------------------------------------
 #P Geom=AllCheck Guess=TCheck SCRF=Check MP2=Full/GTLargeXP
 -----------------------------------------------------------

 Structure from the checkpoint file:  "G4.Frag_604.chk"
 --------
 Frag_604
 --------
 Charge =  0 Multiplicity = 1

 SCF Done:  E(RHF) =  -341.178353729     A.U. after   13 cycles
 E2 =    -0.1653320401D+01 EUMP2 =    -0.34283167412968D+03
 Normal termination of Gaussian 09 at Fri Aug 26 08:12:21 2022.
 SCF Done:  E(RHF) =  -341.205040501     A.U. after    8 cycles
 Normal termination of Gaussian 09 at Fri Aug 26 08:15:53 2022.

                         Standard orientation:
 ---------------------------------------------------------------------
 Center     Atomic      Atomic             Coordinates (Angstroms)
 Number     Number       Type             X           Y           Z
 ---------------------------------------------------------------------
      1          6           0        1.010163    0.422479    1.399252
      2          6           0        0.568763   -0.020190   -0.008077
      3          6           0        1.030543    1.009429   -1.060609
      4          7           0        1.106831   -1.366120   -0.256716
      5          6           0       -0.960109   -0.128355   -0.016511
      6          7           0       -1.669303   -1.175895   -0.026851
      7          8           0       -1.547340    1.093440    0.010508
      8          1           0        0.528255    1.362759    1.673938
      9          1           0        2.095529    0.571849    1.426407
     10          1           0        0.744848   -0.339045    2.137425
     11          1           0        0.618058    2.001443   -0.865435
     12          1           0        2.123602    1.077224   -1.053509
     13          1           0        0.714005    0.706176   -2.064680
     14          1           0        2.090371   -1.388446   -0.005291
     15          1           0        1.059701   -1.579477   -1.249736
     16          1           0       -1.054345   -1.989924   -0.017366
     17          1           0       -2.500158    0.923846    0.034815
 ---------------------------------------------------------------------

 SCF Done:  E(RHF) =  -341.210739747     A.U. after    8 cycles

 The electronic state is 1-A.
 Alpha  occ. eigenvalues --  -20.58907 -15.55394 -15.52529 -11.33077 -11.28608
 Alpha  occ. eigenvalues --  -11.22655 -11.22527  -1.42058  -1.22070  -1.16918
 Alpha  occ. eigenvalues --   -1.03620  -0.94775  -0.87133  -0.77059  -0.71610
 Alpha  occ. eigenvalues --   -0.67864  -0.63401  -0.61862  -0.60375  -0.57830
 Alpha  occ. eigenvalues --   -0.56491  -0.54151  -0.53952  -0.53025  -0.49288
 Alpha  occ. eigenvalues --   -0.42342  -0.41371  -0.39972
 Alpha virt. eigenvalues --    0.03091   0.04126   0.04468   0.04942   0.06470
 Alpha virt. eigenvalues --    0.06985   0.07098   0.07263   0.07480   0.09772
 Alpha virt. eigenvalues --    0.09914   0.10672   0.11074   0.12289   0.14026

 Mulliken charges:
               1
     1  C   -0.579141
     2  C    0.404787
     3  C   -0.581563
     4  N   -0.799877
     5  C    0.460215
     6  N   -0.766421
     7  O   -0.567826
     8  H    0.199483
     9  H    0.162782
    10  H    0.193415
    11  H    0.199566
    12  H    0.166962
    13  H    0.174090
    14  H    0.301761
    15  H    0.303711
    16  H    0.319100
    17  H    0.408956
 Sum of Mulliken charges =  -0.00000

 Dipole moment (field-independent basis, Debye):
    X=              2.5903    Y=              0.9434    Z=             -0.5534  Tot=              2.8118
 Quadrupole moment (field-independent basis, Debye-Ang):
   XX=            -42.5843   YY=            -46.8698   ZZ=            -43.0921
   XY=             -4.5534   XZ=             -0.7361   YZ=              1.6771

 Normal termination of Gaussian 09 at Fri Aug 26 08:28:28 2022.
