 Gaussian 09, Revision E.01,
 Gaussian 09:  ES64L-G09RevE.01 30-Nov-2015

 -----
 #P G4
 -----

 --------
 Frag_868
 --------
 Symbolic Z-matrix:
 Charge =  0 Multiplicity = 1

 SCF Done:  E(RB3LYP) =  -212.586708876     A.U. after   13 cycles
 SCF Done:  E(RB3LYP) =  -212.596111138     A.U. after   12 cycles
 SCF Done:  E(RB3LYP) =  -212.596564186     A.U. after   11 cycles
 SCF Done:  E(RB3LYP) =  -212.596966095     A.U. after   12 cycles
 SCF Done:  E(RB3LYP) =  -212.597403539     A.U. after   14 cycles
 SCF Done:  E(RB3LYP) =  -212.598308401     A.U. after   12 cycles
 SCF Done:  E(RB3LYP) =  -212.598961779     A.U. after   11 cycles
 SCF Done:  E(RB3LYP) =  -212.599012892     A.U. after   10 cycles
 SCF Done:  E(RB3LYP) =  -212.599015327     A.U. after    8 cycles
 SCF Done:  E(RB3LYP) =  -212.599015584     A.U. after    7 cycles
 SCF Done:  E(RB3LYP) =  -212.599015602     A.U. after    6 cycles
 Optimization completed.
    -- Stationary point found.
 Normal termination of Gaussian 09 at Tue Aug 30 12:30:47 2022.

 ----------------------------------------------------------
 #P Geom=AllCheck Guess=TCheck SCRF=Check B3LYP/GTBas3 Freq
 ----------------------------------------------------------

 Structure from the checkpoint file:  "G4.Frag_868.chk"
 --------
 Frag_868
 --------
 Charge =  0 Multiplicity = 1

 SCF Done:  E(RB3LYP) =  -212.599015602     A.U. after    1 cycles

  Exact polarizability:  60.318  -0.803  50.822  -3.298   2.213  41.118
 Approx polarizability:  82.200  -5.137  69.523  -8.088   5.081  62.616

                      1                      2                      3
                      A                      A                      A
 Frequencies --    103.6711               203.8212               232.8662
 Red. masses --      2.7852                 1.0427                 1.1036
 Frc consts  --      0.0176                 0.0255                 0.0353
 IR Inten    --      5.6354                 0.0295                 1.3012

                      4                      5                      6
                      A                      A                      A
 Frequencies --    280.1174               342.8096               391.1318
 Red. masses --      2.6999                 2.1024                 1.9256
 Frc consts  --      0.1248                 0.1456                 0.1736
 IR Inten    --      6.6684                 2.6263                 9.1205

                      7                      8                      9
                      A                      A                      A
 Frequencies --    612.5113               756.2964               817.2750
 Red. masses --      3.0758                 1.9213                 1.7310
 Frc consts  --      0.6799                 0.6475                 0.6812
 IR Inten    --     11.4968                22.6009                21.0305

                     10                     11                     12
                      A                      A                      A
 Frequencies --    928.1543               938.9367               970.4833
 Red. masses --      1.3428                 1.6136                 1.4346
 Frc consts  --      0.6815                 0.8381                 0.7961
 IR Inten    --      5.4463                12.7021                 0.5987

                     13                     14                     15
                      A                      A                      A
 Frequencies --   1099.1376              1121.7644              1135.6703
 Red. masses --      1.4722                 1.4190                 1.6517
 Frc consts  --      1.0479                 1.0520                 1.2551
 IR Inten    --     15.8684                19.5120                 1.7117

                     16                     17                     18
                      A                      A                      A
 Frequencies --   1191.7337              1241.1259              1316.2309
 Red. masses --      1.6407                 1.2248                 1.3834
 Frc consts  --      1.3729                 1.1116                 1.4121
 IR Inten    --      7.5959                22.8920                 1.4320

                     19                     20                     21
                      A                      A                      A
 Frequencies --   1369.8530              1398.9936              1409.7639
 Red. masses --      1.5621                 1.2453                 1.3428
 Frc consts  --      1.7270                 1.4360                 1.5724
 IR Inten    --      2.1256                 3.8079                 7.9602

                     22                     23                     24
                      A                      A                      A
 Frequencies --   1429.6273              1482.4096              1487.4757
 Red. masses --      1.3491                 1.0414                 1.0506
 Frc consts  --      1.6246                 1.3484                 1.3696
 IR Inten    --     19.2256                 0.9332                 1.3977

                     25                     26                     27
                      A                      A                      A
 Frequencies --   1500.5295              1508.2371              1732.4861
 Red. masses --      1.0448                 1.0699                 6.8069
 Frc consts  --      1.3860                 1.4339                12.0375
 IR Inten    --      5.6416                 4.7360                65.6594

                     28                     29                     30
                      A                      A                      A
 Frequencies --   2973.9563              2987.2193              3030.5967
 Red. masses --      1.0815                 1.0847                 1.0348
 Frc consts  --      5.6357                 5.7028                 5.5995
 IR Inten    --     25.8248                62.8416                28.4912

                     31                     32                     33
                      A                      A                      A
 Frequencies --   3044.1221              3098.2988              3106.8985
 Red. masses --      1.0364                 1.1015                 1.1018
 Frc consts  --      5.6585                 6.2297                 6.2664
 IR Inten    --     16.9528                30.3200                 7.8697

                     34                     35                     36
                      A                      A                      A
 Frequencies --   3113.1303              3126.8906              3445.2768
 Red. masses --      1.1012                 1.1006                 1.0758
 Frc consts  --      6.2879                 6.3403                 7.5234
 IR Inten    --     41.8693                19.4274                 1.9810

 - Thermochemistry -
 -------------------
 Temperature   298.150 Kelvin.  Pressure   1.00000 Atm.
 Atom     1 has atomic number  6 and mass  12.00000

 Molecular mass:    71.07350 amu.
 Principal axes and moments of inertia in atomic units:
                           1         2         3
     Eigenvalues --   243.27449 448.67946 615.01699
           X            0.99989   0.01222   0.00834
           Y           -0.01225   0.99992   0.00375
           Z           -0.00829  -0.00385   0.99996
 This molecule is an asymmetric top.
 Rotational symmetry number  1.
 Rotational temperatures (Kelvin)      0.35603     0.19304     0.14083
 Rotational constants (GHZ):           7.41854     4.02234     2.93446
 Zero-point vibrational energy     328551.4 (Joules/Mol)
                                   78.52566 (Kcal/Mol)
 Warning -- explicit consideration of   7 degrees of freedom as
           vibrations may cause significant error
 Vibrational temperatures:    149.16   293.25   335.04   403.03   493.23
          (Kelvin)            562.75   881.27  1088.14  1175.87  1335.41
                             1350.92  1396.31  1581.41  1613.97  1633.97
                             1714.64  1785.70  1893.76  1970.91  2012.84
                             2028.33  2056.91  2132.85  2140.14  2158.92
                             2170.01  2492.66  4278.85  4297.94  4360.35
                             4379.81  4457.76  4470.13  4479.09  4498.89
                             4956.98

 Zero-point correction=                           0.125139 (Hartree/Particle)
 Thermal correction to Energy=                    0.131516
 Thermal correction to Enthalpy=                  0.132460
 Thermal correction to Gibbs Free Energy=         0.095829
 Sum of electronic and zero-point Energies=           -212.473877
 Sum of electronic and thermal Energies=              -212.467500
 Sum of electronic and thermal Enthalpies=            -212.466556
 Sum of electronic and thermal Free Energies=         -212.503186

                     E (Thermal)             CV                S
                      KCal/Mol        Cal/Mol-Kelvin    Cal/Mol-Kelvin
 Total                   82.527             22.083             77.096
 Electronic               0.000              0.000              0.000
 Translational            0.889              2.981             38.700
 Rotational               0.889              2.981             25.710
 Vibrational             80.750             16.121             12.686
 Vibration     1          0.605              1.946              3.384
 Vibration     2          0.639              1.834              2.098
 Vibration     3          0.654              1.791              1.857
 Vibration     4          0.680              1.710              1.533
 Vibration     5          0.722              1.590              1.199
 Vibration     6          0.759              1.489              0.996
 Vibration     7          0.972              1.005              0.429

 Optimization completed.
    -- Stationary point found.
 Normal termination of Gaussian 09 at Tue Aug 30 12:31:11 2022.

 -----------------------------------------------------------------
 #P Geom=AllCheck Guess=TCheck SCRF=Check CCSD(T,E4T,FrzG4)/GTBas1
 -----------------------------------------------------------------

 Structure from the checkpoint file:  "G4.Frag_868.chk"
 --------
 Frag_868
 --------
 Charge =  0 Multiplicity = 1

 SCF Done:  E(RHF) =  -211.142271895     A.U. after   12 cycles
 E2 =    -0.6822877770D+00 EUMP2 =    -0.21182455967175D+03
 CCSD(T)
 CCSD(T)= -0.21190266700D+03
 =-211.8779666\CCSD=-211.8790766\CCSD(T)=-211.902667\RMSD=7.980e-09\PG=
 Normal termination of Gaussian 09 at Tue Aug 30 12:32:10 2022.

 ---------------------------------------------------------
 #P Geom=AllCheck Guess=TCheck SCRF=Check MP4=FrzG4/GTBas2
 ---------------------------------------------------------

 Structure from the checkpoint file:  "G4.Frag_868.chk"
 --------
 Frag_868
 --------
 Charge =  0 Multiplicity = 1

 SCF Done:  E(RHF) =  -211.147494568     A.U. after   12 cycles
 E2 =    -0.6899801254D+00 EUMP2 =    -0.21183747469389D+03
 Normal termination of Gaussian 09 at Tue Aug 30 12:32:29 2022.

 ---------------------------------------------------------
 #P Geom=AllCheck Guess=TCheck SCRF=Check MP4=FrzG4/GTBas3
 ---------------------------------------------------------

 Structure from the checkpoint file:  "G4.Frag_868.chk"
 --------
 Frag_868
 --------
 Charge =  0 Multiplicity = 1

 SCF Done:  E(RHF) =  -211.170355585     A.U. after   11 cycles
 E2 =    -0.8410717312D+00 EUMP2 =    -0.21201142731644D+03
 Normal termination of Gaussian 09 at Tue Aug 30 12:34:14 2022.

 -----------------------------------------------------------
 #P Geom=AllCheck Guess=TCheck SCRF=Check MP2=Full/GTLargeXP
 -----------------------------------------------------------

 Structure from the checkpoint file:  "G4.Frag_868.chk"
 --------
 Frag_868
 --------
 Charge =  0 Multiplicity = 1

 SCF Done:  E(RHF) =  -211.218258240     A.U. after   12 cycles
 E2 =    -0.1108151852D+01 EUMP2 =    -0.21232641009183D+03
 Normal termination of Gaussian 09 at Tue Aug 30 12:35:17 2022.
 SCF Done:  E(RHF) =  -211.234944207     A.U. after    8 cycles
 Normal termination of Gaussian 09 at Tue Aug 30 12:36:28 2022.

                         Standard orientation:
 ---------------------------------------------------------------------
 Center     Atomic      Atomic             Coordinates (Angstroms)
 Number     Number       Type             X           Y           Z
 ---------------------------------------------------------------------
      1          6           0       -1.496714    0.896740   -0.273795
      2          6           0       -0.449662    0.002054    0.417755
      3          6           0       -0.539975   -1.453784   -0.042181
      4          6           0        0.925687    0.595703    0.232692
      5          7           0        1.893019   -0.051120   -0.273641
      6          1           0       -1.429239    1.935507    0.067097
      7          1           0       -2.508614    0.539159   -0.061426
      8          1           0       -1.356581    0.888980   -1.360103
      9          1           0       -0.653989    0.046972    1.499704
     10          1           0       -1.536885   -1.857160    0.161449
     11          1           0       -0.347793   -1.534155   -1.116102
     12          1           0        0.200912   -2.075236    0.465898
     13          1           0        1.010644    1.641956    0.568686
     14          1           0        2.734394    0.527535   -0.316543
 ---------------------------------------------------------------------

 SCF Done:  E(RHF) =  -211.238400405     A.U. after    7 cycles

 The electronic state is 1-A.
 Alpha  occ. eigenvalues --  -15.54712 -11.27933 -11.23661 -11.22253 -11.20677
 Alpha  occ. eigenvalues --   -1.20889  -1.06733  -0.93173  -0.86859  -0.73951
 Alpha  occ. eigenvalues --   -0.68858  -0.62435  -0.60319  -0.55253  -0.53597
 Alpha  occ. eigenvalues --   -0.50336  -0.48900  -0.48036  -0.42540  -0.41508
 Alpha virt. eigenvalues --    0.03495   0.04286   0.04564   0.04780   0.06734
 Alpha virt. eigenvalues --    0.07240   0.07543   0.07671   0.07943   0.09888
 Alpha virt. eigenvalues --    0.10891   0.11239   0.11461   0.12519   0.13723

 Mulliken charges:
               1
     1  C   -0.526336
     2  C    0.082993
     3  C   -0.547391
     4  C   -0.001775
     5  N   -0.617813
     6  H    0.155994
     7  H    0.166299
     8  H    0.167008
     9  H    0.154153
    10  H    0.160971
    11  H    0.172861
    12  H    0.181067
    13  H    0.163349
    14  H    0.288619
 Sum of Mulliken charges =  -0.00000

 Dipole moment (field-independent basis, Debye):
    X=             -0.8455    Y=              1.7774    Z=              0.8638  Tot=              2.1494
 Quadrupole moment (field-independent basis, Debye-Ang):
   XX=            -32.6003   YY=            -32.6938   ZZ=            -33.4233
   XY=              3.5784   XZ=              0.5790   YZ=             -0.0522

 Normal termination of Gaussian 09 at Tue Aug 30 12:41:05 2022.
