 Gaussian 09, Revision E.01,
 Gaussian 09:  ES64L-G09RevE.01 30-Nov-2015

 -----
 #P G4
 -----

 --------
 Frag_641
 --------
 Symbolic Z-matrix:
 Charge =  0 Multiplicity = 1

 SCF Done:  E(RB3LYP) =  -286.609154918     A.U. after   13 cycles
 SCF Done:  E(RB3LYP) =  -286.611880414     A.U. after   11 cycles
 SCF Done:  E(RB3LYP) =  -286.611982105     A.U. after   11 cycles
 SCF Done:  E(RB3LYP) =  -286.611998225     A.U. after    9 cycles
 SCF Done:  E(RB3LYP) =  -286.612000147     A.U. after    8 cycles
 Optimization completed.
    -- Stationary point found.
 Normal termination of Gaussian 09 at Fri Aug 26 10:42:53 2022.

 ----------------------------------------------------------
 #P Geom=AllCheck Guess=TCheck SCRF=Check B3LYP/GTBas3 Freq
 ----------------------------------------------------------

 Structure from the checkpoint file:  "G4.Frag_641.chk"
 --------
 Frag_641
 --------
 Charge =  0 Multiplicity = 1

 SCF Done:  E(RB3LYP) =  -286.612000147     A.U. after    1 cycles

  Exact polarizability:  60.641  -0.000  45.425  -0.642  -0.000  43.881
 Approx polarizability:  94.703  -0.002  59.906  -2.595   0.000  64.020

                      1                      2                      3
                      A                      A                      A
 Frequencies --    188.2110               195.9079               209.3022
 Red. masses --      3.6828                 3.9986                 1.0579
 Frc consts  --      0.0769                 0.0904                 0.0273
 IR Inten    --      0.2946                 2.6799               107.2706

                      4                      5                      6
                      A                      A                      A
 Frequencies --    230.3247               273.0721               350.5620
 Red. masses --      1.0371                 1.1274                 2.3437
 Frc consts  --      0.0324                 0.0495                 0.1697
 IR Inten    --      0.1763                 0.2333                 0.4053

                      7                      8                      9
                      A                      A                      A
 Frequencies --    406.0336               406.6743               585.3947
 Red. masses --      4.0910                 3.0598                 5.3074
 Frc consts  --      0.3974                 0.2981                 1.0716
 IR Inten    --     14.5456                 1.3874                 0.6120

                     10                     11                     12
                      A                      A                      A
 Frequencies --    592.9340               704.4708               891.8838
 Red. masses --      7.1716                 4.2140                 2.3957
 Frc consts  --      1.4855                 1.2322                 1.1228
 IR Inten    --      4.8604                 2.5365                21.9119

                     13                     14                     15
                      A                      A                      A
 Frequencies --    924.0089               977.4675              1020.3180
 Red. masses --      1.5615                 2.2013                 1.3049
 Frc consts  --      0.7855                 1.2392                 0.8004
 IR Inten    --      0.0006                13.1953                 0.0457

                     16                     17                     18
                      A                      A                      A
 Frequencies --   1149.1618              1187.7867              1205.4916
 Red. masses --      1.5016                 3.5093                 2.6051
 Frc consts  --      1.1684                 2.9171                 2.2305
 IR Inten    --    104.2492                24.7407                42.0818

                     19                     20                     21
                      A                      A                      A
 Frequencies --   1380.1661              1394.7556              1415.5191
 Red. masses --      1.6584                 1.2306                 1.2193
 Frc consts  --      1.8613                 1.4105                 1.4394
 IR Inten    --     48.0138                 6.3944                 3.1302

                     22                     23                     24
                      A                      A                      A
 Frequencies --   1476.3037              1478.4533              1493.1471
 Red. masses --      1.0465                 1.0486                 1.0524
 Frc consts  --      1.3438                 1.3504                 1.3825
 IR Inten    --      0.2343                 1.7403                 1.1510

                     25                     26                     27
                      A                      A                      A
 Frequencies --   1507.7272              2366.6446              3037.4881
 Red. masses --      1.0881                12.6909                 1.0368
 Frc consts  --      1.4574                41.8801                 5.6363
 IR Inten    --      9.3694                 0.8728                 5.6625

                     28                     29                     30
                      A                      A                      A
 Frequencies --   3042.1216              3111.1708              3117.3307
 Red. masses --      1.0370                 1.0996                 1.0988
 Frc consts  --      5.6545                 6.2711                 6.2915
 IR Inten    --     16.6110                 1.7518                29.3080

                     31                     32                     33
                      A                      A                      A
 Frequencies --   3139.4686              3141.2603              3805.8058
 Red. masses --      1.1027                 1.1033                 1.0659
 Frc consts  --      6.4037                 6.4141                 9.0960
 IR Inten    --      7.7461                12.6213                23.2816

 - Thermochemistry -
 -------------------
 Temperature   298.150 Kelvin.  Pressure   1.00000 Atm.
 Atom     1 has atomic number  6 and mass  12.00000

 Molecular mass:    85.05276 amu.
 Principal axes and moments of inertia in atomic units:
                           1         2         3
     Eigenvalues --   380.20468 636.85528 650.43376
           X            0.99963  -0.00000   0.02712
           Y            0.00001   1.00000  -0.00010
           Z           -0.02712   0.00010   0.99963
 This molecule is an asymmetric top.
 Rotational symmetry number  1.
 Rotational temperatures (Kelvin)      0.22781     0.13600     0.13316
 Rotational constants (GHZ):           4.74676     2.83383     2.77467
 Zero-point vibrational energy     277571.7 (Joules/Mol)
                                   66.34123 (Kcal/Mol)
 Warning -- explicit consideration of  10 degrees of freedom as
           vibrations may cause significant error
 Vibrational temperatures:    270.79   281.87   301.14   331.39   392.89
          (Kelvin)            504.38   584.19   585.11   842.25   853.10
                             1013.58  1283.22  1329.44  1406.36  1468.01
                             1653.39  1708.96  1734.43  1985.75  2006.74
                             2036.61  2124.07  2127.16  2148.30  2169.28
                             3405.07  4370.26  4376.93  4476.28  4485.14
                             4516.99  4519.57  5475.70

 Zero-point correction=                           0.105721 (Hartree/Particle)
 Thermal correction to Energy=                    0.112904
 Thermal correction to Enthalpy=                  0.113848
 Thermal correction to Gibbs Free Energy=         0.075509
 Sum of electronic and zero-point Energies=           -286.506279
 Sum of electronic and thermal Energies=              -286.499096
 Sum of electronic and thermal Enthalpies=            -286.498152
 Sum of electronic and thermal Free Energies=         -286.536492

                     E (Thermal)             CV                S
                      KCal/Mol        Cal/Mol-Kelvin    Cal/Mol-Kelvin
 Total                   70.848             25.454             80.692
 Electronic               0.000              0.000              0.000
 Translational            0.889              2.981             39.235
 Rotational               0.889              2.981             26.557
 Vibrational             69.071             19.492             14.900
 Vibration     1          0.633              1.856              2.245
 Vibration     2          0.636              1.846              2.171
 Vibration     3          0.642              1.827              2.050
 Vibration     4          0.652              1.795              1.876
 Vibration     5          0.676              1.723              1.577
 Vibration     6          0.727              1.574              1.164
 Vibration     7          0.771              1.457              0.941
 Vibration     8          0.771              1.456              0.938
 Vibration     9          0.942              1.063              0.475
 Vibration    10          0.950              1.047              0.462

 Optimization completed.
    -- Stationary point found.
 Normal termination of Gaussian 09 at Fri Aug 26 10:43:24 2022.

 -----------------------------------------------------------------
 #P Geom=AllCheck Guess=TCheck SCRF=Check CCSD(T,E4T,FrzG4)/GTBas1
 -----------------------------------------------------------------

 Structure from the checkpoint file:  "G4.Frag_641.chk"
 --------
 Frag_641
 --------
 Charge =  0 Multiplicity = 1

 SCF Done:  E(RHF) =  -284.840854817     A.U. after   13 cycles
 E2 =    -0.8542991782D+00 EUMP2 =    -0.28569515399473D+03
 CCSD(T)
 CCSD(T)= -0.28576663725D+03
 \MP4SDTQ=-285.7696872\MP4SDQ=-285.7375432\CCSD=-285.7365988\CCSD(T)=-2
 Normal termination of Gaussian 09 at Fri Aug 26 10:45:03 2022.

 ---------------------------------------------------------
 #P Geom=AllCheck Guess=TCheck SCRF=Check MP4=FrzG4/GTBas2
 ---------------------------------------------------------

 Structure from the checkpoint file:  "G4.Frag_641.chk"
 --------
 Frag_641
 --------
 Charge =  0 Multiplicity = 1

 SCF Done:  E(RHF) =  -284.849047714     A.U. after   13 cycles
 E2 =    -0.8652327296D+00 EUMP2 =    -0.28571428044331D+03
 Normal termination of Gaussian 09 at Fri Aug 26 10:45:42 2022.

 ---------------------------------------------------------
 #P Geom=AllCheck Guess=TCheck SCRF=Check MP4=FrzG4/GTBas3
 ---------------------------------------------------------

 Structure from the checkpoint file:  "G4.Frag_641.chk"
 --------
 Frag_641
 --------
 Charge =  0 Multiplicity = 1

 SCF Done:  E(RHF) =  -284.875452621     A.U. after   11 cycles
 E2 =    -0.1037861114D+01 EUMP2 =    -0.28591331373532D+03
 Normal termination of Gaussian 09 at Fri Aug 26 10:48:41 2022.

 -----------------------------------------------------------
 #P Geom=AllCheck Guess=TCheck SCRF=Check MP2=Full/GTLargeXP
 -----------------------------------------------------------

 Structure from the checkpoint file:  "G4.Frag_641.chk"
 --------
 Frag_641
 --------
 Charge =  0 Multiplicity = 1

 SCF Done:  E(RHF) =  -284.946477279     A.U. after   11 cycles
 E2 =    -0.1364768368D+01 EUMP2 =    -0.28631124564655D+03
 Normal termination of Gaussian 09 at Fri Aug 26 10:50:24 2022.
 SCF Done:  E(RHF) =  -284.968645960     A.U. after    9 cycles
 Normal termination of Gaussian 09 at Fri Aug 26 10:52:15 2022.

                         Standard orientation:
 ---------------------------------------------------------------------
 Center     Atomic      Atomic             Coordinates (Angstroms)
 Number     Number       Type             X           Y           Z
 ---------------------------------------------------------------------
      1          6           0       -0.796482    1.273750   -0.656595
      2          6           0       -0.285986    0.000006    0.040519
      3          6           0       -0.796208   -1.273938   -0.656443
      4          8           0       -0.640561    0.000074    1.420547
      5          6           0        1.193369    0.000172    0.017419
      6          7           0        2.346066    0.000053   -0.050531
      7          1           0       -0.460299    1.319873   -1.695853
      8          1           0       -1.892018    1.274620   -0.649925
      9          1           0       -0.439565    2.159837   -0.127745
     10          1           0       -0.439011   -2.159888   -0.127555
     11          1           0       -1.891751   -1.275119   -0.649699
     12          1           0       -0.460104   -1.320072   -1.695721
     13          1           0       -1.603378   -0.000142    1.466440
 ---------------------------------------------------------------------

 SCF Done:  E(RHF) =  -284.973198364     A.U. after    8 cycles

 The electronic state is 1-A.
 Alpha  occ. eigenvalues --  -20.58759 -15.57090 -11.35111 -11.27029 -11.24953
 Alpha  occ. eigenvalues --  -11.24952  -1.40055  -1.21855  -1.08882  -0.97361
 Alpha  occ. eigenvalues --   -0.89260  -0.71307  -0.70279  -0.64604  -0.61459
 Alpha  occ. eigenvalues --   -0.58265  -0.58018  -0.55140  -0.54393  -0.52526
 Alpha  occ. eigenvalues --   -0.49144  -0.46961  -0.45163
 Alpha virt. eigenvalues --    0.02633   0.03816   0.04280   0.05193   0.06150
 Alpha virt. eigenvalues --    0.06950   0.07323   0.07365   0.07644   0.09814
 Alpha virt. eigenvalues --    0.10077   0.10667   0.10741   0.14103   0.14133

 Mulliken charges:
               1
     1  C   -0.571964
     2  C    0.438512
     3  C   -0.571944
     4  O   -0.576206
     5  C    0.216801
     6  N   -0.437199
     7  H    0.194722
     8  H    0.170431
     9  H    0.199562
    10  H    0.199563
    11  H    0.170428
    12  H    0.194719
    13  H    0.372574
 Sum of Mulliken charges =  -0.00000

 Dipole moment (field-independent basis, Debye):
    X=             -5.2465    Y=             -0.0005    Z=             -1.4332  Tot=              5.4387
 Quadrupole moment (field-independent basis, Debye-Ang):
   XX=            -42.7803   YY=            -35.3192   ZZ=            -38.2451
   XY=              0.0004   XZ=             -1.0986   YZ=             -0.0006

 Normal termination of Gaussian 09 at Fri Aug 26 10:59:00 2022.
