 Gaussian 09, Revision E.01,
 Gaussian 09:  ES64L-G09RevE.01 30-Nov-2015

 -----
 #P G4
 -----

 --------
 Frag_791
 --------
 Symbolic Z-matrix:
 Charge =  0 Multiplicity = 1

 SCF Done:  E(RB3LYP) =  -285.522120183     A.U. after   12 cycles
 SCF Done:  E(RB3LYP) =  -285.530092450     A.U. after   11 cycles
 SCF Done:  E(RB3LYP) =  -285.531996559     A.U. after   11 cycles
 SCF Done:  E(RB3LYP) =  -285.532798627     A.U. after   11 cycles
 SCF Done:  E(RB3LYP) =  -285.533174129     A.U. after   11 cycles
 SCF Done:  E(RB3LYP) =  -285.533277469     A.U. after   10 cycles
 SCF Done:  E(RB3LYP) =  -285.533347303     A.U. after   10 cycles
 SCF Done:  E(RB3LYP) =  -285.533355514     A.U. after    8 cycles
 SCF Done:  E(RB3LYP) =  -285.533359090     A.U. after    8 cycles
 SCF Done:  E(RB3LYP) =  -285.533359840     A.U. after    7 cycles
 Optimization completed.
    -- Stationary point found.
 Normal termination of Gaussian 09 at Fri Aug 26 12:21:16 2022.

 ----------------------------------------------------------
 #P Geom=AllCheck Guess=TCheck SCRF=Check B3LYP/GTBas3 Freq
 ----------------------------------------------------------

 Structure from the checkpoint file:  "G4.Frag_791.chk"
 --------
 Frag_791
 --------
 Charge =  0 Multiplicity = 1

 SCF Done:  E(RB3LYP) =  -285.533359840     A.U. after    1 cycles

  Exact polarizability:  49.164   0.034  41.612   0.062  -0.631  33.118
 Approx polarizability:  59.296  -2.675  59.602   0.404  -1.412  48.688

                      1                      2                      3
                      A                      A                      A
 Frequencies --    102.5885               198.1160               248.9848
 Red. masses --      2.7691                 1.1270                 1.1008
 Frc consts  --      0.0172                 0.0261                 0.0402
 IR Inten    --      3.5222                 2.6089                 0.2413

                      4                      5                      6
                      A                      A                      A
 Frequencies --    311.0896               347.0316               423.8321
 Red. masses --      2.6833                 1.2235                 2.2319
 Frc consts  --      0.1530                 0.0868                 0.2362
 IR Inten    --     16.8083                55.5407                 8.6210

                      7                      8                      9
                      A                      A                      A
 Frequencies --    546.2633               550.3506               812.9426
 Red. masses --      5.5961                 3.3314                 4.9429
 Frc consts  --      0.9839                 0.5945                 1.9247
 IR Inten    --      2.0553                 4.6575               108.1519

                     10                     11                     12
                      A                      A                      A
 Frequencies --    845.0032              1065.9410              1105.0239
 Red. masses --      4.3502                 5.7542                 5.0884
 Frc consts  --      1.8301                 3.8521                 3.6608
 IR Inten    --     11.1674                85.8462                29.7319

                     13                     14                     15
                      A                      A                      A
 Frequencies --   1153.9033              1165.1620              1178.4962
 Red. masses --      1.4114                 1.5460                 1.3043
 Frc consts  --      1.1072                 1.2366                 1.0673
 IR Inten    --      6.9352                 5.6762                 2.1449

                     16                     17                     18
                      A                      A                      A
 Frequencies --   1230.8359              1392.3236              1428.9797
 Red. masses --      1.6352                 1.2800                 1.2007
 Frc consts  --      1.4596                 1.4619                 1.4445
 IR Inten    --     12.7829                44.8877                 0.3364

                     19                     20                     21
                      A                      A                      A
 Frequencies --   1455.6581              1476.6741              1478.8893
 Red. masses --      1.1376                 1.0492                 1.0605
 Frc consts  --      1.4202                 1.3480                 1.3666
 IR Inten    --      1.2855                 4.1554                 6.5019

                     22                     23                     24
                      A                      A                      A
 Frequencies --   1487.3730              1512.2625              3005.2920
 Red. masses --      1.0452                 1.0485                 1.0336
 Frc consts  --      1.3623                 1.4128                 5.5000
 IR Inten    --      3.0720                 8.0685                53.4715

                     25                     26                     27
                      A                      A                      A
 Frequencies --   3036.2762              3067.0091              3124.8604
 Red. masses --      1.0384                 1.1035                 1.1000
 Frc consts  --      5.6405                 6.1158                 6.3286
 IR Inten    --     24.4215                43.7397                20.2903

                     28                     29                     30
                      A                      A                      A
 Frequencies --   3126.2061              3158.1832              3803.6867
 Red. masses --      1.0951                 1.1051                 1.0678
 Frc consts  --      6.3061                 6.4940                 9.1025
 IR Inten    --     15.9304                12.6419                36.1600

 - Thermochemistry -
 -------------------
 Temperature   298.150 Kelvin.  Pressure   1.00000 Atm.
 Atom     1 has atomic number  6 and mass  12.00000

 Molecular mass:    77.04768 amu.
 Principal axes and moments of inertia in atomic units:
                           1         2         3
     Eigenvalues --   205.77278 442.46303 586.21238
           X            0.99844   0.05514  -0.00914
           Y           -0.05529   0.99832  -0.01728
           Z            0.00817   0.01776   0.99981
 This molecule is an asymmetric top.
 Rotational symmetry number  1.
 Rotational temperatures (Kelvin)      0.42092     0.19575     0.14775
 Rotational constants (GHZ):           8.77055     4.07885     3.07865
 Zero-point vibrational energy     262216.9 (Joules/Mol)
                                   62.67134 (Kcal/Mol)
 Warning -- explicit consideration of   8 degrees of freedom as
           vibrations may cause significant error
 Vibrational temperatures:    147.60   285.04   358.23   447.59   499.30
          (Kelvin)            609.80   785.95   791.83  1169.64  1215.77
                             1533.65  1589.88  1660.21  1676.41  1695.59
                             1770.90  2003.24  2055.98  2094.36  2124.60
                             2127.79  2140.00  2175.81  4323.94  4368.52
                             4412.74  4495.97  4497.91  4543.92  5472.65

 Zero-point correction=                           0.099873 (Hartree/Particle)
 Thermal correction to Energy=                    0.106234
 Thermal correction to Enthalpy=                  0.107178
 Thermal correction to Gibbs Free Energy=         0.070589
 Sum of electronic and zero-point Energies=           -285.433487
 Sum of electronic and thermal Energies=              -285.427126
 Sum of electronic and thermal Enthalpies=            -285.426182
 Sum of electronic and thermal Free Energies=         -285.462770

                     E (Thermal)             CV                S
                      KCal/Mol        Cal/Mol-Kelvin    Cal/Mol-Kelvin
 Total                   66.663             21.725             77.007
 Electronic               0.000              0.000              0.000
 Translational            0.889              2.981             38.941
 Rotational               0.889              2.981             25.482
 Vibrational             64.885             15.764             12.584
 Vibration     1          0.605              1.947              3.405
 Vibration     2          0.637              1.843              2.151
 Vibration     3          0.662              1.764              1.738
 Vibration     4          0.700              1.653              1.357
 Vibration     5          0.725              1.581              1.180
 Vibration     6          0.786              1.418              0.879
 Vibration     7          0.901              1.148              0.552
 Vibration     8          0.906              1.139              0.543

 Normal termination of Gaussian 09 at Fri Aug 26 12:21:36 2022.

 -----------------------------------------------------------------
 #P Geom=AllCheck Guess=TCheck SCRF=Check CCSD(T,E4T,FrzG4)/GTBas1
 -----------------------------------------------------------------

 Structure from the checkpoint file:  "G4.Frag_791.chk"
 --------
 Frag_791
 --------
 Charge =  0 Multiplicity = 1

 SCF Done:  E(RHF) =  -283.848077901     A.U. after   13 cycles
 E2 =    -0.7905437062D+00 EUMP2 =    -0.28463862160738D+03
 CCSD(T)
 CCSD(T)= -0.28470436807D+03
 D=-284.6807895\CCSD(T)=-284.7043681\RMSD=3.398e-09\PG=C01 [X(C2H7N1O2)
 Normal termination of Gaussian 09 at Fri Aug 26 12:22:38 2022.

 ---------------------------------------------------------
 #P Geom=AllCheck Guess=TCheck SCRF=Check MP4=FrzG4/GTBas2
 ---------------------------------------------------------

 Structure from the checkpoint file:  "G4.Frag_791.chk"
 --------
 Frag_791
 --------
 Charge =  0 Multiplicity = 1

 SCF Done:  E(RHF) =  -283.857547901     A.U. after   12 cycles
 E2 =    -0.8044592755D+00 EUMP2 =    -0.28466200717629D+03
 Normal termination of Gaussian 09 at Fri Aug 26 12:22:55 2022.

 ---------------------------------------------------------
 #P Geom=AllCheck Guess=TCheck SCRF=Check MP4=FrzG4/GTBas3
 ---------------------------------------------------------

 Structure from the checkpoint file:  "G4.Frag_791.chk"
 --------
 Frag_791
 --------
 Charge =  0 Multiplicity = 1

 SCF Done:  E(RHF) =  -283.882760170     A.U. after   12 cycles
 E2 =    -0.9795555147D+00 EUMP2 =    -0.28486231568486D+03
 Normal termination of Gaussian 09 at Fri Aug 26 12:24:27 2022.

 -----------------------------------------------------------
 #P Geom=AllCheck Guess=TCheck SCRF=Check MP2=Full/GTLargeXP
 -----------------------------------------------------------

 Structure from the checkpoint file:  "G4.Frag_791.chk"
 --------
 Frag_791
 --------
 Charge =  0 Multiplicity = 1

 SCF Done:  E(RHF) =  -283.961686424     A.U. after   12 cycles
 E2 =    -0.1272747944D+01 EUMP2 =    -0.28523443436787D+03
 Normal termination of Gaussian 09 at Fri Aug 26 12:25:18 2022.
 SCF Done:  E(RHF) =  -283.985369824     A.U. after    9 cycles
 Normal termination of Gaussian 09 at Fri Aug 26 12:26:20 2022.

                         Standard orientation:
 ---------------------------------------------------------------------
 Center     Atomic      Atomic             Coordinates (Angstroms)
 Number     Number       Type             X           Y           Z
 ---------------------------------------------------------------------
      1          6           0        1.900691   -0.096645   -0.123513
      2          8           0        0.657822   -0.542772    0.383200
      3          7           0       -0.397162    0.030919   -0.384108
      4          6           0       -1.554649   -0.792082   -0.037371
      5          8           0       -0.672733    1.310936    0.208164
      6          1           0        2.666515   -0.631614    0.443199
      7          1           0        2.000931   -0.323729   -1.191877
      8          1           0        2.033179    0.982037    0.033464
      9          1           0       -2.425164   -0.374377   -0.544554
     10          1           0       -1.365238   -1.805328   -0.394692
     11          1           0       -1.720794   -0.801417    1.046192
     12          1           0       -0.366261    1.925044   -0.468585
 ---------------------------------------------------------------------

 SCF Done:  E(RHF) =  -283.990517530     A.U. after    8 cycles

 The electronic state is 1-A.
 Alpha  occ. eigenvalues --  -20.59144 -20.58759 -15.67382 -11.27228 -11.24897
 Alpha  occ. eigenvalues --   -1.46137  -1.34735  -1.10215  -0.92508  -0.86197
 Alpha  occ. eigenvalues --   -0.72485  -0.68144  -0.66617  -0.62420  -0.58509
 Alpha  occ. eigenvalues --   -0.56788  -0.54390  -0.52439  -0.49328  -0.46012
 Alpha  occ. eigenvalues --   -0.40503
 Alpha virt. eigenvalues --    0.03949   0.04683   0.05163   0.05676   0.07044
 Alpha virt. eigenvalues --    0.07267   0.07444   0.09863   0.11435   0.12597
 Alpha virt. eigenvalues --    0.14050   0.15233   0.15831   0.16879   0.17327

 Mulliken charges:
               1
     1  C   -0.328800
     2  O   -0.292578
     3  N    0.114371
     4  C   -0.422320
     5  O   -0.536956
     6  H    0.181591
     7  H    0.175191
     8  H    0.157250
     9  H    0.181647
    10  H    0.185722
    11  H    0.192471
    12  H    0.392410
 Sum of Mulliken charges =  -0.00000

 Dipole moment (field-independent basis, Debye):
    X=              0.5044    Y=              0.3221    Z=             -1.4195  Tot=              1.5405
 Quadrupole moment (field-independent basis, Debye-Ang):
   XX=            -26.8870   YY=            -28.7293   ZZ=            -32.5801
   XY=              2.1276   XZ=              0.1238   YZ=             -1.9481

 Normal termination of Gaussian 09 at Fri Aug 26 12:32:35 2022.
