 Gaussian 09, Revision E.01,
 Gaussian 09:  ES64L-G09RevE.01 30-Nov-2015

 -----
 #P G4
 -----

 ---------
 Frag_1018
 ---------
 Symbolic Z-matrix:
 Charge =  0 Multiplicity = 1

 SCF Done:  E(RB3LYP) =  -360.858447474     A.U. after   12 cycles
 SCF Done:  E(RB3LYP) =  -360.859053940     A.U. after   11 cycles
 SCF Done:  E(RB3LYP) =  -360.859309607     A.U. after   10 cycles
 SCF Done:  E(RB3LYP) =  -360.860131322     A.U. after   11 cycles
 SCF Done:  E(RB3LYP) =  -360.861088340     A.U. after   13 cycles
 SCF Done:  E(RB3LYP) =  -360.862155277     A.U. after   10 cycles
 SCF Done:  E(RB3LYP) =  -360.863424785     A.U. after   11 cycles
 SCF Done:  E(RB3LYP) =  -360.864334648     A.U. after   11 cycles
 SCF Done:  E(RB3LYP) =  -360.864652220     A.U. after   10 cycles
 SCF Done:  E(RB3LYP) =  -360.864807858     A.U. after   10 cycles
 SCF Done:  E(RB3LYP) =  -360.879112895     A.U. after    8 cycles
 SCF Done:  E(RB3LYP) =  -360.879115300     A.U. after    7 cycles
 SCF Done:  E(RB3LYP) =  -360.879115402     A.U. after    7 cycles
 Optimization completed.
    -- Stationary point found.
 Normal termination of Gaussian 09 at Thu Sep  1 13:07:10 2022.

 ----------------------------------------------------------
 #P Geom=AllCheck Guess=TCheck SCRF=Check B3LYP/GTBas3 Freq
 ----------------------------------------------------------

 Structure from the checkpoint file:  "G4.Frag_1018.chk"
 ---------
 Frag_1018
 ---------
 Charge =  0 Multiplicity = 1

 SCF Done:  E(RB3LYP) =  -360.879115402     A.U. after    1 cycles

  Exact polarizability:  46.714  -0.212  40.583   0.296   0.366  37.900
 Approx polarizability:  60.528  -1.163  57.788  -0.329  -1.078  54.862

                      1                      2                      3
                      A                      A                      A
 Frequencies --    133.5726               239.2975               258.9473
 Red. masses --      2.8809                 1.9726                 1.3638
 Frc consts  --      0.0303                 0.0666                 0.0539
 IR Inten    --     11.6135                19.0080                51.3599

                      4                      5                      6
                      A                      A                      A
 Frequencies --    282.6328               318.5521               395.0343
 Red. masses --      1.2999                 1.2657                 2.8982
 Frc consts  --      0.0612                 0.0757                 0.2665
 IR Inten    --     73.7278                32.4101                 3.4552

                      7                      8                      9
                      A                      A                      A
 Frequencies --    442.6461               527.7716               534.3961
 Red. masses --      3.0727                 3.4910                 2.9968
 Frc consts  --      0.3547                 0.5729                 0.5042
 IR Inten    --     18.1651                 8.4113                 3.5738

                     10                     11                     12
                      A                      A                      A
 Frequencies --    626.0800               645.0737               812.4033
 Red. masses --      2.4386                 1.5957                 3.9688
 Frc consts  --      0.5632                 0.3912                 1.5433
 IR Inten    --     28.7377                99.9682                 3.0649

                     13                     14                     15
                      A                      A                      A
 Frequencies --    879.0371               948.0479              1038.3865
 Red. masses --      1.3256                 2.1817                 2.6110
 Frc consts  --      0.6035                 1.1553                 1.6587
 IR Inten    --     83.9693                98.6259                91.4930

                     16                     17                     18
                      A                      A                      A
 Frequencies --   1062.0851              1081.3181              1121.3431
 Red. masses --      1.8326                 2.3593                 2.3578
 Frc consts  --      1.2180                 1.6254                 1.7467
 IR Inten    --    113.6674                37.1907                90.8998

                     19                     20                     21
                      A                      A                      A
 Frequencies --   1204.0097              1299.8251              1332.7022
 Red. masses --      1.5627                 1.2863                 1.4193
 Frc consts  --      1.3347                 1.2805                 1.4852
 IR Inten    --    153.9160                25.6569                11.4217

                     22                     23                     24
                      A                      A                      A
 Frequencies --   1382.3754              1397.6695              1480.3738
 Red. masses --      1.6578                 1.3573                 1.7054
 Frc consts  --      1.8665                 1.5622                 2.2021
 IR Inten    --    117.9167                50.6559               136.1141

                     25                     26                     27
                      A                      A                      A
 Frequencies --   1494.5725              1645.2340              3023.5242
 Red. masses --      1.1582                 1.0931                 1.0654
 Frc consts  --      1.5243                 1.7433                 5.7383
 IR Inten    --     38.9446                37.7764                40.3245

                     28                     29                     30
                      A                      A                      A
 Frequencies --   3097.2690              3508.0271              3591.4664
 Red. masses --      1.0988                 1.0491                 1.0934
 Frc consts  --      6.2103                 7.6065                 8.3097
 IR Inten    --     22.8184                 1.8108                 4.5245

                     31                     32                     33
                      A                      A                      A
 Frequencies --   3651.5538              3796.6146              3821.6529
 Red. masses --      1.0644                 1.0649                 1.0650
 Frc consts  --      8.3616                 9.0436                 9.1648
 IR Inten    --    118.2467                29.4087                43.5782

 - Thermochemistry -
 -------------------
 Temperature   298.150 Kelvin.  Pressure   1.00000 Atm.
 Atom     1 has atomic number  7 and mass  14.00307

 Molecular mass:    93.04259 amu.
 Principal axes and moments of inertia in atomic units:
                           1         2         3
     Eigenvalues --   342.40171 637.93865 649.51437
           X            0.99971  -0.00560   0.02335
           Y           -0.00645   0.87413   0.48564
           Z           -0.02313  -0.48565   0.87385
 This molecule is an asymmetric top.
 Rotational symmetry number  1.
 Rotational temperatures (Kelvin)      0.25296     0.13577     0.13335
 Rotational constants (GHZ):           5.27083     2.82902     2.77860
 Zero-point vibrational energy     281562.0 (Joules/Mol)
                                   67.29494 (Kcal/Mol)
 Warning -- explicit consideration of   9 degrees of freedom as
           vibrations may cause significant error
 Vibrational temperatures:    192.18   344.30   372.57   406.65   458.32
          (Kelvin)            568.37   636.87   759.34   768.88   900.79
                              928.12  1168.87  1264.74  1364.03  1494.00
                             1528.10  1555.77  1613.36  1732.30  1870.16
                             1917.46  1988.93  2010.93  2129.93  2150.35
                             2367.12  4350.17  4456.27  5047.26  5167.31
                             5253.76  5462.47  5498.50

 Zero-point correction=                           0.107241 (Hartree/Particle)
 Thermal correction to Energy=                    0.114188
 Thermal correction to Enthalpy=                  0.115132
 Thermal correction to Gibbs Free Energy=         0.077208
 Sum of electronic and zero-point Energies=           -360.771874
 Sum of electronic and thermal Energies=              -360.764927
 Sum of electronic and thermal Enthalpies=            -360.763983
 Sum of electronic and thermal Free Energies=         -360.801908

                     E (Thermal)             CV                S
                      KCal/Mol        Cal/Mol-Kelvin    Cal/Mol-Kelvin
 Total                   71.654             25.600             79.819
 Electronic               0.000              0.000              0.000
 Translational            0.889              2.981             39.503
 Rotational               0.889              2.981             26.453
 Vibrational             69.877             19.638             13.863
 Vibration     1          0.613              1.920              2.894
 Vibration     2          0.657              1.780              1.808
 Vibration     3          0.668              1.748              1.669
 Vibration     4          0.682              1.706              1.518
 Vibration     5          0.705              1.638              1.318
 Vibration     6          0.762              1.481              0.981
 Vibration     7          0.802              1.377              0.818
 Vibration     8          0.883              1.189              0.592
 Vibration     9          0.889              1.174              0.577

 Optimization completed.
    -- Stationary point found.
 Normal termination of Gaussian 09 at Thu Sep  1 13:07:42 2022.

 -----------------------------------------------------------------
 #P Geom=AllCheck Guess=TCheck SCRF=Check CCSD(T,E4T,FrzG4)/GTBas1
 -----------------------------------------------------------------

 Structure from the checkpoint file:  "G4.Frag_1018.chk"
 ---------
 Frag_1018
 ---------
 Charge =  0 Multiplicity = 1

 SCF Done:  E(RHF) =  -358.838369185     A.U. after   11 cycles
 E2 =    -0.9624689320D+00 EUMP2 =    -0.35980083811705D+03
 CCSD(T)
 CCSD(T)= -0.35986450464D+03
 Normal termination of Gaussian 09 at Thu Sep  1 13:09:43 2022.

 ---------------------------------------------------------
 #P Geom=AllCheck Guess=TCheck SCRF=Check MP4=FrzG4/GTBas2
 ---------------------------------------------------------

 Structure from the checkpoint file:  "G4.Frag_1018.chk"
 ---------
 Frag_1018
 ---------
 Charge =  0 Multiplicity = 1

 SCF Done:  E(RHF) =  -358.852616055     A.U. after   11 cycles
 E2 =    -0.9821188914D+00 EUMP2 =    -0.35983473494658D+03
 Normal termination of Gaussian 09 at Thu Sep  1 13:10:26 2022.

 ---------------------------------------------------------
 #P Geom=AllCheck Guess=TCheck SCRF=Check MP4=FrzG4/GTBas3
 ---------------------------------------------------------

 Structure from the checkpoint file:  "G4.Frag_1018.chk"
 ---------
 Frag_1018
 ---------
 Charge =  0 Multiplicity = 1

 SCF Done:  E(RHF) =  -358.890849622     A.U. after   10 cycles
 E2 =    -0.1194883370D+01 EUMP2 =    -0.36008573299268D+03
 Normal termination of Gaussian 09 at Thu Sep  1 13:14:05 2022.

 -----------------------------------------------------------
 #P Geom=AllCheck Guess=TCheck SCRF=Check MP2=Full/GTLargeXP
 -----------------------------------------------------------

 Structure from the checkpoint file:  "G4.Frag_1018.chk"
 ---------
 Frag_1018
 ---------
 Charge =  0 Multiplicity = 1

 SCF Done:  E(RHF) =  -358.995863097     A.U. after   11 cycles
 E2 =    -0.1553550698D+01 EUMP2 =    -0.36054941379477D+03
 Normal termination of Gaussian 09 at Thu Sep  1 13:15:57 2022.
 SCF Done:  E(RHF) =  -359.025173803     A.U. after    8 cycles
 Normal termination of Gaussian 09 at Thu Sep  1 13:17:33 2022.

                         Standard orientation:
 ---------------------------------------------------------------------
 Center     Atomic      Atomic             Coordinates (Angstroms)
 Number     Number       Type             X           Y           Z
 ---------------------------------------------------------------------
      1          7           0        1.975777   -0.001820   -0.126372
      2          6           0        0.850651    0.476094    0.684722
      3          6           0       -0.448243   -0.003737    0.021527
      4          8           0       -0.504119   -1.382457    0.239183
      5          8           0       -1.586290    0.582697    0.586354
      6          8           0       -0.443189    0.318291   -1.340333
      7          1           0        2.841738    0.445920    0.151593
      8          1           0        2.090281   -1.000930    0.013051
      9          1           0        0.853431    0.141520    1.730159
     10          1           0        0.848607    1.569502    0.672321
     11          1           0       -1.290587   -1.700429   -0.220998
     12          1           0       -1.810708    1.330537    0.021594
     13          1           0        0.491134    0.244237   -1.602237
 ---------------------------------------------------------------------

 SCF Done:  E(RHF) =  -359.031740202     A.U. after    8 cycles

 The electronic state is 1-A.
 Alpha  occ. eigenvalues --  -20.56657 -20.56524 -20.56404 -15.56025 -11.39051
 Alpha  occ. eigenvalues --  -11.26118  -1.45758  -1.34609  -1.34143  -1.19422
 Alpha  occ. eigenvalues --   -0.96688  -0.83038  -0.75650  -0.72904  -0.67523
 Alpha  occ. eigenvalues --   -0.66493  -0.64636  -0.59845  -0.56444  -0.54558
 Alpha  occ. eigenvalues --   -0.53105  -0.52210  -0.48123  -0.46759  -0.41736
 Alpha virt. eigenvalues --    0.03520   0.04859   0.04899   0.05518   0.06912
 Alpha virt. eigenvalues --    0.07344   0.07938   0.09925   0.09953   0.12322
 Alpha virt. eigenvalues --    0.13499   0.13745   0.14272   0.15427   0.16389

 Mulliken charges:
               1
     1  N   -0.737261
     2  C   -0.189843
     3  C    0.645276
     4  O   -0.589928
     5  O   -0.625994
     6  O   -0.641882
     7  H    0.301074
     8  H    0.315837
     9  H    0.174847
    10  H    0.168096
    11  H    0.374023
    12  H    0.392926
    13  H    0.412827
 Sum of Mulliken charges =  -0.00000

 Dipole moment (field-independent basis, Debye):
    X=              1.8554    Y=              0.7434    Z=              0.0003  Tot=              1.9988
 Quadrupole moment (field-independent basis, Debye-Ang):
   XX=            -31.4373   YY=            -33.2504   ZZ=            -39.5633
   XY=              0.5351   XZ=              3.3069   YZ=              1.5504

 Normal termination of Gaussian 09 at Thu Sep  1 13:24:21 2022.
