 Gaussian 09, Revision E.01,
 Gaussian 09:  ES64L-G09RevE.01 30-Nov-2015

 -----
 #P G4
 -----

 --------
 Frag_822
 --------
 Symbolic Z-matrix:
 Charge =  0 Multiplicity = 1

 SCF Done:  E(RB3LYP) =  -225.206486452     A.U. after   14 cycles
 SCF Done:  E(RB3LYP) =  -225.218968936     A.U. after   13 cycles
 SCF Done:  E(RB3LYP) =  -225.219730342     A.U. after   11 cycles
 SCF Done:  E(RB3LYP) =  -225.219767020     A.U. after    8 cycles
 SCF Done:  E(RB3LYP) =  -225.219728489     A.U. after    9 cycles
 SCF Done:  E(RB3LYP) =  -225.219774171     A.U. after    9 cycles
 Optimization completed.
    -- Stationary point found.
 Normal termination of Gaussian 09 at Fri Aug 19 18:14:24 2022.

 ----------------------------------------------------------
 #P Geom=AllCheck Guess=TCheck SCRF=Check B3LYP/GTBas3 Freq
 ----------------------------------------------------------

 Structure from the checkpoint file:  "G4.Frag_822.chk"
 --------
 Frag_822
 --------
 Charge =  0 Multiplicity = 1

 SCF Done:  E(RB3LYP) =  -225.219774171     A.U. after    1 cycles

  Exact polarizability:  38.083   0.529  30.918   0.000   0.000  19.676
 Approx polarizability:  52.413  -5.946  48.236   0.000  -0.000  28.364

                      1                      2                      3
                      A                      A                      A
 Frequencies --    135.6772               297.2902               298.5334
 Red. masses --      1.3231                 1.9510                 5.8482
 Frc consts  --      0.0144                 0.1016                 0.3071
 IR Inten    --    106.5656                 3.7021                 2.2699

                      4                      5                      6
                      A                      A                      A
 Frequencies --    551.0433               763.3749               923.3381
 Red. masses --      1.1010                 2.2643                 3.0426
 Frc consts  --      0.1970                 0.7774                 1.5283
 IR Inten    --     18.4643                81.0581                65.7777

                      7                      8                      9
                      A                      A                      A
 Frequencies --    989.7188              1035.9357              1259.2852
 Red. masses --      2.9936                 1.6039                 1.9891
 Frc consts  --      1.7277                 1.0141                 1.8585
 IR Inten    --     55.3212                 0.4745                28.3738

                     10                     11                     12
                      A                      A                      A
 Frequencies --   1328.6367              1434.2103              1520.8079
 Red. masses --      1.1470                 1.2063                 1.6357
 Frc consts  --      1.1930                 1.4620                 2.2289
 IR Inten    --      0.6982                 0.8904                49.4603

                     13                     14                     15
                      A                      A                      A
 Frequencies --   1690.5637              1849.8445              2892.9537
 Red. masses --      1.1271                 7.4466                 1.0834
 Frc consts  --      1.8979                15.0133                 5.3423
 IR Inten    --      4.7562               318.0276               112.3429

                     16                     17                     18
                      A                      A                      A
 Frequencies --   3484.1408              3544.6168              3570.3255
 Red. masses --      1.0450                 1.0774                 1.0985
 Frc consts  --      7.4741                 7.9754                 8.2506
 IR Inten    --      1.1481                12.0914                 2.5484

 - Thermochemistry -
 -------------------
 Temperature   298.150 Kelvin.  Pressure   1.00000 Atm.
 Atom     1 has atomic number  7 and mass  14.00307

 Molecular mass:    60.03236 amu.
 Principal axes and moments of inertia in atomic units:
                           1         2         3
     Eigenvalues --    81.13669 302.67048 373.98450
           X            0.99931   0.03705   0.00000
           Y           -0.03705   0.99931   0.00000
           Z           -0.00000  -0.00000   1.00000
 This molecule is an asymmetric top.
 Rotational symmetry number  1.
 Rotational temperatures (Kelvin)      1.06750     0.28617     0.23160
 Rotational constants (GHZ):          22.24322     5.96273     4.82571
 Zero-point vibrational energy     164907.0 (Joules/Mol)
                                   39.41372 (Kcal/Mol)
 Warning -- explicit consideration of   4 degrees of freedom as
           vibrations may cause significant error
 Vibrational temperatures:    195.21   427.73   429.52   792.83  1098.32
          (Kelvin)           1328.48  1423.98  1490.48  1811.83  1911.61
                             2063.51  2188.10  2432.34  2661.51  4162.31
                             5012.90  5099.91  5136.90

 Zero-point correction=                           0.062810 (Hartree/Particle)
 Thermal correction to Energy=                    0.067592
 Thermal correction to Enthalpy=                  0.068537
 Thermal correction to Gibbs Free Energy=         0.035834
 Sum of electronic and zero-point Energies=           -225.156964
 Sum of electronic and thermal Energies=              -225.152182
 Sum of electronic and thermal Enthalpies=            -225.151238
 Sum of electronic and thermal Free Energies=         -225.183941

                     E (Thermal)             CV                S
                      KCal/Mol        Cal/Mol-Kelvin    Cal/Mol-Kelvin
 Total                   42.415             14.809             68.829
 Electronic               0.000              0.000              0.000
 Translational            0.889              2.981             38.197
 Rotational               0.889              2.981             23.733
 Vibrational             40.637              8.847              6.899
 Vibration     1          0.614              1.918              2.864
 Vibration     2          0.691              1.679              1.432
 Vibration     3          0.692              1.676              1.425
 Vibration     4          0.906              1.137              0.542

 Optimization completed.
    -- Stationary point found.
 Normal termination of Gaussian 09 at Fri Aug 19 18:14:48 2022.

 -----------------------------------------------------------------
 #P Geom=AllCheck Guess=TCheck SCRF=Check CCSD(T,E4T,FrzG4)/GTBas1
 -----------------------------------------------------------------

 Structure from the checkpoint file:  "G4.Frag_822.chk"
 --------
 Frag_822
 --------
 Charge =  0 Multiplicity = 1

 SCF Done:  E(RHF) =  -223.911566562     A.U. after   13 cycles
 E2 =    -0.6260700251D+00 EUMP2 =    -0.22453763658724D+03
 CCSD(T)
 CCSD(T)= -0.22458088116D+03
 24.5835518\MP4SDQ=-224.562644\CCSD=-224.5615126\CCSD(T)=-224.5808812\R
 Normal termination of Gaussian 09 at Fri Aug 19 18:15:10 2022.

 ---------------------------------------------------------
 #P Geom=AllCheck Guess=TCheck SCRF=Check MP4=FrzG4/GTBas2
 ---------------------------------------------------------

 Structure from the checkpoint file:  "G4.Frag_822.chk"
 --------
 Frag_822
 --------
 Charge =  0 Multiplicity = 1

 SCF Done:  E(RHF) =  -223.921150227     A.U. after   12 cycles
 E2 =    -0.6367146399D+00 EUMP2 =    -0.22455786486674D+03
 Normal termination of Gaussian 09 at Fri Aug 19 18:15:20 2022.

 ---------------------------------------------------------
 #P Geom=AllCheck Guess=TCheck SCRF=Check MP4=FrzG4/GTBas3
 ---------------------------------------------------------

 Structure from the checkpoint file:  "G4.Frag_822.chk"
 --------
 Frag_822
 --------
 Charge =  0 Multiplicity = 1

 SCF Done:  E(RHF) =  -223.941434543     A.U. after   12 cycles
 E2 =    -0.7620991374D+00 EUMP2 =    -0.22470353367997D+03
 Normal termination of Gaussian 09 at Fri Aug 19 18:18:35 2022.

 -----------------------------------------------------------
 #P Geom=AllCheck Guess=TCheck SCRF=Check MP2=Full/GTLargeXP
 -----------------------------------------------------------

 Structure from the checkpoint file:  "G4.Frag_822.chk"
 --------
 Frag_822
 --------
 Charge =  0 Multiplicity = 1

 SCF Done:  E(RHF) =  -224.006094297     A.U. after   12 cycles
 E2 =    -0.9939989935D+00 EUMP2 =    -0.22500009329099D+03
 Normal termination of Gaussian 09 at Fri Aug 19 18:19:12 2022.
 SCF Done:  E(RHF) =  -224.024053676     A.U. after   10 cycles
 Normal termination of Gaussian 09 at Fri Aug 19 18:20:33 2022.

                         Standard orientation:
 ---------------------------------------------------------------------
 Center     Atomic      Atomic             Coordinates (Angstroms)
 Number     Number       Type             X           Y           Z
 ---------------------------------------------------------------------
      1          7           0       -1.387906   -0.500830    0.000000
      2          7           0       -0.506580    0.583275    0.000000
      3          6           0        0.851264    0.412034   -0.000024
      4          8           0        1.453350   -0.631045    0.000007
      5          1           0       -1.976724   -0.470921   -0.826019
      6          1           0       -1.976707   -0.470932    0.826032
      7          1           0       -0.862675    1.530796    0.000020
      8          1           0        1.343118    1.410099    0.000056
 ---------------------------------------------------------------------

 SCF Done:  E(RHF) =  -224.027876101     A.U. after    8 cycles

 The electronic state is 1-A.
 Alpha  occ. eigenvalues --  -20.52290 -15.62015 -15.59962 -11.34949  -1.38878
 Alpha  occ. eigenvalues --   -1.30322  -1.09075  -0.82026  -0.76097  -0.70522
 Alpha  occ. eigenvalues --   -0.66408  -0.61346  -0.55463  -0.44861  -0.43076
 Alpha  occ. eigenvalues --   -0.41024
 Alpha virt. eigenvalues --    0.03079   0.04749   0.05643   0.06521   0.08108
 Alpha virt. eigenvalues --    0.09300   0.09355   0.11227   0.11865   0.13321
 Alpha virt. eigenvalues --    0.16889   0.16977   0.18374   0.19231   0.19291

 Mulliken charges:
               1
     1  N   -0.547002
     2  N   -0.360112
     3  C    0.370477
     4  O   -0.557006
     5  H    0.312454
     6  H    0.312453
     7  H    0.329787
     8  H    0.138948
 Sum of Mulliken charges =  -0.00000

 Dipole moment (field-independent basis, Debye):
    X=             -3.9238    Y=              3.8543    Z=              0.0000  Tot=              5.5001
 Quadrupole moment (field-independent basis, Debye-Ang):
   XX=            -22.2069   YY=            -23.5526   ZZ=            -22.7281
   XY=              2.8870   XZ=             -0.0001   YZ=              0.0001

 Normal termination of Gaussian 09 at Fri Aug 19 18:54:10 2022.
