 Gaussian 09, Revision E.01,
 Gaussian 09:  ES64L-G09RevE.01 30-Nov-2015

 -----
 #P G4
 -----

 --------
 Frag_454
 --------
 Symbolic Z-matrix:
 Charge =  0 Multiplicity = 1

 SCF Done:  E(RB3LYP) =  -328.337449500     A.U. after   12 cycles
 SCF Done:  E(RB3LYP) =  -328.343365956     A.U. after   10 cycles
 SCF Done:  E(RB3LYP) =  -328.344085395     A.U. after   10 cycles
 SCF Done:  E(RB3LYP) =  -328.344673813     A.U. after   10 cycles
 SCF Done:  E(RB3LYP) =  -328.345115745     A.U. after   10 cycles
 SCF Done:  E(RB3LYP) =  -328.345270803     A.U. after   10 cycles
 SCF Done:  E(RB3LYP) =  -328.345334543     A.U. after    9 cycles
 SCF Done:  E(RB3LYP) =  -328.345369127     A.U. after    9 cycles
 SCF Done:  E(RB3LYP) =  -328.345400376     A.U. after    9 cycles
 SCF Done:  E(RB3LYP) =  -328.345417507     A.U. after    9 cycles
 SCF Done:  E(RB3LYP) =  -328.345421563     A.U. after    8 cycles
 SCF Done:  E(RB3LYP) =  -328.345422014     A.U. after    7 cycles
 Optimization completed.
    -- Stationary point found.
 Normal termination of Gaussian 09 at Tue Aug 23 01:40:52 2022.

 ----------------------------------------------------------
 #P Geom=AllCheck Guess=TCheck SCRF=Check B3LYP/GTBas3 Freq
 ----------------------------------------------------------

 Structure from the checkpoint file:  "G4.Frag_454.chk"
 --------
 Frag_454
 --------
 Charge =  0 Multiplicity = 1

 SCF Done:  E(RB3LYP) =  -328.345422014     A.U. after    1 cycles

  Exact polarizability:  74.202   0.167  67.656   0.584   0.424  60.281
 Approx polarizability:  98.034   2.228  93.509   0.464  -1.860  88.605

                      1                      2                      3
                      A                      A                      A
 Frequencies --     92.8018               218.8532               224.8205
 Red. masses --      2.5650                 1.0448                 1.1218
 Frc consts  --      0.0130                 0.0295                 0.0334
 IR Inten    --      0.2869                15.3312                40.4914

                      4                      5                      6
                      A                      A                      A
 Frequencies --    231.5998               254.8654               264.0971
 Red. masses --      1.1244                 1.6835                 1.2003
 Frc consts  --      0.0355                 0.0644                 0.0493
 IR Inten    --     25.4135                 6.2637                 0.2599

                      7                      8                      9
                      A                      A                      A
 Frequencies --    280.9842               321.7427               357.6744
 Red. masses --      1.2967                 2.0943                 2.2226
 Frc consts  --      0.0603                 0.1277                 0.1675
 IR Inten    --      1.1151                 2.1949                 1.0993

                     10                     11                     12
                      A                      A                      A
 Frequencies --    384.8621               414.0652               480.7767
 Red. masses --      3.0884                 2.2574                 2.2284
 Frc consts  --      0.2695                 0.2280                 0.3035
 IR Inten    --      2.0853                 1.6614                 0.6862

                     13                     14                     15
                      A                      A                      A
 Frequencies --    507.6262               524.2270               704.9428
 Red. masses --      3.4179                 3.3494                 3.5948
 Frc consts  --      0.5189                 0.5423                 1.0525
 IR Inten    --     10.2129                 7.1774                 3.4743

                     16                     17                     18
                      A                      A                      A
 Frequencies --    850.2099               904.7030               953.3921
 Red. masses --      2.7484                 1.5627                 2.1274
 Frc consts  --      1.1705                 0.7536                 1.1393
 IR Inten    --     19.2113                 1.0784                21.6332

                     19                     20                     21
                      A                      A                      A
 Frequencies --   1002.0647              1008.4399              1073.9119
 Red. masses --      1.3473                 2.0404                 1.4765
 Frc consts  --      0.7971                 1.2225                 1.0033
 IR Inten    --      2.4865                44.8719                 6.4579

                     22                     23                     24
                      A                      A                      A
 Frequencies --   1114.4589              1125.3162              1180.3286
 Red. masses --      1.5652                 1.2714                 1.5512
 Frc consts  --      1.1454                 0.9486                 1.2733
 IR Inten    --     75.4479                 4.8050                10.5202

                     25                     26                     27
                      A                      A                      A
 Frequencies --   1190.8216              1212.1856              1287.4099
 Red. masses --      2.7219                 2.6650                 3.9953
 Frc consts  --      2.2741                 2.3072                 3.9015
 IR Inten    --      7.9191                70.3134                55.9495

                     28                     29                     30
                      A                      A                      A
 Frequencies --   1294.8488              1363.4396              1391.9236
 Red. masses --      1.8475                 1.7927                 1.3057
 Frc consts  --      1.8250                 1.9635                 1.4904
 IR Inten    --     32.8050                59.2405                18.5262

                     31                     32                     33
                      A                      A                      A
 Frequencies --   1408.5369              1438.0060              1469.9909
 Red. masses --      1.2543                 1.1496                 1.1486
 Frc consts  --      1.4662                 1.4007                 1.4624
 IR Inten    --     16.8581                 0.9525                 3.1544

                     34                     35                     36
                      A                      A                      A
 Frequencies --   1477.6037              1482.4237              1493.5800
 Red. masses --      1.0501                 1.0597                 1.0490
 Frc consts  --      1.3508                 1.3721                 1.3788
 IR Inten    --      3.0607                 2.4690                11.8348

                     37                     38                     39
                      A                      A                      A
 Frequencies --   1493.7226              1508.5998              1510.0812
 Red. masses --      1.0496                 1.0475                 1.0585
 Frc consts  --      1.3799                 1.4047                 1.4221
 IR Inten    --      1.1033                 9.6037                 1.3893

                     40                     41                     42
                      A                      A                      A
 Frequencies --   1513.5401              1522.3759              2917.7473
 Red. masses --      1.0656                 1.0765                 1.0624
 Frc consts  --      1.4383                 1.4700                 5.3289
 IR Inten    --      5.1392                 2.9866                56.2497

                     43                     44                     45
                      A                      A                      A
 Frequencies --   2934.2555              3032.8521              3045.1559
 Red. masses --      1.0621                 1.0383                 1.0356
 Frc consts  --      5.3878                 5.6270                 5.6580
 IR Inten    --    102.1255                15.0999                15.8181

                     46                     47                     48
                      A                      A                      A
 Frequencies --   3062.1406              3067.4719              3095.6097
 Red. masses --      1.0771                 1.0717                 1.0982
 Frc consts  --      5.9504                 5.9413                 6.2005
 IR Inten    --     31.2765                44.8994                12.4273

                     49                     50                     51
                      A                      A                      A
 Frequencies --   3111.2807              3125.3346              3127.3279
 Red. masses --      1.1008                 1.0976                 1.1005
 Frc consts  --      6.2784                 6.3166                 6.3416
 IR Inten    --     42.0207                11.9944                26.5853

                     52                     53                     54
                      A                      A                      A
 Frequencies --   3134.4148              3152.5579              3826.8238
 Red. masses --      1.1021                 1.0948                 1.0658
 Frc consts  --      6.3793                 6.4108                 9.1964
 IR Inten    --     21.4522                 8.6922                15.1033

 - Thermochemistry -
 -------------------
 Temperature   298.150 Kelvin.  Pressure   1.00000 Atm.
 Atom     1 has atomic number  6 and mass  12.00000

 Molecular mass:   103.09971 amu.
 Principal axes and moments of inertia in atomic units:
                           1         2         3
     Eigenvalues --   565.83393 769.65910 926.81715
           X            0.99906  -0.04220   0.00970
           Y            0.04162   0.99771   0.05333
           Z           -0.01193  -0.05287   0.99853
 This molecule is an asymmetric top.
 Rotational symmetry number  1.
 Warning -- assumption of classical behavior for rotation
           may cause significant error
 Rotational temperatures (Kelvin)      0.15307     0.11254     0.09345
 Rotational constants (GHZ):           3.18952     2.34486     1.94725
 Zero-point vibrational energy     473534.7 (Joules/Mol)
                                  113.17752 (Kcal/Mol)
 Warning -- explicit consideration of  14 degrees of freedom as
           vibrations may cause significant error
 Vibrational temperatures:    133.52   314.88   323.47   333.22   366.69
          (Kelvin)            379.98   404.27   462.92   514.61   553.73
                              595.75   691.73   730.36   754.24  1014.25
                             1223.26  1301.66  1371.72  1441.75  1450.92
                             1545.12  1603.46  1619.08  1698.23  1713.32
                             1744.06  1852.29  1863.00  1961.68  2002.67
                             2026.57  2068.97  2114.99  2125.94  2132.87
                             2148.93  2149.13  2170.54  2172.67  2177.64
                             2190.36  4197.98  4221.73  4363.59  4381.29
                             4405.73  4413.40  4453.89  4476.43  4496.65
                             4499.52  4509.72  4535.82  5505.94

 Zero-point correction=                           0.180360 (Hartree/Particle)
 Thermal correction to Energy=                    0.189499
 Thermal correction to Enthalpy=                  0.190443
 Thermal correction to Gibbs Free Energy=         0.148023
 Sum of electronic and zero-point Energies=           -328.165062
 Sum of electronic and thermal Energies=              -328.155923
 Sum of electronic and thermal Enthalpies=            -328.154979
 Sum of electronic and thermal Free Energies=         -328.197399

                     E (Thermal)             CV                S
                      KCal/Mol        Cal/Mol-Kelvin    Cal/Mol-Kelvin
 Total                  118.912             34.311             89.280
 Electronic               0.000              0.000              0.000
 Translational            0.889              2.981             39.809
 Rotational               0.889              2.981             27.492
 Vibrational            117.135             28.349             21.979
 Vibration     1          0.602              1.954              3.600
 Vibration     2          0.647              1.812              1.969
 Vibration     3          0.649              1.803              1.920
 Vibration     4          0.653              1.793              1.867
 Vibration     5          0.665              1.755              1.697
 Vibration     6          0.671              1.739              1.635
 Vibration     7          0.681              1.709              1.528
 Vibration     8          0.707              1.632              1.301
 Vibration     9          0.733              1.559              1.132
 Vibration    10          0.754              1.502              1.020
 Vibration    11          0.778              1.440              0.912
 Vibration    12          0.837              1.293              0.708
 Vibration    13          0.863              1.233              0.639
 Vibration    14          0.879              1.196              0.600

 Optimization completed.
    -- Stationary point found.
 Normal termination of Gaussian 09 at Tue Aug 23 01:49:28 2022.

 -----------------------------------------------------------------
 #P Geom=AllCheck Guess=TCheck SCRF=Check CCSD(T,E4T,FrzG4)/GTBas1
 -----------------------------------------------------------------

 Structure from the checkpoint file:  "G4.Frag_454.chk"
 --------
 Frag_454
 --------
 Charge =  0 Multiplicity = 1

 SCF Done:  E(RHF) =  -326.188479260     A.U. after   11 cycles
 E2 =    -0.1007674916D+01 EUMP2 =    -0.32719615417662D+03
 CCSD(T)
 CCSD(T)= -0.32729923095D+03
 6944\CCSD=-327.2679347\CCSD(T)=-327.299231\RMSD=7.416e-09\PG=C01 [X(C5
 Normal termination of Gaussian 09 at Tue Aug 23 02:11:28 2022.

 ---------------------------------------------------------
 #P Geom=AllCheck Guess=TCheck SCRF=Check MP4=FrzG4/GTBas2
 ---------------------------------------------------------

 Structure from the checkpoint file:  "G4.Frag_454.chk"
 --------
 Frag_454
 --------
 Charge =  0 Multiplicity = 1

 SCF Done:  E(RHF) =  -326.196462342     A.U. after   11 cycles
 E2 =    -0.1022742251D+01 EUMP2 =    -0.32721920459334D+03
 Normal termination of Gaussian 09 at Tue Aug 23 02:40:07 2022.

 ---------------------------------------------------------
 #P Geom=AllCheck Guess=TCheck SCRF=Check MP4=FrzG4/GTBas3
 ---------------------------------------------------------

 Structure from the checkpoint file:  "G4.Frag_454.chk"
 --------
 Frag_454
 --------
 Charge =  0 Multiplicity = 1

 SCF Done:  E(RHF) =  -326.232838656     A.U. after   10 cycles
 E2 =    -0.1256913455D+01 EUMP2 =    -0.32748975211147D+03
 Normal termination of Gaussian 09 at Tue Aug 23 09:38:34 2022.

 -----------------------------------------------------------
 #P Geom=AllCheck Guess=TCheck SCRF=Check MP2=Full/GTLargeXP
 -----------------------------------------------------------

 Structure from the checkpoint file:  "G4.Frag_454.chk"
 --------
 Frag_454
 --------
 Charge =  0 Multiplicity = 1

 SCF Done:  E(RHF) =  -326.310781362     A.U. after   11 cycles
 E2 =    -0.1644722121D+01 EUMP2 =    -0.32795550348275D+03
 Normal termination of Gaussian 09 at Tue Aug 23 09:57:57 2022.
 SCF Done:  E(RHF) =  -326.336420471     A.U. after    8 cycles
 Normal termination of Gaussian 09 at Tue Aug 23 10:10:14 2022.

                         Standard orientation:
 ---------------------------------------------------------------------
 Center     Atomic      Atomic             Coordinates (Angstroms)
 Number     Number       Type             X           Y           Z
 ---------------------------------------------------------------------
      1          6           0       -1.595534    1.127865   -0.119035
      2          7           0       -0.818423   -0.077671   -0.378457
      3          6           0       -1.505132   -1.263163    0.101912
      4          6           0        0.601869    0.029623   -0.037407
      5          6           0        0.865951    0.366197    1.446677
      6          6           0        1.351794   -1.250353   -0.439021
      7          8           0        1.073793    1.103347   -0.858084
      8          1           0       -2.542070    1.063954   -0.666389
      9          1           0       -1.841838    1.278678    0.948448
     10          1           0       -1.046620    1.997415   -0.478751
     11          1           0       -1.014466   -2.174047   -0.245667
     12          1           0       -1.595480   -1.318858    1.204158
     13          1           0       -2.522002   -1.264225   -0.303573
     14          1           0        0.435603   -0.393276    2.106697
     15          1           0        1.942014    0.403681    1.652320
     16          1           0        0.433940    1.335660    1.706008
     17          1           0        1.147502   -2.091410    0.228842
     18          1           0        2.427583   -1.054410   -0.401103
     19          1           0        1.087230   -1.526734   -1.462376
     20          1           0        1.913536    1.399482   -0.493506
 ---------------------------------------------------------------------

 SCF Done:  E(RHF) =  -326.342047129     A.U. after    8 cycles

 The electronic state is 1-A.
 Alpha  occ. eigenvalues --  -20.54841 -15.53853 -11.31472 -11.24031 -11.23060
 Alpha  occ. eigenvalues --  -11.21852 -11.21239  -1.36658  -1.21077  -1.02735
 Alpha  occ. eigenvalues --   -0.95430  -0.93249  -0.87838  -0.75662  -0.67515
 Alpha  occ. eigenvalues --   -0.66266  -0.63110  -0.60546  -0.58879  -0.56647
 Alpha  occ. eigenvalues --   -0.55448  -0.53619  -0.52798  -0.51887  -0.50992
 Alpha  occ. eigenvalues --   -0.49627  -0.48649  -0.43797  -0.34713
 Alpha virt. eigenvalues --    0.03083   0.03992   0.04026   0.04847   0.05857
 Alpha virt. eigenvalues --    0.06508   0.06715   0.06999   0.07353   0.09020
 Alpha virt. eigenvalues --    0.09287   0.09529   0.10096   0.10582   0.10847

 Mulliken charges:
               1
     1  C   -0.550774
     2  N    0.015829
     3  C   -0.512174
     4  C    0.445459
     5  C   -0.603618
     6  C   -0.601054
     7  O   -0.620207
     8  H    0.166314
     9  H    0.133528
    10  H    0.213084
    11  H    0.173294
    12  H    0.136445
    13  H    0.171749
    14  H    0.177033
    15  H    0.167988
    16  H    0.183732
    17  H    0.175956
    18  H    0.167302
    19  H    0.195576
    20  H    0.364539
 Sum of Mulliken charges =  -0.00000

 Dipole moment (field-independent basis, Debye):
    X=              0.7675    Y=             -0.5717    Z=              1.9888  Tot=              2.2071
 Quadrupole moment (field-independent basis, Debye-Ang):
   XX=            -41.7185   YY=            -45.2036   ZZ=            -49.6105
   XY=              1.2881   XZ=              0.8799   YZ=              1.4641

 Normal termination of Gaussian 09 at Tue Aug 23 16:08:55 2022.
