 Gaussian 09, Revision E.01,
 Gaussian 09:  ES64L-G09RevE.01 30-Nov-2015

 -----
 #P G4
 -----

 --------
 Frag_581
 --------
 Symbolic Z-matrix:
 Charge =  0 Multiplicity = 1

 SCF Done:  E(RB3LYP) =  -324.897020313     A.U. after   12 cycles
 SCF Done:  E(RB3LYP) =  -324.905811243     A.U. after   11 cycles
 SCF Done:  E(RB3LYP) =  -324.906834749     A.U. after   10 cycles
 SCF Done:  E(RB3LYP) =  -324.907151040     A.U. after   11 cycles
 SCF Done:  E(RB3LYP) =  -324.907220748     A.U. after   10 cycles
 SCF Done:  E(RB3LYP) =  -324.907239479     A.U. after    9 cycles
 SCF Done:  E(RB3LYP) =  -324.907243882     A.U. after    8 cycles
 SCF Done:  E(RB3LYP) =  -324.907244880     A.U. after    7 cycles
 Optimization completed.
    -- Stationary point found.
 Normal termination of Gaussian 09 at Thu Aug 25 19:50:07 2022.

 ----------------------------------------------------------
 #P Geom=AllCheck Guess=TCheck SCRF=Check B3LYP/GTBas3 Freq
 ----------------------------------------------------------

 Structure from the checkpoint file:  "G4.Frag_581.chk"
 --------
 Frag_581
 --------
 Charge =  0 Multiplicity = 1

 SCF Done:  E(RB3LYP) =  -324.907244880     A.U. after    1 cycles

  Exact polarizability:  55.617   2.221  48.742   1.426  -1.560  45.575
 Approx polarizability:  73.284   2.153  67.465   0.849  -0.507  67.997

                      1                      2                      3
                      A                      A                      A
 Frequencies --    151.8532               196.6748               229.9520
 Red. masses --      1.9603                 1.2707                 1.0635
 Frc consts  --      0.0266                 0.0290                 0.0331
 IR Inten    --      4.5242                 7.7825                 4.9315

                      4                      5                      6
                      A                      A                      A
 Frequencies --    276.2012               324.1988               346.8592
 Red. masses --      2.9088                 1.4600                 1.8830
 Frc consts  --      0.1307                 0.0904                 0.1335
 IR Inten    --      5.7560                34.1733                 5.3421

                      7                      8                      9
                      A                      A                      A
 Frequencies --    396.1748               420.8991               435.6639
 Red. masses --      2.9150                 1.7988                 1.3912
 Frc consts  --      0.2696                 0.1877                 0.1556
 IR Inten    --     17.8086                41.6240                39.0516

                     10                     11                     12
                      A                      A                      A
 Frequencies --    513.0218               601.7799               767.9946
 Red. masses --      3.0283                 3.6791                 4.7172
 Frc consts  --      0.4696                 0.7850                 1.6393
 IR Inten    --     15.9085                 7.6380                10.7650

                     13                     14                     15
                      A                      A                      A
 Frequencies --    857.3704               923.9134               954.3617
 Red. masses --      2.8134                 1.5772                 3.1675
 Frc consts  --      1.2185                 0.7932                 1.6998
 IR Inten    --     48.8048                 2.2592                18.9942

                     16                     17                     18
                      A                      A                      A
 Frequencies --    976.1484              1005.8748              1134.4433
 Red. masses --      2.7515                 1.3246                 1.5864
 Frc consts  --      1.5447                 0.7896                 1.2029
 IR Inten    --     28.1457                 2.3383                64.7016

                     19                     20                     21
                      A                      A                      A
 Frequencies --   1192.6696              1221.9213              1250.1413
 Red. masses --      2.3324                 1.4687                 2.8531
 Frc consts  --      1.9547                 1.2920                 2.6271
 IR Inten    --     67.3161               114.2404                89.3154

                     22                     23                     24
                      A                      A                      A
 Frequencies --   1346.7930              1370.8058              1407.9530
 Red. masses --      1.1528                 1.2977                 1.3837
 Frc consts  --      1.2320                 1.4368                 1.6161
 IR Inten    --      3.5555                19.1806                25.3410

                     25                     26                     27
                      A                      A                      A
 Frequencies --   1417.0280              1478.2852              1480.6447
 Red. masses --      1.4980                 1.0470                 1.0776
 Frc consts  --      1.7722                 1.3481                 1.3919
 IR Inten    --     34.2915                 0.6665                 1.9101

                     28                     29                     30
                      A                      A                      A
 Frequencies --   1496.2301              1504.0186              1655.8080
 Red. masses --      1.0735                 1.0508                 1.0676
 Frc consts  --      1.4160                 1.4004                 1.7245
 IR Inten    --      2.8772                 2.4268                18.0000

                     31                     32                     33
                      A                      A                      A
 Frequencies --   3046.3739              3056.1683              3120.1916
 Red. masses --      1.0356                 1.0351                 1.1002
 Frc consts  --      5.6627                 5.6962                 6.3109
 IR Inten    --     12.7102                 5.6697                17.2084

                     34                     35                     36
                      A                      A                      A
 Frequencies --   3130.0091              3133.7546              3139.7779
 Red. masses --      1.1010                 1.1032                 1.1027
 Frc consts  --      6.3552                 6.3831                 6.4047
 IR Inten    --     16.1100                 3.3530                26.0128

                     37                     38                     39
                      A                      A                      A
 Frequencies --   3392.3283              3487.1470              3788.4485
 Red. masses --      1.0450                 1.0957                 1.0654
 Frc consts  --      7.0857                 7.8499                 9.0090
 IR Inten    --      7.6785                 1.1500                18.1186

 - Thermochemistry -
 -------------------
 Temperature   298.150 Kelvin.  Pressure   1.00000 Atm.
 Atom     1 has atomic number  6 and mass  12.00000

 Molecular mass:    91.06333 amu.
 Principal axes and moments of inertia in atomic units:
                           1         2         3
     Eigenvalues --   387.23044 620.59715 644.12511
           X            0.99709   0.06758   0.03539
           Y           -0.05507   0.95868  -0.27910
           Z           -0.05279   0.27633   0.95961
 This molecule is an asymmetric top.
 Rotational symmetry number  1.
 Rotational temperatures (Kelvin)      0.22368     0.13957     0.13447
 Rotational constants (GHZ):           4.66064     2.90807     2.80185
 Zero-point vibrational energy     338721.9 (Joules/Mol)
                                   80.95648 (Kcal/Mol)
 Warning -- explicit consideration of  11 degrees of freedom as
           vibrations may cause significant error
 Vibrational temperatures:    218.48   282.97   330.85   397.39   466.45
          (Kelvin)            499.05   570.01   605.58   626.82   738.12
                              865.83  1104.97  1233.56  1329.30  1373.11
                             1404.46  1447.23  1632.21  1715.98  1758.07
                             1798.67  1937.73  1972.28  2025.73  2038.78
                             2126.92  2130.31  2152.74  2163.94  2382.34
                             4383.05  4397.14  4489.25  4503.38  4508.77
                             4517.43  4880.80  5017.22  5450.73

 Zero-point correction=                           0.129012 (Hartree/Particle)
 Thermal correction to Energy=                    0.136469
 Thermal correction to Enthalpy=                  0.137413
 Thermal correction to Gibbs Free Energy=         0.098637
 Sum of electronic and zero-point Energies=           -324.778233
 Sum of electronic and thermal Energies=              -324.770776
 Sum of electronic and thermal Enthalpies=            -324.769831
 Sum of electronic and thermal Free Energies=         -324.808607

                     E (Thermal)             CV                S
                      KCal/Mol        Cal/Mol-Kelvin    Cal/Mol-Kelvin
 Total                   85.636             27.540             81.611
 Electronic               0.000              0.000              0.000
 Translational            0.889              2.981             39.439
 Rotational               0.889              2.981             26.540
 Vibrational             83.858             21.578             15.632
 Vibration     1          0.619              1.901              2.649
 Vibration     2          0.636              1.845              2.164
 Vibration     3          0.652              1.795              1.879
 Vibration     4          0.678              1.717              1.557
 Vibration     5          0.709              1.627              1.289
 Vibration     6          0.725              1.582              1.180
 Vibration     7          0.763              1.478              0.977
 Vibration     8          0.783              1.425              0.889
 Vibration     9          0.796              1.392              0.840
 Vibration    10          0.868              1.221              0.626
 Vibration    11          0.960              1.028              0.447

 Normal termination of Gaussian 09 at Thu Aug 25 19:52:57 2022.

 -----------------------------------------------------------------
 #P Geom=AllCheck Guess=TCheck SCRF=Check CCSD(T,E4T,FrzG4)/GTBas1
 -----------------------------------------------------------------

 Structure from the checkpoint file:  "G4.Frag_581.chk"
 --------
 Frag_581
 --------
 Charge =  0 Multiplicity = 1

 SCF Done:  E(RHF) =  -322.944346501     A.U. after   13 cycles
 E2 =    -0.9219607006D+00 EUMP2 =    -0.32386630720161D+03
 CCSD(T)
 CCSD(T)= -0.32394506525D+03
 182858\CCSD(T)=-323.9450652\RMSD=2.721e-09\PG=C01 [X(C3H9N1O2)]\\@
 Normal termination of Gaussian 09 at Thu Aug 25 19:59:12 2022.

 ---------------------------------------------------------
 #P Geom=AllCheck Guess=TCheck SCRF=Check MP4=FrzG4/GTBas2
 ---------------------------------------------------------

 Structure from the checkpoint file:  "G4.Frag_581.chk"
 --------
 Frag_581
 --------
 Charge =  0 Multiplicity = 1

 SCF Done:  E(RHF) =  -322.954486251     A.U. after   12 cycles
 E2 =    -0.9366041315D+00 EUMP2 =    -0.32389109038228D+03
 Normal termination of Gaussian 09 at Thu Aug 25 20:08:19 2022.

 ---------------------------------------------------------
 #P Geom=AllCheck Guess=TCheck SCRF=Check MP4=FrzG4/GTBas3
 ---------------------------------------------------------

 Structure from the checkpoint file:  "G4.Frag_581.chk"
 --------
 Frag_581
 --------
 Charge =  0 Multiplicity = 1

 SCF Done:  E(RHF) =  -322.988171199     A.U. after   11 cycles
 E2 =    -0.1144339716D+01 EUMP2 =    -0.32413251091492D+03
 Normal termination of Gaussian 09 at Thu Aug 25 23:28:03 2022.

 -----------------------------------------------------------
 #P Geom=AllCheck Guess=TCheck SCRF=Check MP2=Full/GTLargeXP
 -----------------------------------------------------------

 Structure from the checkpoint file:  "G4.Frag_581.chk"
 --------
 Frag_581
 --------
 Charge =  0 Multiplicity = 1

 SCF Done:  E(RHF) =  -323.075049309     A.U. after   12 cycles
 E2 =    -0.1489537698D+01 EUMP2 =    -0.32456458700687D+03
 Normal termination of Gaussian 09 at Thu Aug 25 23:34:47 2022.
 SCF Done:  E(RHF) =  -323.100921500     A.U. after    9 cycles
 Normal termination of Gaussian 09 at Thu Aug 25 23:41:23 2022.

                         Standard orientation:
 ---------------------------------------------------------------------
 Center     Atomic      Atomic             Coordinates (Angstroms)
 Number     Number       Type             X           Y           Z
 ---------------------------------------------------------------------
      1          6           0       -1.618156   -0.656517   -0.546040
      2          6           0       -0.377875    0.022117    0.030352
      3          6           0       -0.381533    1.534282   -0.185066
      4          8           0       -0.275141   -0.175277    1.428904
      5          8           0        0.708344   -0.629980   -0.634399
      6          7           0        2.003667   -0.233393   -0.184029
      7          1           0       -1.552044   -1.738819   -0.396499
      8          1           0       -2.515996   -0.280241   -0.050310
      9          1           0       -1.696654   -0.470371   -1.619814
     10          1           0        0.480653    2.000298    0.297811
     11          1           0       -1.281516    1.972133    0.252742
     12          1           0       -0.360354    1.760309   -1.254047
     13          1           0       -0.372791   -1.121562    1.590887
     14          1           0        2.144876    0.722050   -0.517841
     15          1           0        1.927915   -0.167287    0.833758
 ---------------------------------------------------------------------

 SCF Done:  E(RHF) =  -323.106695148     A.U. after    8 cycles

 The electronic state is 1-A.
 Alpha  occ. eigenvalues --  -20.58233 -20.57103 -15.59861 -11.34513 -11.22517
 Alpha  occ. eigenvalues --  -11.22475  -1.43214  -1.35684  -1.10400  -1.01982
 Alpha  occ. eigenvalues --   -0.95490  -0.80655  -0.72244  -0.69704  -0.65972
 Alpha  occ. eigenvalues --   -0.63131  -0.60371  -0.56183  -0.55133  -0.54318
 Alpha  occ. eigenvalues --   -0.53223  -0.50138  -0.48315  -0.45614  -0.41893
 Alpha virt. eigenvalues --    0.03417   0.03905   0.04907   0.05464   0.06661
 Alpha virt. eigenvalues --    0.07015   0.07415   0.07918   0.08924   0.09905
 Alpha virt. eigenvalues --    0.10990   0.11834   0.12541   0.14184   0.14659

 Mulliken charges:
               1
     1  C   -0.554237
     2  C    0.477633
     3  C   -0.551863
     4  O   -0.605994
     5  O   -0.292670
     6  N   -0.519985
     7  H    0.172635
     8  H    0.184502
     9  H    0.185122
    10  H    0.169011
    11  H    0.183267
    12  H    0.187590
    13  H    0.371075
    14  H    0.288988
    15  H    0.304927
 Sum of Mulliken charges =  -0.00000

 Dipole moment (field-independent basis, Debye):
    X=             -1.4653    Y=              1.1238    Z=              0.5603  Tot=              1.9298
 Quadrupole moment (field-independent basis, Debye-Ang):
   XX=            -38.6648   YY=            -35.8304   ZZ=            -39.3708
   XY=              4.7181   XZ=              2.8036   YZ=             -4.2992

 Normal termination of Gaussian 09 at Fri Aug 26 02:41:31 2022.
