 Gaussian 09, Revision E.01,
 Gaussian 09:  ES64L-G09RevE.01 30-Nov-2015

 -----
 #P G4
 -----

 --------
 Frag_722
 --------
 Symbolic Z-matrix:
 Charge =  0 Multiplicity = 1

 SCF Done:  E(RB3LYP) =  -225.130308311     A.U. after   14 cycles
 SCF Done:  E(RB3LYP) =  -225.154660044     A.U. after   14 cycles
 SCF Done:  E(RB3LYP) =  -225.157429847     A.U. after   13 cycles
 SCF Done:  E(RB3LYP) =  -225.156485477     A.U. after   14 cycles
 SCF Done:  E(RB3LYP) =  -225.157638124     A.U. after    8 cycles
 SCF Done:  E(RB3LYP) =  -225.157823475     A.U. after   12 cycles
 SCF Done:  E(RB3LYP) =  -225.157852316     A.U. after   11 cycles
 SCF Done:  E(RB3LYP) =  -225.157883970     A.U. after   10 cycles
 SCF Done:  E(RB3LYP) =  -225.157933146     A.U. after   11 cycles
 SCF Done:  E(RB3LYP) =  -225.158034350     A.U. after   12 cycles
 SCF Done:  E(RB3LYP) =  -225.158255597     A.U. after   12 cycles
 SCF Done:  E(RB3LYP) =  -225.158267261     A.U. after   11 cycles
 SCF Done:  E(RB3LYP) =  -225.158268151     A.U. after   10 cycles
 Optimization completed.
    -- Stationary point found.
 Normal termination of Gaussian 09 at Fri Aug 26 15:11:30 2022.

 ----------------------------------------------------------
 #P Geom=AllCheck Guess=TCheck SCRF=Check B3LYP/GTBas3 Freq
 ----------------------------------------------------------

 Structure from the checkpoint file:  "G4.Frag_722.chk"
 --------
 Frag_722
 --------
 Charge =  0 Multiplicity = 1

 SCF Done:  E(RB3LYP) =  -225.158268151     A.U. after    1 cycles

  Exact polarizability:  32.316   2.448  40.141   0.001  -0.000  20.262
 Approx polarizability:  44.651   8.101  82.121   0.004   0.001  29.052

                      1                      2                      3
                      A                      A                      A
 Frequencies --     84.1336               495.5820               579.9167
 Red. masses --      1.0841                 2.9989                 2.9936
 Frc consts  --      0.0045                 0.4340                 0.5932
 IR Inten    --      0.3874                 3.5694                17.6670

                      4                      5                      6
                      A                      A                      A
 Frequencies --    635.2391               805.8490               895.7437
 Red. masses --      5.0775                 1.1999                 6.9070
 Frc consts  --      1.2072                 0.4591                 3.2652
 IR Inten    --      8.7483                35.9853                 5.5179

                      7                      8                      9
                      A                      A                      A
 Frequencies --   1103.0599              1132.7395              1295.2890
 Red. masses --      1.3682                 1.4847                 2.1189
 Frc consts  --      0.9808                 1.1224                 2.0946
 IR Inten    --      3.3297                 1.1273                96.7944

                     10                     11                     12
                      A                      A                      A
 Frequencies --   1412.4941              1464.9043              1471.6036
 Red. masses --      1.2780                 1.0452                 1.3856
 Frc consts  --      1.5023                 1.3215                 1.7679
 IR Inten    --     30.5739                 9.1326               114.9970

                     13                     14                     15
                      A                      A                      A
 Frequencies --   1481.8520              1670.8230              3073.9153
 Red. masses --      1.6714                 4.0005                 1.0296
 Frc consts  --      2.1624                 6.5800                 5.7319
 IR Inten    --     42.4498               127.8204                 4.5005

                     16                     17                     18
                      A                      A                      A
 Frequencies --   3175.2137              3175.7914              3461.5930
 Red. masses --      1.1074                 1.1058                 1.0739
 Frc consts  --      6.5782                 6.5708                 7.5816
 IR Inten    --      4.3750                 2.0205                 1.3918

 - Thermochemistry -
 -------------------
 Temperature   298.150 Kelvin.  Pressure   1.00000 Atm.
 Atom     1 has atomic number  6 and mass  12.00000

 Molecular mass:    60.03236 amu.
 Principal axes and moments of inertia in atomic units:
                           1         2         3
     Eigenvalues --   153.34483 174.40013 316.35615
           X            0.99940  -0.03462  -0.00002
           Y            0.03462   0.99940   0.00000
           Z            0.00002  -0.00000   1.00000
 This molecule is an asymmetric top.
 Rotational symmetry number  1.
 Rotational temperatures (Kelvin)      0.56483     0.49664     0.27379
 Rotational constants (GHZ):          11.76917    10.34828     5.70478
 Zero-point vibrational energy     163982.6 (Joules/Mol)
                                   39.19277 (Kcal/Mol)
 Warning -- explicit consideration of   3 degrees of freedom as
           vibrations may cause significant error
 Vibrational temperatures:    121.05   713.03   834.37   913.97  1159.44
          (Kelvin)           1288.77  1587.06  1629.76  1863.63  2032.26
                             2107.67  2117.31  2132.05  2403.94  4422.67
                             4568.42  4569.25  4980.45

 Zero-point correction=                           0.062458 (Hartree/Particle)
 Thermal correction to Energy=                    0.066812
 Thermal correction to Enthalpy=                  0.067756
 Thermal correction to Gibbs Free Energy=         0.035571
 Sum of electronic and zero-point Energies=           -225.095810
 Sum of electronic and thermal Energies=              -225.091457
 Sum of electronic and thermal Enthalpies=            -225.090512
 Sum of electronic and thermal Free Energies=         -225.122698

                     E (Thermal)             CV                S
                      KCal/Mol        Cal/Mol-Kelvin    Cal/Mol-Kelvin
 Total                   41.925             13.432             67.739
 Electronic               0.000              0.000              0.000
 Translational            0.889              2.981             38.197
 Rotational               0.889              2.981             23.652
 Vibrational             40.147              7.470              5.891
 Vibration     1          0.601              1.960              3.792
 Vibration     2          0.851              1.260              0.669
 Vibration     3          0.937              1.075              0.486

 Normal termination of Gaussian 09 at Fri Aug 26 15:11:43 2022.

 -----------------------------------------------------------------
 #P Geom=AllCheck Guess=TCheck SCRF=Check CCSD(T,E4T,FrzG4)/GTBas1
 -----------------------------------------------------------------

 Structure from the checkpoint file:  "G4.Frag_722.chk"
 --------
 Frag_722
 --------
 Charge =  0 Multiplicity = 1

 SCF Done:  E(RHF) =  -223.823602061     A.U. after   14 cycles
 E2 =    -0.6561629792D+00 EUMP2 =    -0.22447976504018D+03
 CCSD(T)
 CCSD(T)= -0.22452222559D+03
 4.5274616\MP4SDQ=-224.4981663\CCSD=-224.4962064\CCSD(T)=-224.5222256\R
 Normal termination of Gaussian 09 at Fri Aug 26 15:12:03 2022.

 ---------------------------------------------------------
 #P Geom=AllCheck Guess=TCheck SCRF=Check MP4=FrzG4/GTBas2
 ---------------------------------------------------------

 Structure from the checkpoint file:  "G4.Frag_722.chk"
 --------
 Frag_722
 --------
 Charge =  0 Multiplicity = 1

 SCF Done:  E(RHF) =  -223.833262268     A.U. after   13 cycles
 E2 =    -0.6655312272D+00 EUMP2 =    -0.22449879349536D+03
 Normal termination of Gaussian 09 at Fri Aug 26 15:12:10 2022.

 ---------------------------------------------------------
 #P Geom=AllCheck Guess=TCheck SCRF=Check MP4=FrzG4/GTBas3
 ---------------------------------------------------------

 Structure from the checkpoint file:  "G4.Frag_722.chk"
 --------
 Frag_722
 --------
 Charge =  0 Multiplicity = 1

 SCF Done:  E(RHF) =  -223.852784277     A.U. after   13 cycles
 E2 =    -0.7904367316D+00 EUMP2 =    -0.22464322100818D+03
 Normal termination of Gaussian 09 at Fri Aug 26 15:12:34 2022.

 -----------------------------------------------------------
 #P Geom=AllCheck Guess=TCheck SCRF=Check MP2=Full/GTLargeXP
 -----------------------------------------------------------

 Structure from the checkpoint file:  "G4.Frag_722.chk"
 --------
 Frag_722
 --------
 Charge =  0 Multiplicity = 1

 SCF Done:  E(RHF) =  -223.915897904     A.U. after   12 cycles
 E2 =    -0.1021033783D+01 EUMP2 =    -0.22493693168748D+03
 Normal termination of Gaussian 09 at Fri Aug 26 15:12:49 2022.
 SCF Done:  E(RHF) =  -223.934373288     A.U. after   11 cycles
 Normal termination of Gaussian 09 at Fri Aug 26 15:13:13 2022.

                         Standard orientation:
 ---------------------------------------------------------------------
 Center     Atomic      Atomic             Coordinates (Angstroms)
 Number     Number       Type             X           Y           Z
 ---------------------------------------------------------------------
      1          6           0        1.308651   -0.166395   -0.000029
      2          7           0       -0.175914    0.033373    0.000376
      3          7           0       -0.987658   -0.942857   -0.000144
      4          8           0       -0.529125    1.216086   -0.000110
      5          1           0        1.696643    0.331152    0.888676
      6          1           0        1.563373   -1.225878    0.000833
      7          1           0        1.695994    0.329175   -0.890205
      8          1           0       -0.429912   -1.798377    0.000131
 ---------------------------------------------------------------------

 SCF Done:  E(RHF) =  -223.938261915     A.U. after    8 cycles

 The electronic state is 1-A.
 Alpha  occ. eigenvalues --  -20.55783 -15.79901 -15.61152 -11.30909  -1.52815
 Alpha  occ. eigenvalues --   -1.27904  -1.06742  -0.85783  -0.76238  -0.70310
 Alpha  occ. eigenvalues --   -0.68732  -0.62480  -0.58172  -0.49240  -0.45660
 Alpha  occ. eigenvalues --   -0.39533
 Alpha virt. eigenvalues --    0.02980   0.04421   0.04773   0.06131   0.08584
 Alpha virt. eigenvalues --    0.09301   0.10070   0.11335   0.12144   0.14261
 Alpha virt. eigenvalues --    0.14801   0.16157   0.17290   0.18328   0.18758

 Mulliken charges:
               1
     1  C   -0.454641
     2  N    0.462781
     3  N   -0.475287
     4  O   -0.472765
     5  H    0.227429
     6  H    0.194862
     7  H    0.227365
     8  H    0.290255
 Sum of Mulliken charges =  -0.00000

 Dipole moment (field-independent basis, Debye):
    X=              4.3876    Y=             -2.9327    Z=              0.0006  Tot=              5.2775
 Quadrupole moment (field-independent basis, Debye-Ang):
   XX=            -25.0473   YY=            -24.7977   ZZ=            -23.6470
   XY=             -0.0098   XZ=             -0.0013   YZ=              0.0001

 Normal termination of Gaussian 09 at Fri Aug 26 15:15:12 2022.
