 Gaussian 09, Revision E.01,
 Gaussian 09:  ES64L-G09RevE.01 30-Nov-2015

 -----
 #P G4
 -----

 --------
 Frag_911
 --------
 Symbolic Z-matrix:
 Charge =  0 Multiplicity = 1

 SCF Done:  E(RB3LYP) =  -364.265267277     A.U. after   12 cycles
 SCF Done:  E(RB3LYP) =  -364.272068830     A.U. after   11 cycles
 SCF Done:  E(RB3LYP) =  -364.273185002     A.U. after   11 cycles
 SCF Done:  E(RB3LYP) =  -364.273744437     A.U. after   11 cycles
 SCF Done:  E(RB3LYP) =  -364.273913138     A.U. after   10 cycles
 SCF Done:  E(RB3LYP) =  -364.274075682     A.U. after   10 cycles
 SCF Done:  E(RB3LYP) =  -364.274101828     A.U. after    9 cycles
 SCF Done:  E(RB3LYP) =  -364.274114882     A.U. after    8 cycles
 SCF Done:  E(RB3LYP) =  -364.274119957     A.U. after    8 cycles
 SCF Done:  E(RB3LYP) =  -364.274123487     A.U. after    9 cycles
 SCF Done:  E(RB3LYP) =  -364.274124240     A.U. after    7 cycles
 Optimization completed.
    -- Stationary point found.
 Normal termination of Gaussian 09 at Wed Aug 24 23:57:25 2022.

 ----------------------------------------------------------
 #P Geom=AllCheck Guess=TCheck SCRF=Check B3LYP/GTBas3 Freq
 ----------------------------------------------------------

 Structure from the checkpoint file:  "G4.Frag_911.chk"
 --------
 Frag_911
 --------
 Charge =  0 Multiplicity = 1

 SCF Done:  E(RB3LYP) =  -364.274124240     A.U. after    1 cycles

  Exact polarizability:  62.192  -2.935  57.682  -0.268  -0.000  58.239
 Approx polarizability:  82.680  -0.619  83.936   0.265   1.931  83.584

                      1                      2                      3
                      A                      A                      A
 Frequencies --     97.3021               200.9833               227.3101
 Red. masses --      3.2133                 1.0731                 1.2343
 Frc consts  --      0.0179                 0.0255                 0.0376
 IR Inten    --      2.1421                 0.8527                11.3356

                      4                      5                      6
                      A                      A                      A
 Frequencies --    253.4341               266.7875               280.6909
 Red. masses --      2.5468                 1.1136                 2.5574
 Frc consts  --      0.0964                 0.0467                 0.1187
 IR Inten    --      1.7360                40.7025                 2.4575

                      7                      8                      9
                      A                      A                      A
 Frequencies --    337.5020               359.4107               360.8447
 Red. masses --      1.2484                 2.4149                 2.6180
 Frc consts  --      0.0838                 0.1838                 0.2008
 IR Inten    --     28.1485                 1.5370                37.2246

                     10                     11                     12
                      A                      A                      A
 Frequencies --    429.3570               489.1537               509.9466
 Red. masses --      2.9935                 2.7365                 2.5614
 Frc consts  --      0.3251                 0.3858                 0.3924
 IR Inten    --      6.9288                32.4722                22.5399

                     13                     14                     15
                      A                      A                      A
 Frequencies --    533.3138               595.6325               731.2078
 Red. masses --      1.4056                 2.1234                 3.0320
 Frc consts  --      0.2355                 0.4439                 0.9551
 IR Inten    --     80.8153                28.1084                 7.6066

                     16                     17                     18
                      A                      A                      A
 Frequencies --    860.6933               893.9820               924.7317
 Red. masses --      1.8550                 2.1466                 1.5181
 Frc consts  --      0.8096                 1.0108                 0.7649
 IR Inten    --     98.8506                11.8321                 0.7992

                     19                     20                     21
                      A                      A                      A
 Frequencies --    980.0961               999.9038              1053.7610
 Red. masses --      2.0646                 1.2978                 4.3258
 Frc consts  --      1.1685                 0.7645                 2.8301
 IR Inten    --     14.8508                 0.5665               219.4000

                     22                     23                     24
                      A                      A                      A
 Frequencies --   1105.2563              1109.8860              1165.3844
 Red. masses --      1.8826                 1.6710                 1.4686
 Frc consts  --      1.3550                 1.2128                 1.1751
 IR Inten    --     26.4828                11.1122                16.6708

                     25                     26                     27
                      A                      A                      A
 Frequencies --   1212.8618              1249.8370              1298.4348
 Red. masses --      2.5175                 2.5179                 1.6253
 Frc consts  --      2.1819                 2.3174                 1.6144
 IR Inten    --     74.8356                 8.7840                 6.0273

                     28                     29                     30
                      A                      A                      A
 Frequencies --   1386.0350              1396.7668              1415.7338
 Red. masses --      1.2371                 1.3066                 1.1734
 Frc consts  --      1.4002                 1.5018                 1.3856
 IR Inten    --     42.5037                41.2867                28.8097

                     31                     32                     33
                      A                      A                      A
 Frequencies --   1423.3376              1429.8689              1475.6339
 Red. masses --      1.2877                 1.5124                 1.0515
 Frc consts  --      1.5370                 1.8219                 1.3490
 IR Inten    --     31.6149                 8.3595                 1.7703

                     34                     35                     36
                      A                      A                      A
 Frequencies --   1485.6200              1502.4181              1508.0386
 Red. masses --      1.0519                 1.1033                 1.0588
 Frc consts  --      1.3679                 1.4674                 1.4187
 IR Inten    --      1.9875                 5.2989                 6.6405

                     37                     38                     39
                      A                      A                      A
 Frequencies --   1659.0658              3025.9752              3047.3499
 Red. masses --      1.0929                 1.0382                 1.0354
 Frc consts  --      1.7725                 5.6012                 5.6653
 IR Inten    --     31.7197                22.2361                11.8679

                     40                     41                     42
                      A                      A                      A
 Frequencies --   3073.1941              3091.9729              3115.6314
 Red. masses --      1.0861                 1.0996                 1.1008
 Frc consts  --      6.0439                 6.1940                 6.2960
 IR Inten    --     20.8081                32.1598                 9.2981

                     43                     44                     45
                      A                      A                      A
 Frequencies --   3119.1783              3135.4871              3499.8998
 Red. masses --      1.0997                 1.1013                 1.0495
 Frc consts  --      6.3041                 6.3791                 7.5741
 IR Inten    --     30.6366                19.0855                 1.0815

                     46                     47                     48
                      A                      A                      A
 Frequencies --   3581.2338              3721.0489              3803.4782
 Red. masses --      1.0919                 1.0649                 1.0654
 Frc consts  --      8.2507                 8.6871                 9.0812
 IR Inten    --      3.0882                67.5711                11.6995

 - Thermochemistry -
 -------------------
 Temperature   298.150 Kelvin.  Pressure   1.00000 Atm.
 Atom     1 has atomic number  6 and mass  12.00000

 Molecular mass:   105.07898 amu.
 Principal axes and moments of inertia in atomic units:
                           1         2         3
     Eigenvalues --   567.86719 783.64941 933.07535
           X            0.99263  -0.12112  -0.00308
           Y            0.12089   0.99180  -0.04140
           Z            0.00807   0.04073   0.99914
 This molecule is an asymmetric top.
 Rotational symmetry number  1.
 Warning -- assumption of classical behavior for rotation
           may cause significant error
 Rotational temperatures (Kelvin)      0.15252     0.11053     0.09283
 Rotational constants (GHZ):           3.17810     2.30300     1.93419
 Zero-point vibrational energy     415251.8 (Joules/Mol)
                                   99.24755 (Kcal/Mol)
 Warning -- explicit consideration of  14 degrees of freedom as
           vibrations may cause significant error
 Vibrational temperatures:    140.00   289.17   327.05   364.63   383.85
          (Kelvin)            403.85   485.59   517.11   519.17   617.75
                              703.78   733.70   767.32   856.98  1052.04
                             1238.34  1286.24  1330.48  1410.14  1438.64
                             1516.13  1590.22  1596.88  1676.73  1745.04
                             1798.23  1868.16  1994.19  2009.63  2036.92
                             2047.86  2057.26  2123.11  2137.47  2161.64
                             2169.73  2387.02  4353.70  4384.45  4421.64
                             4448.65  4482.69  4487.80  4511.26  5035.57
                             5152.59  5353.75  5472.35

 Zero-point correction=                           0.158161 (Hartree/Particle)
 Thermal correction to Energy=                    0.166913
 Thermal correction to Enthalpy=                  0.167857
 Thermal correction to Gibbs Free Energy=         0.126122
 Sum of electronic and zero-point Energies=           -364.115963
 Sum of electronic and thermal Energies=              -364.107212
 Sum of electronic and thermal Enthalpies=            -364.106267
 Sum of electronic and thermal Free Energies=         -364.148003

                     E (Thermal)             CV                S
                      KCal/Mol        Cal/Mol-Kelvin    Cal/Mol-Kelvin
 Total                  104.739             33.145             87.839
 Electronic               0.000              0.000              0.000
 Translational            0.889              2.981             39.866
 Rotational               0.889              2.981             27.520
 Vibrational            102.962             27.184             20.453
 Vibration     1          0.603              1.951              3.508
 Vibration     2          0.638              1.838              2.124
 Vibration     3          0.651              1.799              1.900
 Vibration     4          0.665              1.757              1.707
 Vibration     5          0.672              1.734              1.617
 Vibration     6          0.680              1.709              1.529
 Vibration     7          0.718              1.601              1.224
 Vibration     8          0.734              1.556              1.125
 Vibration     9          0.735              1.553              1.118
 Vibration    10          0.791              1.406              0.861
 Vibration    11          0.845              1.274              0.686
 Vibration    12          0.865              1.228              0.634
 Vibration    13          0.888              1.176              0.580
 Vibration    14          0.953              1.041              0.457

 Normal termination of Gaussian 09 at Thu Aug 25 00:03:01 2022.

 -----------------------------------------------------------------
 #P Geom=AllCheck Guess=TCheck SCRF=Check CCSD(T,E4T,FrzG4)/GTBas1
 -----------------------------------------------------------------

 Structure from the checkpoint file:  "G4.Frag_911.chk"
 --------
 Frag_911
 --------
 Charge =  0 Multiplicity = 1

 SCF Done:  E(RHF) =  -362.031710516     A.U. after   11 cycles
 E2 =    -0.1054018312D+01 EUMP2 =    -0.36308572882772D+03
 CCSD(T)
 CCSD(T)= -0.36317699644D+03
 8335\CCSD(T)=-363.1769964\RMSD=7.475e-09\PG=C01 [X(C4H11N1O2)]\\@
 Normal termination of Gaussian 09 at Thu Aug 25 00:19:20 2022.

 ---------------------------------------------------------
 #P Geom=AllCheck Guess=TCheck SCRF=Check MP4=FrzG4/GTBas2
 ---------------------------------------------------------

 Structure from the checkpoint file:  "G4.Frag_911.chk"
 --------
 Frag_911
 --------
 Charge =  0 Multiplicity = 1

 SCF Done:  E(RHF) =  -362.043741101     A.U. after   11 cycles
 E2 =    -0.1072581903D+01 EUMP2 =    -0.36311632300426D+03
 Normal termination of Gaussian 09 at Thu Aug 25 00:44:16 2022.

 ---------------------------------------------------------
 #P Geom=AllCheck Guess=TCheck SCRF=Check MP4=FrzG4/GTBas3
 ---------------------------------------------------------

 Structure from the checkpoint file:  "G4.Frag_911.chk"
 --------
 Frag_911
 --------
 Charge =  0 Multiplicity = 1

 SCF Done:  E(RHF) =  -362.083793689     A.U. after   10 cycles
 E2 =    -0.1310819453D+01 EUMP2 =    -0.36339461314201D+03
 Normal termination of Gaussian 09 at Thu Aug 25 06:24:21 2022.

 -----------------------------------------------------------
 #P Geom=AllCheck Guess=TCheck SCRF=Check MP2=Full/GTLargeXP
 -----------------------------------------------------------

 Structure from the checkpoint file:  "G4.Frag_911.chk"
 --------
 Frag_911
 --------
 Charge =  0 Multiplicity = 1

 SCF Done:  E(RHF) =  -362.180190420     A.U. after   12 cycles
 E2 =    -0.1711121168D+01 EUMP2 =    -0.36389131158778D+03
 Normal termination of Gaussian 09 at Thu Aug 25 06:39:04 2022.
 SCF Done:  E(RHF) =  -362.209168918     A.U. after    8 cycles
 Normal termination of Gaussian 09 at Thu Aug 25 06:49:27 2022.

                         Standard orientation:
 ---------------------------------------------------------------------
 Center     Atomic      Atomic             Coordinates (Angstroms)
 Number     Number       Type             X           Y           Z
 ---------------------------------------------------------------------
      1          6           0       -1.528403    0.999936   -0.607457
      2          6           0       -0.628361   -0.089466   -0.025608
      3          6           0       -0.788763   -0.162700    1.505412
      4          8           0       -1.034774   -1.321549   -0.609154
      5          6           0        0.847626    0.159099   -0.440086
      6          7           0        1.646939   -1.006616   -0.089951
      7          8           0        1.359920    1.399755    0.024964
      8          1           0       -1.455478    1.002278   -1.698701
      9          1           0       -2.570802    0.807737   -0.338072
     10          1           0       -1.238717    1.985438   -0.236136
     11          1           0       -0.528901    0.780669    2.000237
     12          1           0       -1.832261   -0.383169    1.743797
     13          1           0       -0.181810   -0.965476    1.937392
     14          1           0       -0.262232   -1.901693   -0.542966
     15          1           0        0.869943    0.242044   -1.531147
     16          1           0        1.799773   -1.052533    0.913645
     17          1           0        2.561452   -0.946430   -0.524868
     18          1           0        1.296705    1.410582    0.986431
 ---------------------------------------------------------------------

 SCF Done:  E(RHF) =  -362.215579436     A.U. after    8 cycles

 The electronic state is 1-A.
 Alpha  occ. eigenvalues --  -20.56620 -20.54193 -15.56103 -11.31372 -11.28755
 Alpha  occ. eigenvalues --  -11.22365 -11.20879  -1.38301  -1.35427  -1.18731
 Alpha  occ. eigenvalues --   -1.04897  -0.94481  -0.90377  -0.77987  -0.72914
 Alpha  occ. eigenvalues --   -0.68193  -0.66103  -0.63401  -0.62223  -0.58553
 Alpha  occ. eigenvalues --   -0.55270  -0.54898  -0.53380  -0.52610  -0.51538
 Alpha  occ. eigenvalues --   -0.50748  -0.45486  -0.42953  -0.42435
 Alpha virt. eigenvalues --    0.02947   0.04162   0.04289   0.05437   0.06324
 Alpha virt. eigenvalues --    0.06828   0.07112   0.07316   0.07654   0.09592
 Alpha virt. eigenvalues --    0.10218   0.10488   0.11012   0.11803   0.12039

 Mulliken charges:
               1
     1  C   -0.558582
     2  C    0.429991
     3  C   -0.608213
     4  O   -0.639843
     5  C    0.134083
     6  N   -0.739715
     7  O   -0.578460
     8  H    0.163851
     9  H    0.174425
    10  H    0.185667
    11  H    0.163366
    12  H    0.190702
    13  H    0.166579
    14  H    0.401746
    15  H    0.177576
    16  H    0.277205
    17  H    0.302461
    18  H    0.357161
 Sum of Mulliken charges =  -0.00000

 Dipole moment (field-independent basis, Debye):
    X=              1.6905    Y=              0.1584    Z=              2.0237  Tot=              2.6417
 Quadrupole moment (field-independent basis, Debye-Ang):
   XX=            -44.2220   YY=            -48.8861   ZZ=            -41.6297
   XY=             -5.3884   XZ=             -0.0550   YZ=              0.1422

 Normal termination of Gaussian 09 at Thu Aug 25 11:57:22 2022.
