 Gaussian 09, Revision E.01,
 Gaussian 09:  ES64L-G09RevE.01 30-Nov-2015

 -----
 #P G4
 -----

 --------
 Frag_505
 --------
 Symbolic Z-matrix:
 Charge =  0 Multiplicity = 1

 SCF Done:  E(RB3LYP) =  -287.791273000     A.U. after   12 cycles
 SCF Done:  E(RB3LYP) =  -287.814690841     A.U. after   12 cycles
 SCF Done:  E(RB3LYP) =  -287.817828873     A.U. after   11 cycles
 SCF Done:  E(RB3LYP) =  -287.818197876     A.U. after   10 cycles
 SCF Done:  E(RB3LYP) =  -287.818398727     A.U. after   10 cycles
 SCF Done:  E(RB3LYP) =  -287.818590334     A.U. after   11 cycles
 SCF Done:  E(RB3LYP) =  -287.818744932     A.U. after   10 cycles
 SCF Done:  E(RB3LYP) =  -287.818980288     A.U. after   11 cycles
 SCF Done:  E(RB3LYP) =  -287.819273599     A.U. after   11 cycles
 SCF Done:  E(RB3LYP) =  -287.819483234     A.U. after   11 cycles
 SCF Done:  E(RB3LYP) =  -287.820793856     A.U. after    7 cycles
 SCF Done:  E(RB3LYP) =  -287.820794592     A.U. after    7 cycles
 SCF Done:  E(RB3LYP) =  -287.820794698     A.U. after    7 cycles
 Optimization completed.
    -- Stationary point found.
 Normal termination of Gaussian 09 at Tue Aug 30 10:52:17 2022.

 ----------------------------------------------------------
 #P Geom=AllCheck Guess=TCheck SCRF=Check B3LYP/GTBas3 Freq
 ----------------------------------------------------------

 Structure from the checkpoint file:  "G4.Frag_505.chk"
 --------
 Frag_505
 --------
 Charge =  0 Multiplicity = 1

 SCF Done:  E(RB3LYP) =  -287.820794698     A.U. after    1 cycles

  Exact polarizability:  75.009  -0.841  58.075   1.132  -0.637  38.375
 Approx polarizability: 110.648  -9.723  80.878   0.917  -0.267  57.354

                      1                      2                      3
                      A                      A                      A
 Frequencies --    134.4945               149.3019               158.9537
 Red. masses --      1.1396                 1.1981                 1.9099
 Frc consts  --      0.0121                 0.0157                 0.0284
 IR Inten    --      0.3164                 0.7727                 2.6082

                      4                      5                      6
                      A                      A                      A
 Frequencies --    244.6207               308.9020               325.5574
 Red. masses --      1.2879                 1.3849                 1.5479
 Frc consts  --      0.0454                 0.0779                 0.0967
 IR Inten    --     21.3798                48.8762                48.6972

                      7                      8                      9
                      A                      A                      A
 Frequencies --    356.0421               398.3604               450.9922
 Red. masses --      3.3035                 2.2697                 2.7156
 Frc consts  --      0.2467                 0.2122                 0.3254
 IR Inten    --      9.5249                15.4316                21.7573

                     10                     11                     12
                      A                      A                      A
 Frequencies --    541.3301               551.0428               723.3870
 Red. masses --      3.5915                 3.2662                 4.2447
 Frc consts  --      0.6201                 0.5843                 1.3087
 IR Inten    --      0.6642                 4.0883                 3.3492

                     13                     14                     15
                      A                      A                      A
 Frequencies --    791.2941               938.1867              1009.1528
 Red. masses --      1.3681                 2.2051                 1.4533
 Frc consts  --      0.5047                 1.1436                 0.8720
 IR Inten    --    224.8594                 8.2457                15.8400

                     16                     17                     18
                      A                      A                      A
 Frequencies --   1031.4530              1063.1968              1069.3765
 Red. masses --      1.4761                 1.4711                 1.5214
 Frc consts  --      0.9252                 0.9798                 1.0251
 IR Inten    --     13.5280                 5.2876                 7.6619

                     19                     20                     21
                      A                      A                      A
 Frequencies --   1170.7638              1237.5577              1304.5129
 Red. masses --      1.5708                 3.7134                 1.8411
 Frc consts  --      1.2685                 3.3509                 1.8460
 IR Inten    --     96.6001               106.7284                44.9808

                     22                     23                     24
                      A                      A                      A
 Frequencies --   1354.5253              1408.7690              1430.4067
 Red. masses --      1.8329                 1.2535                 1.5419
 Frc consts  --      1.9814                 1.4657                 1.8588
 IR Inten    --     15.2478                 4.4879                 1.0693

                     25                     26                     27
                      A                      A                      A
 Frequencies --   1477.8807              1479.8207              1490.6425
 Red. masses --      1.0602                 1.0573                 1.0615
 Frc consts  --      1.3643                 1.3641                 1.3897
 IR Inten    --      4.4564                 0.8700                 4.6100

                     28                     29                     30
                      A                      A                      A
 Frequencies --   1496.5136              1646.0237              1767.8880
 Red. masses --      1.0511                 1.1119                 6.8242
 Frc consts  --      1.3869                 1.7749                12.5665
 IR Inten    --      5.8528                35.9568                 7.9018

                     31                     32                     33
                      A                      A                      A
 Frequencies --   3013.5731              3023.4786              3059.8900
 Red. masses --      1.0377                 1.0409                 1.0989
 Frc consts  --      5.5524                 5.6065                 6.0622
 IR Inten    --     46.0041                29.0966                23.9674

                     34                     35                     36
                      A                      A                      A
 Frequencies --   3079.1826              3094.6621              3114.5226
 Red. masses --      1.0947                 1.0990                 1.0997
 Frc consts  --      6.1152                 6.2010                 6.2849
 IR Inten    --     16.9881                27.0136                22.5377

                     37                     38                     39
                      A                      A                      A
 Frequencies --   3487.3880              3610.8890              3838.2820
 Red. masses --      1.0530                 1.0883                 1.0649
 Frc consts  --      7.5456                 8.3601                 9.2438
 IR Inten    --      2.3025                 0.9846                19.1009

 - Thermochemistry -
 -------------------
 Temperature   298.150 Kelvin.  Pressure   1.00000 Atm.
 Atom     1 has atomic number  6 and mass  12.00000

 Molecular mass:    87.06841 amu.
 Principal axes and moments of inertia in atomic units:
                           1         2         3
     Eigenvalues --   376.91159 576.73384 925.07924
           X            0.99069   0.13601   0.00651
           Y           -0.13594   0.99066  -0.01052
           Z           -0.00788   0.00953   0.99992
 This molecule is an asymmetric top.
 Rotational symmetry number  1.
 Rotational temperatures (Kelvin)      0.22980     0.15018     0.09363
 Rotational constants (GHZ):           4.78823     3.12924     1.95090
 Zero-point vibrational energy     339935.7 (Joules/Mol)
                                   81.24659 (Kcal/Mol)
 Warning -- explicit consideration of  11 degrees of freedom as
           vibrations may cause significant error
 Vibrational temperatures:    193.51   214.81   228.70   351.95   444.44
          (Kelvin)            468.40   512.26   573.15   648.88   778.85
                              792.83  1040.79  1138.49  1349.84  1451.94
                             1484.03  1529.70  1538.59  1684.47  1780.57
                             1876.90  1948.86  2026.90  2058.03  2126.34
                             2129.13  2144.70  2153.15  2368.26  2543.59
                             4335.85  4350.11  4402.49  4430.25  4452.52
                             4481.10  5017.57  5195.26  5522.42

 Zero-point correction=                           0.129475 (Hartree/Particle)
 Thermal correction to Energy=                    0.137304
 Thermal correction to Enthalpy=                  0.138248
 Thermal correction to Gibbs Free Energy=         0.098429
 Sum of electronic and zero-point Energies=           -287.691320
 Sum of electronic and thermal Energies=              -287.683491
 Sum of electronic and thermal Enthalpies=            -287.682546
 Sum of electronic and thermal Free Energies=         -287.722366

                     E (Thermal)             CV                S
                      KCal/Mol        Cal/Mol-Kelvin    Cal/Mol-Kelvin
 Total                   86.160             27.915             83.807
 Electronic               0.000              0.000              0.000
 Translational            0.889              2.981             39.305
 Rotational               0.889              2.981             26.800
 Vibrational             84.382             21.953             17.702
 Vibration     1          0.613              1.919              2.881
 Vibration     2          0.618              1.903              2.681
 Vibration     3          0.621              1.893              2.562
 Vibration     4          0.660              1.772              1.769
 Vibration     5          0.698              1.657              1.368
 Vibration     6          0.710              1.624              1.282
 Vibration     7          0.732              1.563              1.139
 Vibration     8          0.765              1.474              0.969
 Vibration     9          0.810              1.359              0.793
 Vibration    10          0.896              1.159              0.562
 Vibration    11          0.906              1.137              0.542

 Optimization completed.
    -- Stationary point found.
 Normal termination of Gaussian 09 at Tue Aug 30 10:52:51 2022.

 -----------------------------------------------------------------
 #P Geom=AllCheck Guess=TCheck SCRF=Check CCSD(T,E4T,FrzG4)/GTBas1
 -----------------------------------------------------------------

 Structure from the checkpoint file:  "G4.Frag_505.chk"
 --------
 Frag_505
 --------
 Charge =  0 Multiplicity = 1

 SCF Done:  E(RHF) =  -285.983547713     A.U. after   12 cycles
 E2 =    -0.8630222499D+00 EUMP2 =    -0.28684656996316D+03
 CCSD(T)
 CCSD(T)= -0.28692757523D+03
 96092\CCSD(T)=-286.9275752\RMSD=8.498e-09\PG=C01 [X(C4H9N1O1)]\\@
 Normal termination of Gaussian 09 at Tue Aug 30 10:54:54 2022.

 ---------------------------------------------------------
 #P Geom=AllCheck Guess=TCheck SCRF=Check MP4=FrzG4/GTBas2
 ---------------------------------------------------------

 Structure from the checkpoint file:  "G4.Frag_505.chk"
 --------
 Frag_505
 --------
 Charge =  0 Multiplicity = 1

 SCF Done:  E(RHF) =  -285.992616157     A.U. after   12 cycles
 E2 =    -0.8759017684D+00 EUMP2 =    -0.28686851792568D+03
 Normal termination of Gaussian 09 at Tue Aug 30 10:55:31 2022.

 ---------------------------------------------------------
 #P Geom=AllCheck Guess=TCheck SCRF=Check MP4=FrzG4/GTBas3
 ---------------------------------------------------------

 Structure from the checkpoint file:  "G4.Frag_505.chk"
 --------
 Frag_505
 --------
 Charge =  0 Multiplicity = 1

 SCF Done:  E(RHF) =  -286.025889089     A.U. after   11 cycles
 E2 =    -0.1063693608D+01 EUMP2 =    -0.28708958269680D+03
 Normal termination of Gaussian 09 at Tue Aug 30 10:59:19 2022.

 -----------------------------------------------------------
 #P Geom=AllCheck Guess=TCheck SCRF=Check MP2=Full/GTLargeXP
 -----------------------------------------------------------

 Structure from the checkpoint file:  "G4.Frag_505.chk"
 --------
 Frag_505
 --------
 Charge =  0 Multiplicity = 1

 SCF Done:  E(RHF) =  -286.098714457     A.U. after   12 cycles
 E2 =    -0.1396788694D+01 EUMP2 =    -0.28749550315102D+03
 Normal termination of Gaussian 09 at Tue Aug 30 11:01:26 2022.
 SCF Done:  E(RHF) =  -286.121963745     A.U. after    9 cycles
 Normal termination of Gaussian 09 at Tue Aug 30 11:03:46 2022.

                         Standard orientation:
 ---------------------------------------------------------------------
 Center     Atomic      Atomic             Coordinates (Angstroms)
 Number     Number       Type             X           Y           Z
 ---------------------------------------------------------------------
      1          6           0       -1.719175   -0.925881   -0.046808
      2          6           0       -0.650489    0.134060   -0.006544
      3          7           0       -1.181487    1.443635    0.150953
      4          6           0        0.665230   -0.135344   -0.016350
      5          6           0        1.776783    0.868638   -0.057083
      6          8           0        1.185678   -1.415722    0.036477
      7          1           0       -1.349618   -1.885687   -0.420213
      8          1           0       -2.526377   -0.621966   -0.726172
      9          1           0       -2.180756   -1.085888    0.935350
     10          1           0       -0.468993    2.161096    0.178524
     11          1           0       -1.847748    1.675287   -0.580337
     12          1           0        1.450426    1.828816   -0.464672
     13          1           0        2.579484    0.486574   -0.696616
     14          1           0        2.213143    1.046769    0.933825
     15          1           0        0.481331   -2.033511    0.252533
 ---------------------------------------------------------------------

 SCF Done:  E(RHF) =  -286.126886926     A.U. after    8 cycles

 The electronic state is 1-A.
 Alpha  occ. eigenvalues --  -20.56846 -15.55258 -11.27399 -11.25059 -11.22880
 Alpha  occ. eigenvalues --  -11.22176  -1.38201  -1.20060  -1.02703  -0.99382
 Alpha  occ. eigenvalues --   -0.88484  -0.76405  -0.70929  -0.65746  -0.61121
 Alpha  occ. eigenvalues --   -0.60083  -0.56518  -0.55576  -0.55059  -0.53195
 Alpha  occ. eigenvalues --   -0.52636  -0.50398  -0.45441  -0.29394
 Alpha virt. eigenvalues --    0.03666   0.03910   0.05081   0.05741   0.06297
 Alpha virt. eigenvalues --    0.07042   0.07110   0.08428   0.09071   0.09316
 Alpha virt. eigenvalues --    0.09829   0.10807   0.13009   0.13259   0.13404

 Mulliken charges:
               1
     1  C   -0.535004
     2  C    0.139966
     3  N   -0.739869
     4  C    0.202302
     5  C   -0.515076
     6  O   -0.565795
     7  H    0.164061
     8  H    0.161449
     9  H    0.185966
    10  H    0.301538
    11  H    0.298595
    12  H    0.159558
    13  H    0.194518
    14  H    0.177359
    15  H    0.370433
 Sum of Mulliken charges =  -0.00000

 Dipole moment (field-independent basis, Debye):
    X=             -1.0610    Y=              0.4997    Z=             -0.7497  Tot=              1.3919
 Quadrupole moment (field-independent basis, Debye-Ang):
   XX=            -39.0684   YY=            -33.9296   ZZ=            -39.7149
   XY=              4.0171   XZ=              2.5347   YZ=             -2.6948

 Normal termination of Gaussian 09 at Tue Aug 30 11:11:28 2022.
