 Gaussian 09, Revision E.01,
 Gaussian 09:  ES64L-G09RevE.01 30-Nov-2015

 -----
 #P G4
 -----

 --------
 Frag_848
 --------
 Symbolic Z-matrix:
 Charge =  0 Multiplicity = 1

 SCF Done:  E(RB3LYP) =  -269.060524334     A.U. after   15 cycles
 SCF Done:  E(RB3LYP) =  -269.069222001     A.U. after   12 cycles
 SCF Done:  E(RB3LYP) =  -269.070221375     A.U. after   12 cycles
 SCF Done:  E(RB3LYP) =  -269.070695806     A.U. after   12 cycles
 SCF Done:  E(RB3LYP) =  -269.070752721     A.U. after   11 cycles
 SCF Done:  E(RB3LYP) =  -269.070792397     A.U. after   10 cycles
 SCF Done:  E(RB3LYP) =  -269.070794287     A.U. after    8 cycles
 SCF Done:  E(RB3LYP) =  -269.070794780     A.U. after    7 cycles
 SCF Done:  E(RB3LYP) =  -269.070794923     A.U. after    7 cycles
 Optimization completed.
    -- Stationary point found.
 Normal termination of Gaussian 09 at Fri Aug 26 06:35:18 2022.

 ----------------------------------------------------------
 #P Geom=AllCheck Guess=TCheck SCRF=Check B3LYP/GTBas3 Freq
 ----------------------------------------------------------

 Structure from the checkpoint file:  "G4.Frag_848.chk"
 --------
 Frag_848
 --------
 Charge =  0 Multiplicity = 1

 SCF Done:  E(RB3LYP) =  -269.070794923     A.U. after    1 cycles

  Exact polarizability:  71.873   0.005  58.947   2.643   0.003  59.936
 Approx polarizability:  98.686   0.008  81.748   4.695   0.011  90.573

                      1                      2                      3
                      A                      A                      A
 Frequencies --     87.0822               199.6208               233.7588
 Red. masses --      1.7161                 1.1718                 1.0239
 Frc consts  --      0.0077                 0.0275                 0.0330
 IR Inten    --     22.6483                 4.9942                 1.2319

                      4                      5                      6
                      A                      A                      A
 Frequencies --    242.5858               253.7409               270.4340
 Red. masses --      1.0398                 1.1813                 2.4961
 Frc consts  --      0.0361                 0.0448                 0.1076
 IR Inten    --      0.2714                 6.8976                15.5918

                      7                      8                      9
                      A                      A                      A
 Frequencies --    340.0542               358.4609               401.7544
 Red. masses --      2.3614                 2.2711                 2.2735
 Frc consts  --      0.1609                 0.1719                 0.2162
 IR Inten    --      5.3450                 7.8943                 3.9655

                     10                     11                     12
                      A                      A                      A
 Frequencies --    460.2398               509.9830               701.9018
 Red. masses --      2.7363                 2.5191                 3.9831
 Frc consts  --      0.3415                 0.3860                 1.1562
 IR Inten    --     17.9285                 7.1002                 9.5137

                     13                     14                     15
                      A                      A                      A
 Frequencies --    776.8247               867.4755               908.7841
 Red. masses --      5.0031                 1.7949                 2.0727
 Frc consts  --      1.7788                 0.7958                 1.0086
 IR Inten    --     15.3312                 1.3267                17.3230

                     16                     17                     18
                      A                      A                      A
 Frequencies --    919.6879               938.4470              1016.3420
 Red. masses --      1.9851                 1.2048                 1.4199
 Frc consts  --      0.9893                 0.6251                 0.8641
 IR Inten    --      5.9905                 0.0159                 6.4963

                     19                     20                     21
                      A                      A                      A
 Frequencies --   1026.0030              1073.0482              1141.1897
 Red. masses --      1.3786                 1.2764                 1.5600
 Frc consts  --      0.8550                 0.8659                 1.1970
 IR Inten    --      1.5136                10.5981                12.3070

                     22                     23                     24
                      A                      A                      A
 Frequencies --   1213.2975              1230.5447              1266.2114
 Red. masses --      2.5074                 2.6683                 2.9478
 Frc consts  --      2.1748                 2.3806                 2.7846
 IR Inten    --     25.9899                47.6437                 3.7161

                     25                     26                     27
                      A                      A                      A
 Frequencies --   1374.8217              1381.2533              1409.9997
 Red. masses --      1.2319                 1.2574                 1.2372
 Frc consts  --      1.3719                 1.4134                 1.4493
 IR Inten    --      6.3537                 4.8346                 5.2617

                     28                     29                     30
                      A                      A                      A
 Frequencies --   1461.2465              1468.7154              1475.3824
 Red. masses --      1.1163                 1.0519                 1.0487
 Frc consts  --      1.4044                 1.3369                 1.3449
 IR Inten    --     13.8133                 0.0014                 0.8610

                     31                     32                     33
                      A                      A                      A
 Frequencies --   1484.1113              1499.8174              1502.8525
 Red. masses --      1.0544                 1.0571                 1.0554
 Frc consts  --      1.3684                 1.4010                 1.4044
 IR Inten    --      1.0746                 1.3749                 3.1891

                     34                     35                     36
                      A                      A                      A
 Frequencies --   1519.6157              1609.6947              1664.3833
 Red. masses --      1.0609                 1.0605                 1.0517
 Frc consts  --      1.4434                 1.6189                 1.7166
 IR Inten    --      5.6931                12.7776                54.3217

                     37                     38                     39
                      A                      A                      A
 Frequencies --   2989.7102              2996.8240              3032.4553
 Red. masses --      1.0472                 1.0470                 1.0355
 Frc consts  --      5.5148                 5.5401                 5.6106
 IR Inten    --     16.4302                65.1952                15.3935

                     40                     41                     42
                      A                      A                      A
 Frequencies --   3052.9174              3060.8452              3080.9710
 Red. masses --      1.0867                 1.0842                 1.0933
 Frc consts  --      5.9673                 5.9848                 6.1146
 IR Inten    --      4.2641                84.5841                39.8592

                     43                     44                     45
                      A                      A                      A
 Frequencies --   3099.8115              3099.8810              3106.4626
 Red. masses --      1.1005                 1.1011                 1.0989
 Frc consts  --      6.2301                 6.2338                 6.2480
 IR Inten    --      5.1873                 6.9780                75.4270

                     46                     47                     48
                      A                      A                      A
 Frequencies --   3111.5720              3127.8309              3519.9219
 Red. masses --      1.1010                 1.0369                 1.0770
 Frc consts  --      6.2805                 5.9771                 7.8622
 IR Inten    --     37.2677               161.7024                45.5238

 - Thermochemistry -
 -------------------
 Temperature   298.150 Kelvin.  Pressure   1.00000 Atm.
 Atom     1 has atomic number  6 and mass  12.00000

 Molecular mass:    88.10005 amu.
 Principal axes and moments of inertia in atomic units:
                           1         2         3
     Eigenvalues --   412.96464 676.07979 677.98399
           X            0.99939   0.03502  -0.00005
           Y           -0.00002   0.00228   1.00000
           Z           -0.03502   0.99938  -0.00227
 This molecule is an asymmetric top.
 Rotational symmetry number  1.
 Rotational temperatures (Kelvin)      0.20974     0.12811     0.12775
 Rotational constants (GHZ):           4.37021     2.66942     2.66192
 Zero-point vibrational energy     428075.1 (Joules/Mol)
                                  102.31241 (Kcal/Mol)
 Warning -- explicit consideration of  11 degrees of freedom as
           vibrations may cause significant error
 Vibrational temperatures:    125.29   287.21   336.33   349.03   365.08
          (Kelvin)            389.09   489.26   515.74   578.03   662.18
                              733.75  1009.88  1117.68  1248.10  1307.54
                             1323.22  1350.21  1462.29  1476.19  1543.88
                             1641.92  1745.66  1770.48  1821.79  1978.06
                             1987.31  2028.67  2102.41  2113.15  2122.74
                             2135.30  2157.90  2162.27  2186.39  2315.99
                             2394.67  4301.52  4311.76  4363.02  4392.46
                             4403.87  4432.82  4459.93  4460.03  4469.50
                             4476.85  4500.25  5064.38

 Zero-point correction=                           0.163045 (Hartree/Particle)
 Thermal correction to Energy=                    0.171282
 Thermal correction to Enthalpy=                  0.172226
 Thermal correction to Gibbs Free Energy=         0.131745
 Sum of electronic and zero-point Energies=           -268.907750
 Sum of electronic and thermal Energies=              -268.899513
 Sum of electronic and thermal Enthalpies=            -268.898568
 Sum of electronic and thermal Free Energies=         -268.939050

                     E (Thermal)             CV                S
                      KCal/Mol        Cal/Mol-Kelvin    Cal/Mol-Kelvin
 Total                  107.481             30.248             85.201
 Electronic               0.000              0.000              0.000
 Translational            0.889              2.981             39.340
 Rotational               0.889              2.981             26.740
 Vibrational            105.704             24.286             19.120
 Vibration     1          0.601              1.958              3.725
 Vibration     2          0.638              1.840              2.137
 Vibration     3          0.654              1.789              1.850
 Vibration     4          0.659              1.775              1.784
 Vibration     5          0.665              1.756              1.704
 Vibration     6          0.674              1.728              1.593
 Vibration     7          0.720              1.595              1.212
 Vibration     8          0.733              1.558              1.129
 Vibration     9          0.767              1.466              0.956
 Vibration    10          0.818              1.338              0.765
 Vibration    11          0.865              1.228              0.634

 Normal termination of Gaussian 09 at Fri Aug 26 06:36:01 2022.

 -----------------------------------------------------------------
 #P Geom=AllCheck Guess=TCheck SCRF=Check CCSD(T,E4T,FrzG4)/GTBas1
 -----------------------------------------------------------------

 Structure from the checkpoint file:  "G4.Frag_848.chk"
 --------
 Frag_848
 --------
 Charge =  0 Multiplicity = 1

 SCF Done:  E(RHF) =  -267.228576708     A.U. after   12 cycles
 E2 =    -0.8660351990D+00 EUMP2 =    -0.26809461190726D+03
 CCSD(T)
 CCSD(T)= -0.26818973299D+03
 957\CCSD(T)=-268.189733\RMSD=5.565e-09\PG=C01 [X(C4H12N2)]\\@
 Normal termination of Gaussian 09 at Fri Aug 26 06:39:02 2022.

 ---------------------------------------------------------
 #P Geom=AllCheck Guess=TCheck SCRF=Check MP4=FrzG4/GTBas2
 ---------------------------------------------------------

 Structure from the checkpoint file:  "G4.Frag_848.chk"
 --------
 Frag_848
 --------
 Charge =  0 Multiplicity = 1

 SCF Done:  E(RHF) =  -267.238885731     A.U. after   12 cycles
 E2 =    -0.8801441601D+00 EUMP2 =    -0.26811902989087D+03
 Normal termination of Gaussian 09 at Fri Aug 26 06:39:57 2022.

 ---------------------------------------------------------
 #P Geom=AllCheck Guess=TCheck SCRF=Check MP4=FrzG4/GTBas3
 ---------------------------------------------------------

 Structure from the checkpoint file:  "G4.Frag_848.chk"
 --------
 Frag_848
 --------
 Charge =  0 Multiplicity = 1

 SCF Done:  E(RHF) =  -267.266655103     A.U. after   11 cycles
 E2 =    -0.1075083092D+01 EUMP2 =    -0.26834173819558D+03
 Normal termination of Gaussian 09 at Fri Aug 26 06:45:38 2022.

 -----------------------------------------------------------
 #P Geom=AllCheck Guess=TCheck SCRF=Check MP2=Full/GTLargeXP
 -----------------------------------------------------------

 Structure from the checkpoint file:  "G4.Frag_848.chk"
 --------
 Frag_848
 --------
 Charge =  0 Multiplicity = 1

 SCF Done:  E(RHF) =  -267.333020976     A.U. after   12 cycles
 E2 =    -0.1406240950D+01 EUMP2 =    -0.26873926192579D+03
 Normal termination of Gaussian 09 at Fri Aug 26 06:48:25 2022.
 SCF Done:  E(RHF) =  -267.353953320     A.U. after    9 cycles
 Normal termination of Gaussian 09 at Fri Aug 26 06:51:38 2022.

                         Standard orientation:
 ---------------------------------------------------------------------
 Center     Atomic      Atomic             Coordinates (Angstroms)
 Number     Number       Type             X           Y           Z
 ---------------------------------------------------------------------
      1          6           0       -1.611513   -0.001450   -0.951767
      2          6           0       -0.387158    0.000055   -0.025111
      3          6           0       -0.447844    1.264562    0.874491
      4          6           0       -0.447124   -1.262631    0.877201
      5          7           0        0.743329   -0.000491   -0.945981
      6          7           0        1.959768   -0.000184   -0.166711
      7          1           0       -1.591280    0.880631   -1.598538
      8          1           0       -2.546811   -0.000202   -0.381853
      9          1           0       -1.591704   -0.885872   -1.595338
     10          1           0       -1.354252    1.290640    1.490046
     11          1           0       -0.423472    2.165459    0.253511
     12          1           0        0.394215    1.318277    1.581003
     13          1           0       -1.354265   -1.288465    1.491671
     14          1           0        0.393944   -1.313763    1.585113
     15          1           0       -0.420876   -2.164812    0.258154
     16          1           0        2.718930   -0.001066   -0.845004
     17          1           0        2.107412   -0.824010    0.451302
     18          1           0        2.108324    0.824690    0.449891
 ---------------------------------------------------------------------

 SCF Done:  E(RHF) =  -267.358535313     A.U. after    8 cycles

 The electronic state is 1-A.
 Alpha  occ. eigenvalues --  -15.68157 -15.48043 -11.23137 -11.19841 -11.19837
 Alpha  occ. eigenvalues --  -11.18304  -1.30425  -1.09550  -0.95527  -0.91744
 Alpha  occ. eigenvalues --   -0.90666  -0.75534  -0.72828  -0.70672  -0.61771
 Alpha  occ. eigenvalues --   -0.58240  -0.57165  -0.53619  -0.52297  -0.49511
 Alpha  occ. eigenvalues --   -0.49469  -0.45132  -0.44445  -0.37722  -0.29300
 Alpha virt. eigenvalues --    0.02324   0.04229   0.04285   0.04977   0.06788
 Alpha virt. eigenvalues --    0.06866   0.07083   0.07799   0.07906   0.09889
 Alpha virt. eigenvalues --    0.10250   0.10289   0.10571   0.12641   0.13208

 Mulliken charges:
               1
     1  C   -0.582702
     2  C    0.462384
     3  C   -0.582219
     4  C   -0.582580
     5  N   -0.681168
     6  N   -0.459399
     7  H    0.170895
     8  H    0.150880
     9  H    0.170707
    10  H    0.163168
    11  H    0.176477
    12  H    0.113794
    13  H    0.163250
    14  H    0.113890
    15  H    0.176500
    16  H    0.368737
    17  H    0.328736
    18  H    0.328650
 Sum of Mulliken charges =  -0.00000

 Dipole moment (field-independent basis, Debye):
    X=              3.8371    Y=              0.0008    Z=              2.7945  Tot=              4.7469
 Quadrupole moment (field-independent basis, Debye-Ang):
   XX=            -28.0921   YY=            -41.6167   ZZ=            -45.6550
   XY=              0.0002   XZ=              1.6849   YZ=             -0.0023

 Normal termination of Gaussian 09 at Fri Aug 26 07:01:52 2022.
