 Gaussian 09, Revision E.01,
 Gaussian 09:  ES64L-G09RevE.01 30-Nov-2015

 -----
 #P G4
 -----

 --------
 Frag_551
 --------
 Symbolic Z-matrix:
 Charge =  0 Multiplicity = 1

 SCF Done:  E(RB3LYP) =  -229.844051253     A.U. after   12 cycles
 SCF Done:  E(RB3LYP) =  -229.850295474     A.U. after   11 cycles
 SCF Done:  E(RB3LYP) =  -229.850988879     A.U. after   10 cycles
 SCF Done:  E(RB3LYP) =  -229.851233422     A.U. after   10 cycles
 SCF Done:  E(RB3LYP) =  -229.851257369     A.U. after    9 cycles
 SCF Done:  E(RB3LYP) =  -229.851263714     A.U. after    8 cycles
 SCF Done:  E(RB3LYP) =  -229.851264558     A.U. after    7 cycles
 SCF Done:  E(RB3LYP) =  -229.851264765     A.U. after    6 cycles
 Optimization completed.
    -- Stationary point found.
 Normal termination of Gaussian 09 at Sun Aug 21 22:39:04 2022.

 ----------------------------------------------------------
 #P Geom=AllCheck Guess=TCheck SCRF=Check B3LYP/GTBas3 Freq
 ----------------------------------------------------------

 Structure from the checkpoint file:  "G4.Frag_551.chk"
 --------
 Frag_551
 --------
 Charge =  0 Multiplicity = 1

 SCF Done:  E(RB3LYP) =  -229.851264765     A.U. after    1 cycles

  Exact polarizability:  57.592   0.327  48.423   0.677  -0.516  43.440
 Approx polarizability:  72.024   0.495  65.705   0.666  -1.884  64.293

                      1                      2                      3
                      A                      A                      A
 Frequencies --    116.9201               217.1343               231.5429
 Red. masses --      1.8614                 1.1086                 1.1263
 Frc consts  --      0.0150                 0.0308                 0.0356
 IR Inten    --      2.8609                 0.2008                 4.9436

                      4                      5                      6
                      A                      A                      A
 Frequencies --    274.1675               310.8554               402.5410
 Red. masses --      2.3516                 1.1417                 2.3890
 Frc consts  --      0.1041                 0.0650                 0.2281
 IR Inten    --      4.1330                26.1348                 4.1892

                      7                      8                      9
                      A                      A                      A
 Frequencies --    449.6785               521.9286               747.9081
 Red. masses --      2.3539                 2.8290                 1.7075
 Frc consts  --      0.2804                 0.4540                 0.5627
 IR Inten    --      2.2609                12.0135                76.6917

                     10                     11                     12
                      A                      A                      A
 Frequencies --    857.9010               863.8582               957.5037
 Red. masses --      1.4042                 1.4866                 1.7765
 Frc consts  --      0.6089                 0.6536                 0.9596
 IR Inten    --     73.6612                82.6339                16.0048

                     13                     14                     15
                      A                      A                      A
 Frequencies --    986.8280              1050.6663              1120.2286
 Red. masses --      1.5975                 1.3226                 2.2786
 Frc consts  --      0.9166                 0.8602                 1.6848
 IR Inten    --      5.9857                 8.5469                 0.8600

                     16                     17                     18
                      A                      A                      A
 Frequencies --   1162.9699              1169.2335              1213.9630
 Red. masses --      2.5033                 1.6095                 1.7460
 Frc consts  --      1.9948                 1.2964                 1.5160
 IR Inten    --     60.1282                10.1303                 8.8230

                     19                     20                     21
                      A                      A                      A
 Frequencies --   1294.6906              1365.8997              1385.9030
 Red. masses --      1.4896                 1.3889                 1.2517
 Frc consts  --      1.4712                 1.5267                 1.4165
 IR Inten    --     12.1610                21.1280                 1.2084

                     22                     23                     24
                      A                      A                      A
 Frequencies --   1406.9011              1456.2646              1476.8509
 Red. masses --      1.3871                 1.1529                 1.1347
 Frc consts  --      1.6176                 1.4405                 1.4581
 IR Inten    --     26.3912                 2.0385                19.2314

                     25                     26                     27
                      A                      A                      A
 Frequencies --   1483.8467              1499.6599              1504.1203
 Red. masses --      1.0488                 1.1420                 1.0897
 Frc consts  --      1.3606                 1.5132                 1.4525
 IR Inten    --      6.5082                 1.8677                11.9803

                     28                     29                     30
                      A                      A                      A
 Frequencies --   1521.6312              1637.2085              2914.8659
 Red. masses --      1.0525                 1.1031                 1.0811
 Frc consts  --      1.4358                 1.7421                 5.4121
 IR Inten    --     12.1443                36.7054                71.5164

                     31                     32                     33
                      A                      A                      A
 Frequencies --   2952.5411              3030.1189              3051.2157
 Red. masses --      1.0588                 1.0360                 1.0748
 Frc consts  --      5.4382                 5.6044                 5.8954
 IR Inten    --     78.6804                18.8992                42.1065

                     34                     35                     36
                      A                      A                      A
 Frequencies --   3096.0188              3097.5741              3116.6264
 Red. masses --      1.0997                 1.1005                 1.1019
 Frc consts  --      6.2106                 6.2213                 6.3059
 IR Inten    --     30.3203                30.3705                26.9478

                     37                     38                     39
                      A                      A                      A
 Frequencies --   3493.0732              3514.0861              3580.0883
 Red. masses --      1.0488                 1.0733                 1.0928
 Frc consts  --      7.5398                 7.8091                 8.2522
 IR Inten    --      0.6333                 0.0896                 0.1509

 - Thermochemistry -
 -------------------
 Temperature   298.150 Kelvin.  Pressure   1.00000 Atm.
 Atom     1 has atomic number  6 and mass  12.00000

 Molecular mass:    74.08440 amu.
 Principal axes and moments of inertia in atomic units:
                           1         2         3
     Eigenvalues --   233.00567 495.71623 659.00006
           X            0.99999  -0.00208   0.00491
           Y            0.00201   0.99988   0.01540
           Z           -0.00494  -0.01539   0.99987
 This molecule is an asymmetric top.
 Rotational symmetry number  1.
 Rotational temperatures (Kelvin)      0.37172     0.17472     0.13143
 Rotational constants (GHZ):           7.74548     3.64067     2.73861
 Zero-point vibrational energy     362079.8 (Joules/Mol)
                                   86.53915 (Kcal/Mol)
 Warning -- explicit consideration of   8 degrees of freedom as
           vibrations may cause significant error
 Vibrational temperatures:    168.22   312.41   333.14   394.47   447.25
          (Kelvin)            579.17   646.99   750.94  1076.07  1234.33
                             1242.90  1377.63  1419.82  1511.67  1611.76
                             1673.25  1682.26  1746.62  1862.77  1965.22
                             1994.00  2024.21  2095.24  2124.86  2134.92
                             2157.67  2164.09  2189.29  2355.57  4193.84
                             4248.04  4359.66  4390.01  4454.47  4456.71
                             4484.12  5025.75  5055.98  5150.94

 Zero-point correction=                           0.137909 (Hartree/Particle)
 Thermal correction to Energy=                    0.144609
 Thermal correction to Enthalpy=                  0.145554
 Thermal correction to Gibbs Free Energy=         0.108415
 Sum of electronic and zero-point Energies=           -229.713356
 Sum of electronic and thermal Energies=              -229.706655
 Sum of electronic and thermal Enthalpies=            -229.705711
 Sum of electronic and thermal Free Energies=         -229.742850

                     E (Thermal)             CV                S
                      KCal/Mol        Cal/Mol-Kelvin    Cal/Mol-Kelvin
 Total                   90.744             23.813             78.166
 Electronic               0.000              0.000              0.000
 Translational            0.889              2.981             38.824
 Rotational               0.889              2.981             25.835
 Vibrational             88.966             17.852             13.507
 Vibration     1          0.608              1.935              3.151
 Vibration     2          0.646              1.815              1.983
 Vibration     3          0.653              1.793              1.867
 Vibration     4          0.676              1.721              1.570
 Vibration     5          0.700              1.653              1.358
 Vibration     6          0.768              1.465              0.953
 Vibration     7          0.809              1.362              0.797
 Vibration     8          0.877              1.201              0.606

 Optimization completed.
    -- Stationary point found.
 Normal termination of Gaussian 09 at Sun Aug 21 22:41:12 2022.

 -----------------------------------------------------------------
 #P Geom=AllCheck Guess=TCheck SCRF=Check CCSD(T,E4T,FrzG4)/GTBas1
 -----------------------------------------------------------------

 Structure from the checkpoint file:  "G4.Frag_551.chk"
 --------
 Frag_551
 --------
 Charge =  0 Multiplicity = 1

 SCF Done:  E(RHF) =  -228.301101341     A.U. after   12 cycles
 E2 =    -0.7234127372D+00 EUMP2 =    -0.22902451407787D+03
 CCSD(T)
 CCSD(T)= -0.22910216317D+03
 10789\CCSD(T)=-229.1021632\RMSD=2.738e-09\PG=C01 [X(C3H10N2)]\\@
 Normal termination of Gaussian 09 at Sun Aug 21 22:44:30 2022.

 ---------------------------------------------------------
 #P Geom=AllCheck Guess=TCheck SCRF=Check MP4=FrzG4/GTBas2
 ---------------------------------------------------------

 Structure from the checkpoint file:  "G4.Frag_551.chk"
 --------
 Frag_551
 --------
 Charge =  0 Multiplicity = 1

 SCF Done:  E(RHF) =  -228.308812726     A.U. after   11 cycles
 E2 =    -0.7347152678D+00 EUMP2 =    -0.22904352799392D+03
 Normal termination of Gaussian 09 at Sun Aug 21 22:48:35 2022.

 ---------------------------------------------------------
 #P Geom=AllCheck Guess=TCheck SCRF=Check MP4=FrzG4/GTBas3
 ---------------------------------------------------------

 Structure from the checkpoint file:  "G4.Frag_551.chk"
 --------
 Frag_551
 --------
 Charge =  0 Multiplicity = 1

 SCF Done:  E(RHF) =  -228.335514315     A.U. after   11 cycles
 E2 =    -0.8996583389D+00 EUMP2 =    -0.22923517265387D+03
 Normal termination of Gaussian 09 at Mon Aug 22 00:17:25 2022.

 -----------------------------------------------------------
 #P Geom=AllCheck Guess=TCheck SCRF=Check MP2=Full/GTLargeXP
 -----------------------------------------------------------

 Structure from the checkpoint file:  "G4.Frag_551.chk"
 --------
 Frag_551
 --------
 Charge =  0 Multiplicity = 1

 SCF Done:  E(RHF) =  -228.391794455     A.U. after   11 cycles
 E2 =    -0.1176865975D+01 EUMP2 =    -0.22956866043023D+03
 Normal termination of Gaussian 09 at Mon Aug 22 00:21:23 2022.
 SCF Done:  E(RHF) =  -228.409695420     A.U. after    8 cycles
 Normal termination of Gaussian 09 at Mon Aug 22 00:25:29 2022.

                         Standard orientation:
 ---------------------------------------------------------------------
 Center     Atomic      Atomic             Coordinates (Angstroms)
 Number     Number       Type             X           Y           Z
 ---------------------------------------------------------------------
      1          6           0        2.005830   -0.008755   -0.116181
      2          7           0        0.745631   -0.614992    0.281814
      3          6           0       -0.454110   -0.040551   -0.313108
      4          6           0       -0.779442    1.397716    0.115936
      5          7           0       -1.557879   -0.909678    0.090448
      6          1           0        2.830185   -0.542307    0.366687
      7          1           0        2.113900    1.062880    0.125058
      8          1           0        2.134866   -0.115353   -1.199683
      9          1           0        0.640205   -0.611564    1.291920
     10          1           0       -0.272898   -0.038606   -1.404550
     11          1           0        0.044393    2.076816   -0.120829
     12          1           0       -1.671576    1.771071   -0.399967
     13          1           0       -0.970870    1.431262    1.193502
     14          1           0       -2.425739   -0.600906   -0.336397
     15          1           0       -1.370400   -1.851067   -0.241455
 ---------------------------------------------------------------------

 SCF Done:  E(RHF) =  -228.413661437     A.U. after    8 cycles

 The electronic state is 1-A.
 Alpha  occ. eigenvalues --  -15.53507 -15.53477 -11.27939 -11.24108 -11.21073
 Alpha  occ. eigenvalues --   -1.22948  -1.13728  -0.97845  -0.90389  -0.79986
 Alpha  occ. eigenvalues --   -0.67136  -0.65639  -0.61463  -0.60071  -0.54570
 Alpha  occ. eigenvalues --   -0.53919  -0.51620  -0.51511  -0.49738  -0.39647
 Alpha  occ. eigenvalues --   -0.36544
 Alpha virt. eigenvalues --    0.03851   0.04246   0.04468   0.05338   0.07008
 Alpha virt. eigenvalues --    0.07149   0.07364   0.07778   0.09067   0.10204
 Alpha virt. eigenvalues --    0.11816   0.12295   0.12832   0.13496   0.14467

 Mulliken charges:
               1
     1  C   -0.464490
     2  N   -0.400028
     3  C    0.135634
     4  C   -0.538872
     5  N   -0.712461
     6  H    0.173657
     7  H    0.141647
     8  H    0.161461
     9  H    0.283242
    10  H    0.136799
    11  H    0.166354
    12  H    0.151552
    13  H    0.174370
    14  H    0.284274
    15  H    0.306863
 Sum of Mulliken charges =  -0.00000

 Dipole moment (field-independent basis, Debye):
    X=              0.0357    Y=              0.8875    Z=             -0.9048  Tot=              1.2679
 Quadrupole moment (field-independent basis, Debye-Ang):
   XX=            -31.6851   YY=            -34.6876   ZZ=            -32.9758
   XY=              0.6033   XZ=              3.1615   YZ=              1.0791

 Normal termination of Gaussian 09 at Mon Aug 22 02:26:10 2022.
