 Gaussian 09, Revision E.01,
 Gaussian 09:  ES64L-G09RevE.01 30-Nov-2015

 -----
 #P G4
 -----

 ---------
 Frag_1118
 ---------
 Symbolic Z-matrix:
 Charge =  0 Multiplicity = 1

 SCF Done:  E(RB3LYP) =  -306.421731784     A.U. after   13 cycles
 SCF Done:  E(RB3LYP) =  -306.425091498     A.U. after   12 cycles
 SCF Done:  E(RB3LYP) =  -306.424917920     A.U. after   11 cycles
 SCF Done:  E(RB3LYP) =  -306.425208661     A.U. after    9 cycles
 SCF Done:  E(RB3LYP) =  -306.424629378     A.U. after   12 cycles
 SCF Done:  E(RB3LYP) =  -306.425351425     A.U. after    9 cycles
 SCF Done:  E(RB3LYP) =  -306.425276435     A.U. after   12 cycles
 SCF Done:  E(RB3LYP) =  -306.425426790     A.U. after    9 cycles
 SCF Done:  E(RB3LYP) =  -306.425608109     A.U. after   11 cycles
 SCF Done:  E(RB3LYP) =  -306.425578305     A.U. after   12 cycles
 SCF Done:  E(RB3LYP) =  -306.425819341     A.U. after    7 cycles
 SCF Done:  E(RB3LYP) =  -306.425819421     A.U. after    7 cycles
 SCF Done:  E(RB3LYP) =  -306.425819457     A.U. after    7 cycles
 Optimization completed.
    -- Stationary point found.
 Normal termination of Gaussian 09 at Sun Aug 21 19:18:49 2022.

 ----------------------------------------------------------
 #P Geom=AllCheck Guess=TCheck SCRF=Check B3LYP/GTBas3 Freq
 ----------------------------------------------------------

 Structure from the checkpoint file:  "G4.Frag_1118.chk"
 ---------
 Frag_1118
 ---------
 Charge =  0 Multiplicity = 1

 SCF Done:  E(RB3LYP) =  -306.425819457     A.U. after    1 cycles

  Exact polarizability:  62.786   0.160  40.635   0.544   0.314  39.660
 Approx polarizability:  98.312   3.745  55.356   1.844  -0.338  58.043

                      1                      2                      3
                      A                      A                      A
 Frequencies --    109.6791               175.0564               190.3372
 Red. masses --      1.1825                 2.6304                 3.3235
 Frc consts  --      0.0084                 0.0475                 0.0709
 IR Inten    --     76.4032                 1.8283                 4.7279

                      4                      5                      6
                      A                      A                      A
 Frequencies --    236.9151               326.9864               373.0101
 Red. masses --      1.1535                 1.1926                 3.0215
 Frc consts  --      0.0381                 0.0751                 0.2477
 IR Inten    --      5.4327                92.6241                 5.1398

                      7                      8                      9
                      A                      A                      A
 Frequencies --    413.9690               502.7878               583.0138
 Red. masses --      3.1094                 4.7612                 5.1149
 Frc consts  --      0.3140                 0.7091                 1.0243
 IR Inten    --      4.1708                22.8794                11.5746

                     10                     11                     12
                      A                      A                      A
 Frequencies --    594.5869               656.0647               670.5606
 Red. masses --      4.9119                 1.2461                 1.2594
 Frc consts  --      1.0231                 0.3160                 0.3337
 IR Inten    --     12.6171                40.3152                35.2494

                     13                     14                     15
                      A                      A                      A
 Frequencies --    738.0810               929.3684               957.6651
 Red. masses --      5.0126                 2.1174                 2.2542
 Frc consts  --      1.6089                 1.0776                 1.2181
 IR Inten    --      6.5794                18.8912                70.4205

                     16                     17                     18
                      A                      A                      A
 Frequencies --   1060.6937              1136.5966              1173.1591
 Red. masses --      2.4012                 1.7778                 2.8048
 Frc consts  --      1.5917                 1.3531                 2.2744
 IR Inten    --     89.9324                89.3206                99.0008

                     19                     20                     21
                      A                      A                      A
 Frequencies --   1347.9099              1375.2058              1411.6226
 Red. masses --      1.6442                 1.3427                 1.4670
 Frc consts  --      1.7601                 1.4961                 1.7224
 IR Inten    --    145.3942                68.0539                39.4813

                     22                     23                     24
                      A                      A                      A
 Frequencies --   1477.2133              1485.6862              2228.4976
 Red. masses --      1.0478                 1.0647                 5.8680
 Frc consts  --      1.3471                 1.3846                17.1697
 IR Inten    --      0.8920                 2.5089                 5.2683

                     25                     26                     27
                      A                      A                      A
 Frequencies --   3056.6040              3140.6445              3144.5634
 Red. masses --      1.0334                 1.1031                 1.1034
 Frc consts  --      5.6882                 6.4104                 6.4284
 IR Inten    --      7.1982                14.5479                11.6815

                     28                     29                     30
                      A                      A                      A
 Frequencies --   3498.1092              3797.1531              3827.8962
 Red. masses --      1.1631                 1.0654                 1.0662
 Frc consts  --      8.3855                 9.0506                 9.2049
 IR Inten    --     59.5600                28.0851                30.3364

 - Thermochemistry -
 -------------------
 Temperature   298.150 Kelvin.  Pressure   1.00000 Atm.
 Atom     1 has atomic number  6 and mass  12.00000

 Molecular mass:    86.03678 amu.
 Principal axes and moments of inertia in atomic units:
                           1         2         3
     Eigenvalues --   353.51119 637.61128 654.37270
           X            0.99894  -0.04513  -0.00932
           Y            0.04608   0.97959   0.19563
           Z            0.00030  -0.19585   0.98063
 This molecule is an asymmetric top.
 Rotational symmetry number  1.
 Rotational temperatures (Kelvin)      0.24501     0.13584     0.13236
 Rotational constants (GHZ):           5.10519     2.83047     2.75797
 Zero-point vibrational energy     242959.4 (Joules/Mol)
                                   58.06869 (Kcal/Mol)
 Warning -- explicit consideration of  10 degrees of freedom as
           vibrations may cause significant error
 Vibrational temperatures:    157.80   251.87   273.85   340.87   470.46
          (Kelvin)            536.68   595.61   723.40   838.83   855.48
                              943.93   964.79  1061.93  1337.15  1377.86
                             1526.10  1635.31  1687.91  1939.34  1978.61
                             2031.01  2125.38  2137.57  3206.31  4397.77
                             4518.68  4524.32  5032.99  5463.25  5507.48

 Zero-point correction=                           0.092538 (Hartree/Particle)
 Thermal correction to Energy=                    0.099895
 Thermal correction to Enthalpy=                  0.100839
 Thermal correction to Gibbs Free Energy=         0.061985
 Sum of electronic and zero-point Energies=           -306.333281
 Sum of electronic and thermal Energies=              -306.325924
 Sum of electronic and thermal Enthalpies=            -306.324980
 Sum of electronic and thermal Free Energies=         -306.363834

                     E (Thermal)             CV                S
                      KCal/Mol        Cal/Mol-Kelvin    Cal/Mol-Kelvin
 Total                   62.685             26.102             81.775
 Electronic               0.000              0.000              0.000
 Translational            0.889              2.981             39.270
 Rotational               0.889              2.981             26.492
 Vibrational             60.908             20.140             16.014
 Vibration     1          0.606              1.941              3.275
 Vibration     2          0.627              1.873              2.380
 Vibration     3          0.634              1.853              2.225
 Vibration     4          0.656              1.784              1.826
 Vibration     5          0.711              1.622              1.275
 Vibration     6          0.744              1.528              1.067
 Vibration     7          0.778              1.440              0.913
 Vibration     8          0.858              1.244              0.651
 Vibration     9          0.940              1.068              0.480
 Vibration    10          0.952              1.043              0.459

 Optimization completed.
    -- Stationary point found.
 Normal termination of Gaussian 09 at Sun Aug 21 19:20:42 2022.

 -----------------------------------------------------------------
 #P Geom=AllCheck Guess=TCheck SCRF=Check CCSD(T,E4T,FrzG4)/GTBas1
 -----------------------------------------------------------------

 Structure from the checkpoint file:  "G4.Frag_1118.chk"
 ---------
 Frag_1118
 ---------
 Charge =  0 Multiplicity = 1

 SCF Done:  E(RHF) =  -304.604521072     A.U. after   13 cycles
 E2 =    -0.8667988309D+00 EUMP2 =    -0.30547131990267D+03
 CCSD(T)
 CCSD(T)= -0.30553801471D+03
 CSD=-305.5089956\CCSD(T)=-305.5380147\RMSD=6.395e-09\PG=C01 [X(C4H6O2)
 Normal termination of Gaussian 09 at Sun Aug 21 19:26:13 2022.

 ---------------------------------------------------------
 #P Geom=AllCheck Guess=TCheck SCRF=Check MP4=FrzG4/GTBas2
 ---------------------------------------------------------

 Structure from the checkpoint file:  "G4.Frag_1118.chk"
 ---------
 Frag_1118
 ---------
 Charge =  0 Multiplicity = 1

 SCF Done:  E(RHF) =  -304.617035922     A.U. after   14 cycles
 E2 =    -0.8799031582D+00 EUMP2 =    -0.30549693908047D+03
 Normal termination of Gaussian 09 at Sun Aug 21 19:32:33 2022.

 ---------------------------------------------------------
 #P Geom=AllCheck Guess=TCheck SCRF=Check MP4=FrzG4/GTBas3
 ---------------------------------------------------------

 Structure from the checkpoint file:  "G4.Frag_1118.chk"
 ---------
 Frag_1118
 ---------
 Charge =  0 Multiplicity = 1

 SCF Done:  E(RHF) =  -304.646664240     A.U. after   13 cycles
 E2 =    -0.1059868111D+01 EUMP2 =    -0.30570653235098D+03
 Normal termination of Gaussian 09 at Sun Aug 21 21:21:09 2022.

 -----------------------------------------------------------
 #P Geom=AllCheck Guess=TCheck SCRF=Check MP2=Full/GTLargeXP
 -----------------------------------------------------------

 Structure from the checkpoint file:  "G4.Frag_1118.chk"
 ---------
 Frag_1118
 ---------
 Charge =  0 Multiplicity = 1

 SCF Done:  E(RHF) =  -304.729141939     A.U. after   13 cycles
 E2 =    -0.1393883974D+01 EUMP2 =    -0.30612302591377D+03
 Normal termination of Gaussian 09 at Sun Aug 21 21:25:51 2022.
 SCF Done:  E(RHF) =  -304.753751237     A.U. after    9 cycles
 Normal termination of Gaussian 09 at Sun Aug 21 21:30:43 2022.

                         Standard orientation:
 ---------------------------------------------------------------------
 Center     Atomic      Atomic             Coordinates (Angstroms)
 Number     Number       Type             X           Y           Z
 ---------------------------------------------------------------------
      1          6           0        2.343513    0.141439   -0.050019
      2          6           0        1.143288    0.073501   -0.043979
      3          6           0       -0.332856   -0.034721   -0.010896
      4          6           0       -0.997012    1.338324    0.087826
      5          8           0       -0.826330   -0.633550   -1.176969
      6          8           0       -0.715498   -0.863122    1.084842
      7          1           0        3.403900    0.206648   -0.068171
      8          1           0       -0.751461    1.945541   -0.786257
      9          1           0       -2.078098    1.190565    0.136775
     10          1           0       -0.660643    1.855211    0.989216
     11          1           0       -0.484856   -1.535786   -1.195922
     12          1           0       -0.035813   -0.800066    1.763787
 ---------------------------------------------------------------------

 SCF Done:  E(RHF) =  -304.758913147     A.U. after    8 cycles

 The electronic state is 1-A.
 Alpha  occ. eigenvalues --  -20.57347 -20.57143 -11.37638 -11.24833 -11.24446
 Alpha  occ. eigenvalues --  -11.22477  -1.42653  -1.34424  -1.06428  -1.00669
 Alpha  occ. eigenvalues --   -0.86957  -0.77724  -0.72548  -0.71404  -0.64300
 Alpha  occ. eigenvalues --   -0.58800  -0.56039  -0.55035  -0.53838  -0.51321
 Alpha  occ. eigenvalues --   -0.46851  -0.41460  -0.41190
 Alpha virt. eigenvalues --    0.03143   0.04192   0.04877   0.05558   0.06343
 Alpha virt. eigenvalues --    0.06872   0.07314   0.07635   0.08153   0.09564
 Alpha virt. eigenvalues --    0.10030   0.10786   0.13341   0.13614   0.14273

 Mulliken charges:
               1
     1  C   -0.477683
     2  C    0.112856
     3  C    0.475953
     4  C   -0.530302
     5  O   -0.554871
     6  O   -0.592533
     7  H    0.251458
     8  H    0.187763
     9  H    0.195881
    10  H    0.177886
    11  H    0.370960
    12  H    0.382631
 Sum of Mulliken charges =  -0.00000

 Dipole moment (field-independent basis, Debye):
    X=              2.1990    Y=              0.3347    Z=              0.9779  Tot=              2.4298
 Quadrupole moment (field-independent basis, Debye-Ang):
   XX=            -32.9135   YY=            -34.4798   ZZ=            -36.4290
   XY=             -1.9859   XZ=              0.4914   YZ=              1.4253

 Normal termination of Gaussian 09 at Sun Aug 21 23:45:27 2022.
