 Gaussian 09, Revision E.01,
 Gaussian 09:  ES64L-G09RevE.01 30-Nov-2015

 -----
 #P G4
 -----

 --------
 Frag_453
 --------
 Symbolic Z-matrix:
 Charge =  0 Multiplicity = 1

 SCF Done:  E(RB3LYP) =  -289.032863950     A.U. after   12 cycles
 SCF Done:  E(RB3LYP) =  -289.038499703     A.U. after   11 cycles
 SCF Done:  E(RB3LYP) =  -289.038890411     A.U. after   10 cycles
 SCF Done:  E(RB3LYP) =  -289.039044719     A.U. after   10 cycles
 SCF Done:  E(RB3LYP) =  -289.039125256     A.U. after    9 cycles
 SCF Done:  E(RB3LYP) =  -289.039154103     A.U. after    9 cycles
 SCF Done:  E(RB3LYP) =  -289.039154586     A.U. after    7 cycles
 SCF Done:  E(RB3LYP) =  -289.039154092     A.U. after    6 cycles
 Optimization completed.
    -- Stationary point found.
 Normal termination of Gaussian 09 at Fri Aug 26 14:40:03 2022.

 ----------------------------------------------------------
 #P Geom=AllCheck Guess=TCheck SCRF=Check B3LYP/GTBas3 Freq
 ----------------------------------------------------------

 Structure from the checkpoint file:  "G4.Frag_453.chk"
 --------
 Frag_453
 --------
 Charge =  0 Multiplicity = 1

 SCF Done:  E(RB3LYP) =  -289.039154092     A.U. after    1 cycles

  Exact polarizability:  62.050   0.185  54.438   0.966  -0.660  53.490
 Approx polarizability:  79.068   1.478  75.767   2.337   0.603  76.264

                      1                      2                      3
                      A                      A                      A
 Frequencies --    127.6827               182.2577               219.8167
 Red. masses --      1.6952                 1.2226                 1.1179
 Frc consts  --      0.0163                 0.0239                 0.0318
 IR Inten    --      2.8147                 4.2038                21.3720

                      4                      5                      6
                      A                      A                      A
 Frequencies --    240.4958               270.4117               281.7667
 Red. masses --      1.0940                 1.2778                 1.7899
 Frc consts  --      0.0373                 0.0551                 0.0837
 IR Inten    --      7.7592                 1.8963                 6.1427

                      7                      8                      9
                      A                      A                      A
 Frequencies --    345.8211               383.5538               427.3110
 Red. masses --      2.2773                 2.7511                 2.3521
 Frc consts  --      0.1605                 0.2385                 0.2530
 IR Inten    --      3.6330                 3.3279                 0.6405

                     10                     11                     12
                      A                      A                      A
 Frequencies --    489.2534               557.1035               749.5037
 Red. masses --      2.9511                 2.9393                 4.1948
 Frc consts  --      0.4162                 0.5375                 1.3884
 IR Inten    --     10.4392                 2.1601                 3.7331

                     13                     14                     15
                      A                      A                      A
 Frequencies --    825.7147               903.9338               919.7024
 Red. masses --      1.9205                 1.6282                 1.4823
 Frc consts  --      0.7715                 0.7838                 0.7387
 IR Inten    --    114.5741                42.1282                 2.1909

                     16                     17                     18
                      A                      A                      A
 Frequencies --    954.0528              1011.6975              1080.0162
 Red. masses --      1.7406                 1.3554                 1.6649
 Frc consts  --      0.9335                 0.8174                 1.1442
 IR Inten    --      3.1503                 6.7480                38.4322

                     19                     20                     21
                      A                      A                      A
 Frequencies --   1110.3429              1180.6410              1205.9134
 Red. masses --      3.8478                 1.2901                 1.6932
 Frc consts  --      2.7950                 1.0595                 1.4507
 IR Inten    --     70.0641                 1.1358                41.6818

                     22                     23                     24
                      A                      A                      A
 Frequencies --   1233.0763              1249.9527              1332.3712
 Red. masses --      2.5939                 2.3941                 1.8295
 Frc consts  --      2.3237                 2.2039                 1.9135
 IR Inten    --    104.7600                40.4795                17.0572

                     25                     26                     27
                      A                      A                      A
 Frequencies --   1395.2906              1410.3782              1461.7632
 Red. masses --      1.3665                 1.2625                 1.1330
 Frc consts  --      1.5674                 1.4797                 1.4263
 IR Inten    --     19.5498                10.8823                 1.1880

                     28                     29                     30
                      A                      A                      A
 Frequencies --   1474.9479              1483.2443              1491.2550
 Red. masses --      1.0519                 1.0537                 1.0549
 Frc consts  --      1.3483                 1.3659                 1.3822
 IR Inten    --      0.3273                 0.0977                 3.9967

                     31                     32                     33
                      A                      A                      A
 Frequencies --   1497.7040              1512.0055              1518.2069
 Red. masses --      1.0567                 1.0702                 1.0495
 Frc consts  --      1.3965                 1.4415                 1.4253
 IR Inten    --      0.0890                 2.3940                 5.6054

                     34                     35                     36
                      A                      A                      A
 Frequencies --   1645.8871              2997.9566              3036.8535
 Red. masses --      1.1046                 1.0426                 1.0344
 Frc consts  --      1.7631                 5.5210                 5.6205
 IR Inten    --     28.5414                61.1205                17.5956

                     37                     38                     39
                      A                      A                      A
 Frequencies --   3045.5466              3071.2580              3111.1773
 Red. masses --      1.0363                 1.0896                 1.1008
 Frc consts  --      5.6630                 6.0556                 6.2781
 IR Inten    --      9.7124                40.2380                 8.8981

                     40                     41                     42
                      A                      A                      A
 Frequencies --   3113.4661              3113.7517              3118.2263
 Red. masses --      1.1030                 1.1020                 1.1014
 Frc consts  --      6.2994                 6.2950                 6.3095
 IR Inten    --     22.1527                24.2244                38.4461

                     43                     44                     45
                      A                      A                      A
 Frequencies --   3132.4825              3492.2024              3579.3089
 Red. masses --      1.1026                 1.0493                 1.0922
 Frc consts  --      6.3744                 7.5400                 8.2441
 IR Inten    --     21.0803                 0.0810                 0.6128

 - Thermochemistry -
 -------------------
 Temperature   298.150 Kelvin.  Pressure   1.00000 Atm.
 Atom     1 has atomic number  6 and mass  12.00000

 Molecular mass:    89.08406 amu.
 Principal axes and moments of inertia in atomic units:
                           1         2         3
     Eigenvalues --   401.48240 640.54667 654.76159
           X            0.99949  -0.03115  -0.00724
           Y            0.02736   0.95007  -0.31084
           Z            0.01656   0.31048   0.95044
 This molecule is an asymmetric top.
 Rotational symmetry number  1.
 Rotational temperatures (Kelvin)      0.21574     0.13522     0.13228
 Rotational constants (GHZ):           4.49519     2.81750     2.75633
 Zero-point vibrational energy     400661.1 (Joules/Mol)
                                   95.76030 (Kcal/Mol)
 Warning -- explicit consideration of  11 degrees of freedom as
           vibrations may cause significant error
 Vibrational temperatures:    183.71   262.23   316.27   346.02   389.06
          (Kelvin)            405.40   497.56   551.85   614.80   703.93
                              801.55  1078.37  1188.02  1300.56  1323.25
                             1372.67  1455.61  1553.90  1597.53  1698.68
                             1735.04  1774.12  1798.40  1916.98  2007.51
                             2029.22  2103.15  2122.12  2134.06  2145.58
                             2154.86  2175.44  2184.36  2368.06  4313.39
                             4369.35  4381.86  4418.85  4476.28  4479.58
                             4479.99  4486.43  4506.94  5024.49  5149.82

 Zero-point correction=                           0.152604 (Hartree/Particle)
 Thermal correction to Energy=                    0.160558
 Thermal correction to Enthalpy=                  0.161502
 Thermal correction to Gibbs Free Energy=         0.121689
 Sum of electronic and zero-point Energies=           -288.886550
 Sum of electronic and thermal Energies=              -288.878596
 Sum of electronic and thermal Enthalpies=            -288.877652
 Sum of electronic and thermal Free Energies=         -288.917465

                     E (Thermal)             CV                S
                      KCal/Mol        Cal/Mol-Kelvin    Cal/Mol-Kelvin
 Total                  100.752             29.060             83.794
 Electronic               0.000              0.000              0.000
 Translational            0.889              2.981             39.374
 Rotational               0.889              2.981             26.624
 Vibrational             98.974             23.098             17.797
 Vibration     1          0.611              1.926              2.981
 Vibration     2          0.630              1.864              2.305
 Vibration     3          0.647              1.811              1.961
 Vibration     4          0.658              1.778              1.799
 Vibration     5          0.674              1.728              1.594
 Vibration     6          0.681              1.707              1.523
 Vibration     7          0.724              1.584              1.185
 Vibration     8          0.753              1.505              1.025
 Vibration     9          0.789              1.411              0.867
 Vibration    10          0.845              1.274              0.686
 Vibration    11          0.913              1.124              0.530

 Optimization completed.
    -- Stationary point found.
 Normal termination of Gaussian 09 at Fri Aug 26 14:40:45 2022.

 -----------------------------------------------------------------
 #P Geom=AllCheck Guess=TCheck SCRF=Check CCSD(T,E4T,FrzG4)/GTBas1
 -----------------------------------------------------------------

 Structure from the checkpoint file:  "G4.Frag_453.chk"
 --------
 Frag_453
 --------
 Charge =  0 Multiplicity = 1

 SCF Done:  E(RHF) =  -287.168304776     A.U. after   11 cycles
 E2 =    -0.8716523788D+00 EUMP2 =    -0.28803995715484D+03
 CCSD(T)
 CCSD(T)= -0.28812774802D+03
 MP4SDQ=-288.1009563\CCSD=-288.1016981\CCSD(T)=-288.127748\RMSD=9.571e-
 Normal termination of Gaussian 09 at Fri Aug 26 14:43:24 2022.

 ---------------------------------------------------------
 #P Geom=AllCheck Guess=TCheck SCRF=Check MP4=FrzG4/GTBas2
 ---------------------------------------------------------

 Structure from the checkpoint file:  "G4.Frag_453.chk"
 --------
 Frag_453
 --------
 Charge =  0 Multiplicity = 1

 SCF Done:  E(RHF) =  -287.176561237     A.U. after   11 cycles
 E2 =    -0.8846845162D+00 EUMP2 =    -0.28806124575285D+03
 Normal termination of Gaussian 09 at Fri Aug 26 14:44:13 2022.

 ---------------------------------------------------------
 #P Geom=AllCheck Guess=TCheck SCRF=Check MP4=FrzG4/GTBas3
 ---------------------------------------------------------

 Structure from the checkpoint file:  "G4.Frag_453.chk"
 --------
 Frag_453
 --------
 Charge =  0 Multiplicity = 1

 SCF Done:  E(RHF) =  -287.206852769     A.U. after   10 cycles
 E2 =    -0.1087128726D+01 EUMP2 =    -0.28829398149524D+03
 Normal termination of Gaussian 09 at Fri Aug 26 14:49:19 2022.

 -----------------------------------------------------------
 #P Geom=AllCheck Guess=TCheck SCRF=Check MP2=Full/GTLargeXP
 -----------------------------------------------------------

 Structure from the checkpoint file:  "G4.Frag_453.chk"
 --------
 Frag_453
 --------
 Charge =  0 Multiplicity = 1

 SCF Done:  E(RHF) =  -287.278421922     A.U. after   11 cycles
 E2 =    -0.1421713697D+01 EUMP2 =    -0.28870013561850D+03
 Normal termination of Gaussian 09 at Fri Aug 26 14:51:40 2022.
 SCF Done:  E(RHF) =  -287.301022666     A.U. after    8 cycles
 Normal termination of Gaussian 09 at Fri Aug 26 14:54:13 2022.

                         Standard orientation:
 ---------------------------------------------------------------------
 Center     Atomic      Atomic             Coordinates (Angstroms)
 Number     Number       Type             X           Y           Z
 ---------------------------------------------------------------------
      1          6           0       -2.022166   -0.110519   -0.081057
      2          8           0       -0.775002   -0.635292   -0.496403
      3          6           0        0.389228    0.002461    0.018426
      4          6           0        0.441621    1.492875   -0.349304
      5          6           0        1.542288   -0.763721   -0.642860
      6          7           0        0.377882   -0.113686    1.479605
      7          1           0       -2.779552   -0.840505   -0.378869
      8          1           0       -2.253831    0.845557   -0.572199
      9          1           0       -2.057851    0.029420    1.004551
     10          1           0        1.419149    1.916596   -0.097334
     11          1           0       -0.321043    2.059824    0.189883
     12          1           0        0.283162    1.616771   -1.423529
     13          1           0        1.510914   -0.657527   -1.731126
     14          1           0        2.506842   -0.395025   -0.281305
     15          1           0        1.459368   -1.828561   -0.404822
     16          1           0        0.586941   -1.071149    1.748408
     17          1           0        1.094914    0.476164    1.889110
 ---------------------------------------------------------------------

 SCF Done:  E(RHF) =  -287.306027112     A.U. after    8 cycles

 The electronic state is 1-A.
 Alpha  occ. eigenvalues --  -20.54202 -15.53931 -11.31162 -11.25441 -11.21530
 Alpha  occ. eigenvalues --  -11.21080  -1.36993  -1.17598  -1.01616  -0.94727
 Alpha  occ. eigenvalues --   -0.90594  -0.77012  -0.67493  -0.65812  -0.63889
 Alpha  occ. eigenvalues --   -0.60596  -0.58720  -0.55747  -0.53911  -0.52675
 Alpha  occ. eigenvalues --   -0.51636  -0.49602  -0.46505  -0.41959  -0.39993
 Alpha virt. eigenvalues --    0.03358   0.04061   0.04550   0.05153   0.06553
 Alpha virt. eigenvalues --    0.07083   0.07215   0.07510   0.07703   0.09645
 Alpha virt. eigenvalues --    0.10052   0.10620   0.11320   0.13328   0.14013

 Mulliken charges:
               1
     1  C   -0.385198
     2  O   -0.350131
     3  C    0.464612
     4  C   -0.591521
     5  C   -0.552890
     6  N   -0.751078
     7  H    0.175139
     8  H    0.148193
     9  H    0.198256
    10  H    0.173510
    11  H    0.187781
    12  H    0.184910
    13  H    0.173774
    14  H    0.164593
    15  H    0.174086
    16  H    0.289149
    17  H    0.296816
 Sum of Mulliken charges =  -0.00000

 Dipole moment (field-independent basis, Debye):
    X=              1.1925    Y=              0.7992    Z=              0.5561  Tot=              1.5394
 Quadrupole moment (field-independent basis, Debye-Ang):
   XX=            -36.4100   YY=            -38.8943   ZZ=            -40.1487
   XY=             -0.4012   XZ=              1.8453   YZ=             -1.6665

 Normal termination of Gaussian 09 at Fri Aug 26 15:03:48 2022.
