 Gaussian 09, Revision E.01,
 Gaussian 09:  ES64L-G09RevE.01 30-Nov-2015

 -----
 #P G4
 -----

 --------
 Frag_961
 --------
 Symbolic Z-matrix:
 Charge =  0 Multiplicity = 1

 SCF Done:  E(RB3LYP) =  -267.941806475     A.U. after   14 cycles
 SCF Done:  E(RB3LYP) =  -267.948538675     A.U. after   12 cycles
 SCF Done:  E(RB3LYP) =  -267.948940335     A.U. after   12 cycles
 SCF Done:  E(RB3LYP) =  -267.949274965     A.U. after   12 cycles
 SCF Done:  E(RB3LYP) =  -267.940250716     A.U. after   15 cycles
 SCF Done:  E(RB3LYP) =  -267.950005990     A.U. after   12 cycles
 SCF Done:  E(RB3LYP) =  -267.950678742     A.U. after   14 cycles
 SCF Done:  E(RB3LYP) =  -267.951488792     A.U. after   11 cycles
 SCF Done:  E(RB3LYP) =  -267.952222957     A.U. after   11 cycles
 SCF Done:  E(RB3LYP) =  -267.952354934     A.U. after   11 cycles
 SCF Done:  E(RB3LYP) =  -267.952646079     A.U. after    8 cycles
 SCF Done:  E(RB3LYP) =  -267.952646169     A.U. after    7 cycles
 SCF Done:  E(RB3LYP) =  -267.952646169     A.U. after    7 cycles
 Optimization completed.
    -- Stationary point found.
 Normal termination of Gaussian 09 at Thu Aug 25 00:20:38 2022.

 ----------------------------------------------------------
 #P Geom=AllCheck Guess=TCheck SCRF=Check B3LYP/GTBas3 Freq
 ----------------------------------------------------------

 Structure from the checkpoint file:  "G4.Frag_961.chk"
 --------
 Frag_961
 --------
 Charge =  0 Multiplicity = 1

 SCF Done:  E(RB3LYP) =  -267.952646169     A.U. after    1 cycles

  Exact polarizability:  66.501  -0.000  51.231   2.311  -0.000  56.159
 Approx polarizability:  93.763  -0.001  71.292   7.197  -0.001  83.269

                      1                      2                      3
                      A                      A                      A
 Frequencies --     64.5152               179.4216               238.0456
 Red. masses --      2.2370                 1.2090                 1.0427
 Frc consts  --      0.0055                 0.0229                 0.0348
 IR Inten    --     23.1753                15.3219                 5.4510

                      4                      5                      6
                      A                      A                      A
 Frequencies --    252.8126               292.2066               324.7615
 Red. masses --      1.1564                 2.3616                 2.0090
 Frc consts  --      0.0435                 0.1188                 0.1248
 IR Inten    --      1.1070                 6.0330                14.1304

                      7                      8                      9
                      A                      A                      A
 Frequencies --    346.4316               408.0141               431.1180
 Red. masses --      2.5375                 2.5832                 2.2481
 Frc consts  --      0.1794                 0.2534                 0.2462
 IR Inten    --      2.9189                 3.7642                 0.6131

                     10                     11                     12
                      A                      A                      A
 Frequencies --    610.0600               765.9295               805.1559
 Red. masses --      3.7060                 3.1891                 1.5716
 Frc consts  --      0.8126                 1.1023                 0.6003
 IR Inten    --     12.3040                20.0775                40.5110

                     13                     14                     15
                      A                      A                      A
 Frequencies --    880.3396               924.8778               941.4700
 Red. masses --      2.0371                 1.7730                 1.5148
 Frc consts  --      0.9302                 0.8936                 0.7911
 IR Inten    --      7.9349               116.1185                 0.0000

                     16                     17                     18
                      A                      A                      A
 Frequencies --   1009.2635              1036.9865              1078.4102
 Red. masses --      1.2812                 1.3883                 1.6305
 Frc consts  --      0.7689                 0.8796                 1.1172
 IR Inten    --      0.0124                41.9722                12.6052

                     19                     20                     21
                      A                      A                      A
 Frequencies --   1125.1786              1174.0361              1234.0494
 Red. masses --      1.2674                 1.2791                 2.3777
 Frc consts  --      0.9454                 1.0387                 2.1334
 IR Inten    --      7.4805                52.3763                24.7848

                     22                     23                     24
                      A                      A                      A
 Frequencies --   1303.5401              1343.1225              1392.1272
 Red. masses --      2.2057                 1.6744                 1.2669
 Frc consts  --      2.2082                 1.7796                 1.4466
 IR Inten    --      2.2394                 3.3787                 5.7730

                     25                     26                     27
                      A                      A                      A
 Frequencies --   1401.8578              1423.2224              1480.6600
 Red. masses --      1.3145                 1.3592                 1.0522
 Frc consts  --      1.5221                 1.6221                 1.3592
 IR Inten    --     27.0274                 7.6457                 0.8384

                     28                     29                     30
                      A                      A                      A
 Frequencies --   1486.4624              1495.3535              1507.6887
 Red. masses --      1.0495                 1.0604                 1.0574
 Frc consts  --      1.3663                 1.3971                 1.4161
 IR Inten    --      0.4586                 1.1840                 6.6082

                     31                     32                     33
                      A                      A                      A
 Frequencies --   1671.4670              1729.8337              2984.7742
 Red. masses --      1.0983                 6.7894                 1.0857
 Frc consts  --      1.8078                11.9699                 5.6990
 IR Inten    --     17.4546                63.2488                56.9152

                     34                     35                     36
                      A                      A                      A
 Frequencies --   3032.4490              3036.9509              3101.0907
 Red. masses --      1.0344                 1.0359                 1.1016
 Frc consts  --      5.6042                 5.6290                 6.2417
 IR Inten    --     29.0511                11.5025                13.2745

                     37                     38                     39
                      A                      A                      A
 Frequencies --   3103.9389              3118.7755              3123.0698
 Red. masses --      1.1008                 1.1022                 1.1013
 Frc consts  --      6.2485                 6.3165                 6.3288
 IR Inten    --     40.0704                 2.1510                32.5791

                     40                     41                     42
                      A                      A                      A
 Frequencies --   3447.9875              3473.7365              3537.4032
 Red. masses --      1.0758                 1.0504                 1.0892
 Frc consts  --      7.5358                 7.4677                 8.0305
 IR Inten    --      1.1832                 0.0603                 0.1186

 - Thermochemistry -
 -------------------
 Temperature   298.150 Kelvin.  Pressure   1.00000 Atm.
 Atom     1 has atomic number  6 and mass  12.00000

 Molecular mass:    86.08440 amu.
 Principal axes and moments of inertia in atomic units:
                           1         2         3
     Eigenvalues --   394.30161 653.63852 655.91404
           X            0.99986  -0.00001   0.01686
           Y            0.00000   1.00000   0.00042
           Z           -0.01686  -0.00042   0.99986
 This molecule is an asymmetric top.
 Rotational symmetry number  1.
 Rotational temperatures (Kelvin)      0.21966     0.13251     0.13205
 Rotational constants (GHZ):           4.57706     2.76107     2.75149
 Zero-point vibrational energy     372748.0 (Joules/Mol)
                                   89.08890 (Kcal/Mol)
 Warning -- explicit consideration of  10 degrees of freedom as
           vibrations may cause significant error
 Vibrational temperatures:     92.82   258.15   342.49   363.74   420.42
          (Kelvin)            467.26   498.44   587.04   620.28   877.74
                             1102.00  1158.44  1266.61  1330.69  1354.56
                             1452.10  1491.99  1551.59  1618.88  1689.17
                             1775.52  1875.50  1932.45  2002.96  2016.96
                             2047.70  2130.34  2138.69  2151.48  2169.23
                             2404.87  2488.84  4294.42  4363.01  4369.49
                             4461.77  4465.87  4487.22  4493.40  4960.88
                             4997.93  5089.53

 Zero-point correction=                           0.141972 (Hartree/Particle)
 Thermal correction to Energy=                    0.149647
 Thermal correction to Enthalpy=                  0.150592
 Thermal correction to Gibbs Free Energy=         0.110870
 Sum of electronic and zero-point Energies=           -267.810674
 Sum of electronic and thermal Energies=              -267.802999
 Sum of electronic and thermal Enthalpies=            -267.802055
 Sum of electronic and thermal Free Energies=         -267.841776

                     E (Thermal)             CV                S
                      KCal/Mol        Cal/Mol-Kelvin    Cal/Mol-Kelvin
 Total                   93.905             27.533             83.600
 Electronic               0.000              0.000              0.000
 Translational            0.889              2.981             39.271
 Rotational               0.889              2.981             26.627
 Vibrational             92.128             21.571             17.702
 Vibration     1          0.597              1.971              4.314
 Vibration     2          0.629              1.868              2.334
 Vibration     3          0.656              1.782              1.817
 Vibration     4          0.664              1.758              1.711
 Vibration     5          0.688              1.688              1.461
 Vibration     6          0.709              1.626              1.286
 Vibration     7          0.724              1.583              1.182
 Vibration     8          0.773              1.453              0.934
 Vibration     9          0.792              1.402              0.855
 Vibration    10          0.969              1.011              0.433

 Optimization completed.
    -- Stationary point found.
 Normal termination of Gaussian 09 at Thu Aug 25 00:23:45 2022.

 -----------------------------------------------------------------
 #P Geom=AllCheck Guess=TCheck SCRF=Check CCSD(T,E4T,FrzG4)/GTBas1
 -----------------------------------------------------------------

 Structure from the checkpoint file:  "G4.Frag_961.chk"
 --------
 Frag_961
 --------
 Charge =  0 Multiplicity = 1

 SCF Done:  E(RHF) =  -266.166733372     A.U. after   12 cycles
 E2 =    -0.8491843920D+00 EUMP2 =    -0.26701591776355D+03
 CCSD(T)
 CCSD(T)= -0.26710406885D+03
 SDTQ=-267.1029447\MP4SDQ=-267.0742712\CCSD=-267.0752798\CCSD(T)=-267.1
 Normal termination of Gaussian 09 at Thu Aug 25 00:30:39 2022.

 ---------------------------------------------------------
 #P Geom=AllCheck Guess=TCheck SCRF=Check MP4=FrzG4/GTBas2
 ---------------------------------------------------------

 Structure from the checkpoint file:  "G4.Frag_961.chk"
 --------
 Frag_961
 --------
 Charge =  0 Multiplicity = 1

 SCF Done:  E(RHF) =  -266.175319691     A.U. after   13 cycles
 E2 =    -0.8610195600D+00 EUMP2 =    -0.26703633925127D+03
 Normal termination of Gaussian 09 at Thu Aug 25 00:40:08 2022.

 ---------------------------------------------------------
 #P Geom=AllCheck Guess=TCheck SCRF=Check MP4=FrzG4/GTBas3
 ---------------------------------------------------------

 Structure from the checkpoint file:  "G4.Frag_961.chk"
 --------
 Frag_961
 --------
 Charge =  0 Multiplicity = 1

 SCF Done:  E(RHF) =  -266.203553114     A.U. after   11 cycles
 E2 =    -0.1042255511D+01 EUMP2 =    -0.26724580862451D+03
 Normal termination of Gaussian 09 at Thu Aug 25 04:13:26 2022.

 -----------------------------------------------------------
 #P Geom=AllCheck Guess=TCheck SCRF=Check MP2=Full/GTLargeXP
 -----------------------------------------------------------

 Structure from the checkpoint file:  "G4.Frag_961.chk"
 --------
 Frag_961
 --------
 Charge =  0 Multiplicity = 1

 SCF Done:  E(RHF) =  -266.267549031     A.U. after   12 cycles
 E2 =    -0.1368069255D+01 EUMP2 =    -0.26763561828646D+03
 Normal termination of Gaussian 09 at Thu Aug 25 04:20:51 2022.
 SCF Done:  E(RHF) =  -266.288120251     A.U. after    8 cycles
 Normal termination of Gaussian 09 at Thu Aug 25 04:27:29 2022.

                         Standard orientation:
 ---------------------------------------------------------------------
 Center     Atomic      Atomic             Coordinates (Angstroms)
 Number     Number       Type             X           Y           Z
 ---------------------------------------------------------------------
      1          6           0       -1.113566   -1.260618   -0.412512
      2          6           0       -0.350000   -0.000007    0.034584
      3          6           0       -1.113589    1.260668   -0.412326
      4          7           0       -0.269392   -0.000121    1.495951
      5          6           0        1.011754    0.000074   -0.649766
      6          7           0        2.094497   -0.000011    0.010790
      7          1           0       -2.112215   -1.261438    0.032049
      8          1           0       -0.592765   -2.167598   -0.087304
      9          1           0       -1.214338   -1.301685   -1.501799
     10          1           0       -2.112223    1.261382    0.032267
     11          1           0       -0.592806    2.167614   -0.086996
     12          1           0       -1.214383    1.301870   -1.501605
     13          1           0        0.289593   -0.800588    1.784633
     14          1           0        0.289459    0.800395    1.784751
     15          1           0        0.971693    0.000195   -1.750911
     16          1           0        2.904657    0.000076   -0.612149
 ---------------------------------------------------------------------

 SCF Done:  E(RHF) =  -266.292441935     A.U. after    7 cycles

 The electronic state is 1-A.
 Alpha  occ. eigenvalues --  -15.55385 -15.53213 -11.28238 -11.26964 -11.22049
 Alpha  occ. eigenvalues --  -11.22047  -1.22869  -1.17095  -1.02817  -0.94108
 Alpha  occ. eigenvalues --   -0.86117  -0.74077  -0.68991  -0.64988  -0.63766
 Alpha  occ. eigenvalues --   -0.59923  -0.55469  -0.53529  -0.52565  -0.49944
 Alpha  occ. eigenvalues --   -0.48971  -0.43231  -0.43188  -0.39503
 Alpha virt. eigenvalues --    0.03044   0.04164   0.04283   0.05218   0.07108
 Alpha virt. eigenvalues --    0.07160   0.07296   0.07383   0.07530   0.09849
 Alpha virt. eigenvalues --    0.10782   0.11042   0.11114   0.11940   0.12097

 Mulliken charges:
               1
     1  C   -0.564001
     2  C    0.451912
     3  C   -0.564005
     4  N   -0.752297
     5  C   -0.022419
     6  N   -0.638823
     7  H    0.183462
     8  H    0.168555
     9  H    0.163702
    10  H    0.183465
    11  H    0.168555
    12  H    0.163706
    13  H    0.297564
    14  H    0.297553
    15  H    0.174777
    16  H    0.288294
 Sum of Mulliken charges =  -0.00000

 Dipole moment (field-independent basis, Debye):
    X=              0.2061    Y=              0.0004    Z=             -2.4165  Tot=              2.4252
 Quadrupole moment (field-independent basis, Debye-Ang):
   XX=            -40.1426   YY=            -38.1630   ZZ=            -39.1353
   XY=              0.0002   XZ=             -0.8591   YZ=              0.0002

 Normal termination of Gaussian 09 at Thu Aug 25 07:24:28 2022.
