 Gaussian 09, Revision E.01,
 Gaussian 09:  ES64L-G09RevE.01 30-Nov-2015

 -----
 #P G4
 -----

 --------
 Frag_990
 --------
 Symbolic Z-matrix:
 Charge =  0 Multiplicity = 1

 SCF Done:  E(RB3LYP) =  -280.391206955     A.U. after   15 cycles
 SCF Done:  E(RB3LYP) =  -280.461331220     A.U. after   13 cycles
 SCF Done:  E(RB3LYP) =  -280.491381620     A.U. after   13 cycles
 SCF Done:  E(RB3LYP) =  -280.496349910     A.U. after   13 cycles
 SCF Done:  E(RB3LYP) =  -280.497108313     A.U. after   13 cycles
 SCF Done:  E(RB3LYP) =  -280.497365039     A.U. after   13 cycles
 SCF Done:  E(RB3LYP) =  -280.497388439     A.U. after    9 cycles
 SCF Done:  E(RB3LYP) =  -280.497397297     A.U. after   10 cycles
 SCF Done:  E(RB3LYP) =  -280.497401373     A.U. after    9 cycles
 SCF Done:  E(RB3LYP) =  -280.497403919     A.U. after   11 cycles
 SCF Done:  E(RB3LYP) =  -280.498319435     A.U. after   10 cycles
 SCF Done:  E(RB3LYP) =  -280.498326211     A.U. after   11 cycles
 SCF Done:  E(RB3LYP) =  -280.498327111     A.U. after    9 cycles
 Optimization completed.
    -- Stationary point found.
 Normal termination of Gaussian 09 at Tue Aug 30 12:05:48 2022.

 ----------------------------------------------------------
 #P Geom=AllCheck Guess=TCheck SCRF=Check B3LYP/GTBas3 Freq
 ----------------------------------------------------------

 Structure from the checkpoint file:  "G4.Frag_990.chk"
 --------
 Frag_990
 --------
 Charge =  0 Multiplicity = 1

 SCF Done:  E(RB3LYP) =  -280.498327111     A.U. after    1 cycles

  Exact polarizability:  51.888   1.485  36.835  -0.002   0.001  27.954
 Approx polarizability:  88.926   2.478  50.978  -0.003   0.000  41.149

                      1                      2                      3
                      A                      A                      A
 Frequencies --    113.3364               166.0740               279.3393
 Red. masses --      1.4161                 1.8499                 1.3663
 Frc consts  --      0.0107                 0.0301                 0.0628
 IR Inten    --      0.9887                 4.3675                20.6865

                      4                      5                      6
                      A                      A                      A
 Frequencies --    368.9092               390.6277               432.8894
 Red. masses --      3.7148                 3.5243                 3.2164
 Frc consts  --      0.2979                 0.3168                 0.3551
 IR Inten    --      4.5490                 9.9012                 1.8206

                      7                      8                      9
                      A                      A                      A
 Frequencies --    693.3070               836.0983               879.0208
 Red. masses --      6.2878                 4.8951                 1.6275
 Frc consts  --      1.7807                 2.0161                 0.7409
 IR Inten    --      0.7056                16.8621               143.4675

                     10                     11                     12
                      A                      A                      A
 Frequencies --   1050.5206              1129.4841              1242.8808
 Red. masses --      1.7159                 1.2737                 5.7780
 Frc consts  --      1.1157                 0.9573                 5.2588
 IR Inten    --    106.1036                 1.1641                94.1040

                     13                     14                     15
                      A                      A                      A
 Frequencies --   1336.2355              1347.9599              1406.7660
 Red. masses --      1.1626                 3.6378                 1.1849
 Frc consts  --      1.2230                 3.8944                 1.3816
 IR Inten    --      2.1551                 3.9942                 5.1575

                     16                     17                     18
                      A                      A                      A
 Frequencies --   1492.0927              1496.0999              1586.5721
 Red. masses --      1.0467                 1.0761                12.0422
 Frc consts  --      1.3730                 1.4191                17.8597
 IR Inten    --     10.7723                 8.8908               176.8773

                     19                     20                     21
                      A                      A                      A
 Frequencies --   1700.0068              3026.0412              3083.7948
 Red. masses --      1.0926                 1.0353                 1.1044
 Frc consts  --      1.8604                 5.5857                 6.1877
 IR Inten    --     15.3874                31.2562                23.9617

                     22                     23                     24
                      A                      A                      A
 Frequencies --   3159.6507              3453.1989              3530.2410
 Red. masses --      1.0970                 1.0454                 1.0970
 Frc consts  --      6.4528                 7.3445                 8.0548
 IR Inten    --      1.8603                 1.1463                 1.3330

 - Thermochemistry -
 -------------------
 Temperature   298.150 Kelvin.  Pressure   1.00000 Atm.
 Atom     1 has atomic number  6 and mass  12.00000

 Molecular mass:    75.04326 amu.
 Principal axes and moments of inertia in atomic units:
                           1         2         3
     Eigenvalues --   194.62401 393.32536 566.74679
           X            1.00000  -0.00304  -0.00002
           Y            0.00304   1.00000   0.00005
           Z            0.00002  -0.00005   1.00000
 This molecule is an asymmetric top.
 Rotational symmetry number  1.
 Rotational temperatures (Kelvin)      0.44503     0.22021     0.15283
 Rotational constants (GHZ):           9.27296     4.58842     3.18439
 Zero-point vibrational energy     204568.3 (Joules/Mol)
                                   48.89299 (Kcal/Mol)
 Warning -- explicit consideration of   6 degrees of freedom as
           vibrations may cause significant error
 Vibrational temperatures:    163.07   238.94   401.91   530.78   562.03
          (Kelvin)            622.83   997.51  1202.96  1264.71  1511.46
                             1625.07  1788.23  1922.54  1939.41  2024.02
                             2146.79  2152.55  2282.72  2445.93  4353.79
                             4436.89  4546.03  4968.38  5079.22

 Zero-point correction=                           0.077916 (Hartree/Particle)
 Thermal correction to Energy=                    0.083809
 Thermal correction to Enthalpy=                  0.084753
 Thermal correction to Gibbs Free Energy=         0.049019
 Sum of electronic and zero-point Energies=           -280.420411
 Sum of electronic and thermal Energies=              -280.414518
 Sum of electronic and thermal Enthalpies=            -280.413574
 Sum of electronic and thermal Free Energies=         -280.449308

                     E (Thermal)             CV                S
                      KCal/Mol        Cal/Mol-Kelvin    Cal/Mol-Kelvin
 Total                   52.591             19.251             75.210
 Electronic               0.000              0.000              0.000
 Translational            0.889              2.981             38.862
 Rotational               0.889              2.981             25.276
 Vibrational             50.814             13.289             11.072
 Vibration     1          0.607              1.938              3.211
 Vibration     2          0.624              1.884              2.479
 Vibration     3          0.680              1.712              1.538
 Vibration     4          0.741              1.536              1.084
 Vibration     5          0.758              1.490              0.998
 Vibration     6          0.794              1.399              0.849

 Normal termination of Gaussian 09 at Tue Aug 30 12:06:07 2022.

 -----------------------------------------------------------------
 #P Geom=AllCheck Guess=TCheck SCRF=Check CCSD(T,E4T,FrzG4)/GTBas1
 -----------------------------------------------------------------

 Structure from the checkpoint file:  "G4.Frag_990.chk"
 --------
 Frag_990
 --------
 Charge =  0 Multiplicity = 1

 SCF Done:  E(RHF) =  -278.845008404     A.U. after   14 cycles
 E2 =    -0.8055030178D+00 EUMP2 =    -0.27965051142209D+03
 CCSD(T)
 CCSD(T)= -0.27970829193D+03
 Normal termination of Gaussian 09 at Tue Aug 30 12:07:05 2022.

 ---------------------------------------------------------
 #P Geom=AllCheck Guess=TCheck SCRF=Check MP4=FrzG4/GTBas2
 ---------------------------------------------------------

 Structure from the checkpoint file:  "G4.Frag_990.chk"
 --------
 Frag_990
 --------
 Charge =  0 Multiplicity = 1

 SCF Done:  E(RHF) =  -278.854482343     A.U. after   14 cycles
 E2 =    -0.8174292554D+00 EUMP2 =    -0.27967191159840D+03
 Normal termination of Gaussian 09 at Tue Aug 30 12:07:19 2022.

 ---------------------------------------------------------
 #P Geom=AllCheck Guess=TCheck SCRF=Check MP4=FrzG4/GTBas3
 ---------------------------------------------------------

 Structure from the checkpoint file:  "G4.Frag_990.chk"
 --------
 Frag_990
 --------
 Charge =  0 Multiplicity = 1

 SCF Done:  E(RHF) =  -278.878434783     A.U. after   12 cycles
 E2 =    -0.9740814057D+00 EUMP2 =    -0.27985251618917D+03
 Normal termination of Gaussian 09 at Tue Aug 30 12:08:26 2022.

 -----------------------------------------------------------
 #P Geom=AllCheck Guess=TCheck SCRF=Check MP2=Full/GTLargeXP
 -----------------------------------------------------------

 Structure from the checkpoint file:  "G4.Frag_990.chk"
 --------
 Frag_990
 --------
 Charge =  0 Multiplicity = 1

 SCF Done:  E(RHF) =  -278.953678428     A.U. after   13 cycles
 E2 =    -0.1262312824D+01 EUMP2 =    -0.28021599125173D+03
 Normal termination of Gaussian 09 at Tue Aug 30 12:09:09 2022.
 SCF Done:  E(RHF) =  -278.976434292     A.U. after   10 cycles
 Normal termination of Gaussian 09 at Tue Aug 30 12:10:01 2022.

                         Standard orientation:
 ---------------------------------------------------------------------
 Center     Atomic      Atomic             Coordinates (Angstroms)
 Number     Number       Type             X           Y           Z
 ---------------------------------------------------------------------
      1          6           0        0.372181    1.400002    0.000017
      2          7           0        0.333818   -0.053512   -0.000176
      3          7           0        1.494274   -0.823186    0.000170
      4          7           0       -0.803179   -0.773264    0.000352
      5          8           0       -1.828849   -0.117351   -0.000144
      6          1           0        0.893020    1.767330    0.891492
      7          1           0       -0.659814    1.751079    0.000742
      8          1           0        0.891517    1.767581   -0.892290
      9          1           0        2.049924   -0.597463    0.822345
     10          1           0        2.048676   -0.599997   -0.823663
 ---------------------------------------------------------------------

 SCF Done:  E(RHF) =  -278.981110958     A.U. after    8 cycles

 The electronic state is 1-A.
 Alpha  occ. eigenvalues --  -20.57768 -15.72588 -15.65266 -15.61018 -11.27781
 Alpha  occ. eigenvalues --   -1.51243  -1.33653  -1.12238  -1.01885  -0.82265
 Alpha  occ. eigenvalues --   -0.73259  -0.73009  -0.70669  -0.62514  -0.59603
 Alpha  occ. eigenvalues --   -0.57883  -0.57661  -0.46551  -0.41023  -0.39810
 Alpha virt. eigenvalues --    0.03262   0.04831   0.04934   0.06114   0.08205
 Alpha virt. eigenvalues --    0.08805   0.08924   0.10120   0.11735   0.12567
 Alpha virt. eigenvalues --    0.12598   0.14658   0.15155   0.15753   0.17661

 Mulliken charges:
               1
     1  C   -0.472192
     2  N    0.086269
     3  N   -0.570097
     4  N    0.153550
     5  O   -0.412624
     6  H    0.174650
     7  H    0.246994
     8  H    0.174710
     9  H    0.309354
    10  H    0.309387
 Sum of Mulliken charges =  -0.00000

 Dipole moment (field-independent basis, Debye):
    X=              4.2825    Y=              2.4331    Z=             -0.0018  Tot=              4.9254
 Quadrupole moment (field-independent basis, Debye-Ang):
   XX=            -30.6613   YY=            -31.8583   ZZ=            -27.7389
   XY=              0.0044   XZ=             -0.0030   YZ=              0.0074

 Normal termination of Gaussian 09 at Tue Aug 30 12:14:42 2022.
