 Gaussian 09, Revision E.01,
 Gaussian 09:  ES64L-G09RevE.01 30-Nov-2015

 -----
 #P G4
 -----

 --------
 Frag_777
 --------
 Symbolic Z-matrix:
 Charge =  0 Multiplicity = 1

 SCF Done:  E(RB3LYP) =  -264.467839145     A.U. after   17 cycles
 SCF Done:  E(RB3LYP) =  -264.486831785     A.U. after   13 cycles
 SCF Done:  E(RB3LYP) =  -264.488353882     A.U. after   12 cycles
 SCF Done:  E(RB3LYP) =  -264.488584075     A.U. after   11 cycles
 SCF Done:  E(RB3LYP) =  -264.488664466     A.U. after   11 cycles
 SCF Done:  E(RB3LYP) =  -264.488685810     A.U. after    9 cycles
 SCF Done:  E(RB3LYP) =  -264.488689148     A.U. after    8 cycles
 SCF Done:  E(RB3LYP) =  -264.488686538     A.U. after    8 cycles
 SCF Done:  E(RB3LYP) =  -264.488690511     A.U. after    8 cycles
 Optimization completed.
    -- Stationary point found.
 Normal termination of Gaussian 09 at Wed Aug 24 03:46:41 2022.

 ----------------------------------------------------------
 #P Geom=AllCheck Guess=TCheck SCRF=Check B3LYP/GTBas3 Freq
 ----------------------------------------------------------

 Structure from the checkpoint file:  "G4.Frag_777.chk"
 --------
 Frag_777
 --------
 Charge =  0 Multiplicity = 1

 SCF Done:  E(RB3LYP) =  -264.488690511     A.U. after    1 cycles

  Exact polarizability:  54.544   1.990  41.227  -0.000  -0.000  29.654
 Approx polarizability:  86.917   7.442  59.437  -0.000  -0.000  44.347

                      1                      2                      3
                      A                      A                      A
 Frequencies --     69.7957               181.1245               211.5624
 Red. masses --      1.0655                 1.4839                 1.8271
 Frc consts  --      0.0031                 0.0287                 0.0482
 IR Inten    --      0.6035                 6.6688                13.0381

                      4                      5                      6
                      A                      A                      A
 Frequencies --    330.9667               492.7312               556.2807
 Red. masses --      2.8580                 2.9717                 5.2307
 Frc consts  --      0.1844                 0.4251                 0.9537
 IR Inten    --     11.4314                 1.8713                 8.3589

                      7                      8                      9
                      A                      A                      A
 Frequencies --    583.1396               728.7958               857.8700
 Red. masses --      2.4882                 5.8849                 8.1706
 Frc consts  --      0.4985                 1.8416                 3.5428
 IR Inten    --      6.1499                10.2898                13.1873

                     10                     11                     12
                      A                      A                      A
 Frequencies --    974.1144              1023.4862              1029.7808
 Red. masses --      1.4227                 1.6684                 1.3352
 Frc consts  --      0.7954                 1.0297                 0.8342
 IR Inten    --     32.2047                 0.0010                15.6579

                     13                     14                     15
                      A                      A                      A
 Frequencies --   1089.0236              1334.1367              1380.2592
 Red. masses --      1.4627                 2.0500                 1.7690
 Frc consts  --      1.0221                 2.1499                 1.9856
 IR Inten    --     34.0744                64.3041                77.2517

                     16                     17                     18
                      A                      A                      A
 Frequencies --   1459.0634              1467.0764              1500.1194
 Red. masses --      1.1420                 1.1732                 1.0485
 Frc consts  --      1.4324                 1.4878                 1.3901
 IR Inten    --     49.2740                 4.1754                 3.3336

                     19                     20                     21
                      A                      A                      A
 Frequencies --   1642.6188              1642.8236              1742.1087
 Red. masses --      1.0560                 1.0567                10.1665
 Frc consts  --      1.6787                 1.6802                18.1792
 IR Inten    --     78.2123                40.7215               310.6611

                     22                     23                     24
                      A                      A                      A
 Frequencies --   2993.5682              3045.8557              3157.5849
 Red. masses --      1.0427                 1.0991                 1.0941
 Frc consts  --      5.5051                 6.0074                 6.4271
 IR Inten    --     25.7655                36.7194                 4.6217

                     25                     26                     27
                      A                      A                      A
 Frequencies --   3296.0207              3345.6503              3530.5234
 Red. masses --      1.0325                 1.0950                 1.0826
 Frc consts  --      6.6090                 7.2213                 7.9504
 IR Inten    --     23.3685                 3.0518                64.6462

 - Thermochemistry -
 -------------------
 Temperature   298.150 Kelvin.  Pressure   1.00000 Atm.
 Atom     1 has atomic number  6 and mass  12.00000

 Molecular mass:    74.04801 amu.
 Principal axes and moments of inertia in atomic units:
                           1         2         3
     Eigenvalues --   200.44236 422.39915 601.71045
           X            0.99941  -0.03422   0.00000
           Y            0.03422   0.99941  -0.00000
           Z           -0.00000   0.00000   1.00000
 This molecule is an asymmetric top.
 Rotational symmetry number  1.
 Rotational temperatures (Kelvin)      0.43211     0.20505     0.14395
 Rotational constants (GHZ):           9.00379     4.27260     2.99935
 Zero-point vibrational energy     237255.8 (Joules/Mol)
                                   56.70551 (Kcal/Mol)
 Warning -- explicit consideration of   7 degrees of freedom as
           vibrations may cause significant error
 Vibrational temperatures:    100.42   260.60   304.39   476.19   708.93
          (Kelvin)            800.36   839.01  1048.57  1234.28  1401.53
                             1472.57  1481.62  1566.86  1919.52  1985.88
                             2099.26  2110.79  2158.33  2363.36  2363.65
                             2506.50  4307.07  4382.30  4543.05  4742.23
                             4813.64  5079.63

 Zero-point correction=                           0.090366 (Hartree/Particle)
 Thermal correction to Energy=                    0.096433
 Thermal correction to Enthalpy=                  0.097378
 Thermal correction to Gibbs Free Energy=         0.060991
 Sum of electronic and zero-point Energies=           -264.398325
 Sum of electronic and thermal Energies=              -264.392257
 Sum of electronic and thermal Enthalpies=            -264.391313
 Sum of electronic and thermal Free Energies=         -264.427700

                     E (Thermal)             CV                S
                      KCal/Mol        Cal/Mol-Kelvin    Cal/Mol-Kelvin
 Total                   60.513             20.034             76.582
 Electronic               0.000              0.000              0.000
 Translational            0.889              2.981             38.822
 Rotational               0.889              2.981             25.436
 Vibrational             58.735             14.073             12.324
 Vibration     1          0.598              1.969              4.159
 Vibration     2          0.630              1.865              2.317
 Vibration     3          0.643              1.823              2.030
 Vibration     4          0.713              1.614              1.255
 Vibration     5          0.848              1.266              0.677
 Vibration     6          0.912              1.126              0.531
 Vibration     7          0.940              1.068              0.480

 Optimization completed.
    -- Stationary point found.
 Normal termination of Gaussian 09 at Wed Aug 24 03:47:56 2022.

 -----------------------------------------------------------------
 #P Geom=AllCheck Guess=TCheck SCRF=Check CCSD(T,E4T,FrzG4)/GTBas1
 -----------------------------------------------------------------

 Structure from the checkpoint file:  "G4.Frag_777.chk"
 --------
 Frag_777
 --------
 Charge =  0 Multiplicity = 1

 SCF Done:  E(RHF) =  -262.892143653     A.U. after   13 cycles
 E2 =    -0.7641369241D+00 EUMP2 =    -0.26365628057739D+03
 CCSD(T)
 CCSD(T)= -0.26371720009D+03
 0707\MP4SDQ=-263.6922609\CCSD=-263.6911473\CCSD(T)=-263.7172001\RMSD=9
 Normal termination of Gaussian 09 at Wed Aug 24 03:49:41 2022.

 ---------------------------------------------------------
 #P Geom=AllCheck Guess=TCheck SCRF=Check MP4=FrzG4/GTBas2
 ---------------------------------------------------------

 Structure from the checkpoint file:  "G4.Frag_777.chk"
 --------
 Frag_777
 --------
 Charge =  0 Multiplicity = 1

 SCF Done:  E(RHF) =  -262.904158361     A.U. after   13 cycles
 E2 =    -0.7769998431D+00 EUMP2 =    -0.26368115820391D+03
 Normal termination of Gaussian 09 at Wed Aug 24 03:51:35 2022.

 ---------------------------------------------------------
 #P Geom=AllCheck Guess=TCheck SCRF=Check MP4=FrzG4/GTBas3
 ---------------------------------------------------------

 Structure from the checkpoint file:  "G4.Frag_777.chk"
 --------
 Frag_777
 --------
 Charge =  0 Multiplicity = 1

 SCF Done:  E(RHF) =  -262.925925518     A.U. after   12 cycles
 E2 =    -0.9318718719D+00 EUMP2 =    -0.26385779739022D+03
 Normal termination of Gaussian 09 at Wed Aug 24 04:27:15 2022.

 -----------------------------------------------------------
 #P Geom=AllCheck Guess=TCheck SCRF=Check MP2=Full/GTLargeXP
 -----------------------------------------------------------

 Structure from the checkpoint file:  "G4.Frag_777.chk"
 --------
 Frag_777
 --------
 Charge =  0 Multiplicity = 1

 SCF Done:  E(RHF) =  -263.000566393     A.U. after   12 cycles
 E2 =    -0.1216231981D+01 EUMP2 =    -0.26421679837435D+03
 Normal termination of Gaussian 09 at Wed Aug 24 04:29:38 2022.
 SCF Done:  E(RHF) =  -263.021021821     A.U. after   10 cycles
 Normal termination of Gaussian 09 at Wed Aug 24 04:33:00 2022.

                         Standard orientation:
 ---------------------------------------------------------------------
 Center     Atomic      Atomic             Coordinates (Angstroms)
 Number     Number       Type             X           Y           Z
 ---------------------------------------------------------------------
      1          6           0       -0.559451    1.351864   -0.000002
      2          6           0       -0.600057   -0.194593   -0.000018
      3          8           0       -1.686496   -0.758188    0.000013
      4          7           0        0.553498   -0.915868   -0.000011
      5          7           0        1.732161   -0.029047    0.000007
      6          1           0       -1.590033    1.703922    0.000017
      7          1           0       -0.059288    1.767745    0.886416
      8          1           0       -0.059311    1.767767   -0.886422
      9          1           0        1.814113    0.579511   -0.825883
     10          1           0        2.529838   -0.662160    0.000017
     11          1           0        1.814089    0.579507    0.825903
 ---------------------------------------------------------------------

 SCF Done:  E(RHF) =  -263.025499280     A.U. after    8 cycles

 The electronic state is 1-A.
 Alpha  occ. eigenvalues --  -20.47412 -15.72039 -15.54547 -11.31297 -11.23605
 Alpha  occ. eigenvalues --   -1.35797  -1.31914  -1.08748  -0.98163  -0.79611
 Alpha  occ. eigenvalues --   -0.77795  -0.72154  -0.65727  -0.59254  -0.58043
 Alpha  occ. eigenvalues --   -0.55241  -0.49715  -0.45067  -0.37859  -0.34843
 Alpha virt. eigenvalues --    0.00914   0.03444   0.04740   0.05899   0.07351
 Alpha virt. eigenvalues --    0.07588   0.07971   0.08391   0.08960   0.10800
 Alpha virt. eigenvalues --    0.12905   0.14596   0.15003   0.15232   0.16158

 Mulliken charges:
               1
     1  C   -0.576263
     2  C    0.502859
     3  O   -0.621404
     4  N   -0.501258
     5  N   -0.451815
     6  H    0.235328
     7  H    0.161766
     8  H    0.161768
     9  H    0.357277
    10  H    0.374465
    11  H    0.357277
 Sum of Mulliken charges =  -0.00000

 Dipole moment (field-independent basis, Debye):
    X=              7.9368    Y=              5.1370    Z=              0.0000  Tot=              9.4542
 Quadrupole moment (field-independent basis, Debye-Ang):
   XX=            -25.3540   YY=            -34.7807   ZZ=            -29.4784
   XY=             -2.5235   XZ=              0.0002   YZ=             -0.0000

 Normal termination of Gaussian 09 at Wed Aug 24 05:54:52 2022.
