 Gaussian 09, Revision E.01,
 Gaussian 09:  ES64L-G09RevE.01 30-Nov-2015

 -----
 #P G4
 -----

 --------
 Frag_973
 --------
 Symbolic Z-matrix:
 Charge =  0 Multiplicity = 1

 SCF Done:  E(RB3LYP) =  -364.267350150     A.U. after   12 cycles
 SCF Done:  E(RB3LYP) =  -364.273838995     A.U. after   11 cycles
 SCF Done:  E(RB3LYP) =  -364.274233766     A.U. after   10 cycles
 SCF Done:  E(RB3LYP) =  -364.274321162     A.U. after   10 cycles
 SCF Done:  E(RB3LYP) =  -364.274387838     A.U. after   10 cycles
 SCF Done:  E(RB3LYP) =  -364.274427775     A.U. after    9 cycles
 SCF Done:  E(RB3LYP) =  -364.274445271     A.U. after    9 cycles
 SCF Done:  E(RB3LYP) =  -364.274449686     A.U. after    8 cycles
 SCF Done:  E(RB3LYP) =  -364.274452303     A.U. after    7 cycles
 SCF Done:  E(RB3LYP) =  -364.274452695     A.U. after    7 cycles
 Optimization completed.
    -- Stationary point found.
 Normal termination of Gaussian 09 at Fri Aug 26 11:16:29 2022.

 ----------------------------------------------------------
 #P Geom=AllCheck Guess=TCheck SCRF=Check B3LYP/GTBas3 Freq
 ----------------------------------------------------------

 Structure from the checkpoint file:  "G4.Frag_973.chk"
 --------
 Frag_973
 --------
 Charge =  0 Multiplicity = 1

 SCF Done:  E(RB3LYP) =  -364.274452695     A.U. after    1 cycles

  Exact polarizability:  62.900   0.541  59.224   0.060  -0.881  56.633
 Approx polarizability:  85.023   0.411  84.321   0.059   0.956  80.688

                      1                      2                      3
                      A                      A                      A
 Frequencies --    107.9350               213.6426               237.9314
 Red. masses --      4.0231                 1.0604                 1.7635
 Frc consts  --      0.0276                 0.0285                 0.0588
 IR Inten    --      0.8962                 1.0752                 2.2497

                      4                      5                      6
                      A                      A                      A
 Frequencies --    246.5068               284.2182               290.7396
 Red. masses --      1.7258                 1.5153                 1.4142
 Frc consts  --      0.0618                 0.0721                 0.0704
 IR Inten    --      0.7273                 9.7787                22.1976

                      7                      8                      9
                      A                      A                      A
 Frequencies --    315.9746               354.0020               360.7839
 Red. masses --      1.2164                 2.2818                 2.6281
 Frc consts  --      0.0716                 0.1685                 0.2016
 IR Inten    --    107.9155                 7.5703                12.4559

                     10                     11                     12
                      A                      A                      A
 Frequencies --    408.8637               427.8983               499.0022
 Red. masses --      1.5352                 1.9572                 3.6008
 Frc consts  --      0.1512                 0.2111                 0.5283
 IR Inten    --     30.6102                16.6277                 8.5932

                     13                     14                     15
                      A                      A                      A
 Frequencies --    546.0500               618.1378               750.1218
 Red. masses --      2.3813                 3.6140                 3.1550
 Frc consts  --      0.4183                 0.8136                 1.0460
 IR Inten    --     66.9782                25.1565                12.2821

                     16                     17                     18
                      A                      A                      A
 Frequencies --    872.7363               919.5862               931.5792
 Red. masses --      1.9248                 1.4903                 1.5168
 Frc consts  --      0.8638                 0.7425                 0.7756
 IR Inten    --     75.4085                80.6863                 1.6596

                     19                     20                     21
                      A                      A                      A
 Frequencies --    976.4669              1010.0324              1042.7271
 Red. masses --      1.7420                 1.4700                 2.7638
 Frc consts  --      0.9786                 0.8836                 1.7705
 IR Inten    --      1.9461                14.0650               127.0223

                     22                     23                     24
                      A                      A                      A
 Frequencies --   1081.4665              1098.8927              1174.7631
 Red. masses --      4.3519                 1.5326                 1.6601
 Frc consts  --      2.9988                 1.0904                 1.3499
 IR Inten    --    101.9619                 7.1079                81.6842

                     25                     26                     27
                      A                      A                      A
 Frequencies --   1255.7441              1275.7600              1299.4624
 Red. masses --      2.2582                 1.5676                 1.5526
 Frc consts  --      2.0981                 1.5033                 1.5447
 IR Inten    --     10.4513                 5.8299                27.9904

                     28                     29                     30
                      A                      A                      A
 Frequencies --   1342.4695              1389.0821              1405.2846
 Red. masses --      1.6459                 1.2678                 1.3310
 Frc consts  --      1.7477                 1.4413                 1.5487
 IR Inten    --      6.6716                 8.4598                 3.2552

                     31                     32                     33
                      A                      A                      A
 Frequencies --   1426.1951              1448.8634              1484.2701
 Red. masses --      1.2439                 1.3791                 1.0531
 Frc consts  --      1.4907                 1.7056                 1.3669
 IR Inten    --      7.8616                53.9119                 2.0316

                     34                     35                     36
                      A                      A                      A
 Frequencies --   1485.5640              1500.2665              1513.7138
 Red. masses --      1.0488                 1.0599                 1.0970
 Frc consts  --      1.3637                 1.4055                 1.4810
 IR Inten    --      0.6786                 4.0831                 8.0720

                     37                     38                     39
                      A                      A                      A
 Frequencies --   1642.2564              3026.2161              3032.7397
 Red. masses --      1.0981                 1.0363                 1.0768
 Frc consts  --      1.7450                 5.5914                 5.8350
 IR Inten    --     32.1497                28.9825                30.2740

                     40                     41                     42
                      A                      A                      A
 Frequencies --   3037.9402              3089.5512              3101.6358
 Red. masses --      1.0465                 1.0994                 1.0987
 Frc consts  --      5.6906                 6.1828                 6.2277
 IR Inten    --     21.8501                30.8659                26.2985

                     43                     44                     45
                      A                      A                      A
 Frequencies --   3113.1871              3135.7900              3482.8221
 Red. masses --      1.1013                 1.1008                 1.0485
 Frc consts  --      6.2888                 6.3773                 7.4935
 IR Inten    --     19.8980                19.4733                 1.5320

                     46                     47                     48
                      A                      A                      A
 Frequencies --   3565.8897              3788.1345              3815.1372
 Red. masses --      1.0924                 1.0648                 1.0658
 Frc consts  --      8.1841                 9.0029                 9.1402
 IR Inten    --      0.6821                16.7522                30.9461

 - Thermochemistry -
 -------------------
 Temperature   298.150 Kelvin.  Pressure   1.00000 Atm.
 Atom     1 has atomic number  6 and mass  12.00000

 Molecular mass:   105.07898 amu.
 Principal axes and moments of inertia in atomic units:
                           1         2         3
     Eigenvalues --   560.98390 779.47909 926.34025
           X            0.99988  -0.01345  -0.00791
           Y            0.01281   0.99701  -0.07626
           Z            0.00892   0.07615   0.99706
 This molecule is an asymmetric top.
 Rotational symmetry number  1.
 Warning -- assumption of classical behavior for rotation
           may cause significant error
 Rotational temperatures (Kelvin)      0.15440     0.11112     0.09350
 Rotational constants (GHZ):           3.21710     2.31532     1.94825
 Zero-point vibrational energy     415271.9 (Joules/Mol)
                                   99.25236 (Kcal/Mol)
 Warning -- explicit consideration of  14 degrees of freedom as
           vibrations may cause significant error
 Vibrational temperatures:    155.29   307.38   342.33   354.67   408.93
          (Kelvin)            418.31   454.62   509.33   519.09   588.26
                              615.65   717.95   785.64   889.36  1079.26
                             1255.67  1323.08  1340.33  1404.92  1453.21
                             1500.25  1555.99  1581.06  1690.22  1806.73
                             1835.53  1869.63  1931.51  1998.58  2021.89
                             2051.97  2084.59  2135.53  2137.39  2158.55
                             2177.89  2362.84  4354.04  4363.43  4370.91
                             4445.17  4462.56  4479.18  4511.70  5011.00
                             5130.51  5450.27  5489.12

 Zero-point correction=                           0.158169 (Hartree/Particle)
 Thermal correction to Energy=                    0.166912
 Thermal correction to Enthalpy=                  0.167856
 Thermal correction to Gibbs Free Energy=         0.126235
 Sum of electronic and zero-point Energies=           -364.116284
 Sum of electronic and thermal Energies=              -364.107541
 Sum of electronic and thermal Enthalpies=            -364.106596
 Sum of electronic and thermal Free Energies=         -364.148218

                     E (Thermal)             CV                S
                      KCal/Mol        Cal/Mol-Kelvin    Cal/Mol-Kelvin
 Total                  104.739             33.155             87.599
 Electronic               0.000              0.000              0.000
 Translational            0.889              2.981             39.866
 Rotational               0.889              2.981             27.496
 Vibrational            102.962             27.194             20.238
 Vibration     1          0.606              1.943              3.306
 Vibration     2          0.644              1.820              2.012
 Vibration     3          0.656              1.783              1.818
 Vibration     4          0.661              1.769              1.755
 Vibration     5          0.683              1.703              1.508
 Vibration     6          0.687              1.691              1.470
 Vibration     7          0.703              1.643              1.331
 Vibration     8          0.730              1.567              1.148
 Vibration     9          0.735              1.553              1.119
 Vibration    10          0.773              1.451              0.931
 Vibration    11          0.789              1.410              0.866
 Vibration    12          0.854              1.252              0.661
 Vibration    13          0.901              1.148              0.552
 Vibration    14          0.978              0.994              0.419

 Optimization completed.
    -- Stationary point found.
 Normal termination of Gaussian 09 at Fri Aug 26 11:17:23 2022.

 -----------------------------------------------------------------
 #P Geom=AllCheck Guess=TCheck SCRF=Check CCSD(T,E4T,FrzG4)/GTBas1
 -----------------------------------------------------------------

 Structure from the checkpoint file:  "G4.Frag_973.chk"
 --------
 Frag_973
 --------
 Charge =  0 Multiplicity = 1

 SCF Done:  E(RHF) =  -362.033718471     A.U. after   12 cycles
 E2 =    -0.1053241847D+01 EUMP2 =    -0.36308696031824D+03
 CCSD(T)
 CCSD(T)= -0.36317804380D+03
 Normal termination of Gaussian 09 at Fri Aug 26 11:22:18 2022.

 ---------------------------------------------------------
 #P Geom=AllCheck Guess=TCheck SCRF=Check MP4=FrzG4/GTBas2
 ---------------------------------------------------------

 Structure from the checkpoint file:  "G4.Frag_973.chk"
 --------
 Frag_973
 --------
 Charge =  0 Multiplicity = 1

 SCF Done:  E(RHF) =  -362.045808128     A.U. after   11 cycles
 E2 =    -0.1072023440D+01 EUMP2 =    -0.36311783156759D+03
 Normal termination of Gaussian 09 at Fri Aug 26 11:23:47 2022.

 ---------------------------------------------------------
 #P Geom=AllCheck Guess=TCheck SCRF=Check MP4=FrzG4/GTBas3
 ---------------------------------------------------------

 Structure from the checkpoint file:  "G4.Frag_973.chk"
 --------
 Frag_973
 --------
 Charge =  0 Multiplicity = 1

 SCF Done:  E(RHF) =  -362.085974920     A.U. after   10 cycles
 E2 =    -0.1310647350D+01 EUMP2 =    -0.36339662227062D+03
 Normal termination of Gaussian 09 at Fri Aug 26 11:35:48 2022.

 -----------------------------------------------------------
 #P Geom=AllCheck Guess=TCheck SCRF=Check MP2=Full/GTLargeXP
 -----------------------------------------------------------

 Structure from the checkpoint file:  "G4.Frag_973.chk"
 --------
 Frag_973
 --------
 Charge =  0 Multiplicity = 1

 SCF Done:  E(RHF) =  -362.182076688     A.U. after   12 cycles
 E2 =    -0.1711037523D+01 EUMP2 =    -0.36389311421150D+03
 Normal termination of Gaussian 09 at Fri Aug 26 11:40:21 2022.
 SCF Done:  E(RHF) =  -362.211031455     A.U. after    8 cycles
 Normal termination of Gaussian 09 at Fri Aug 26 11:44:09 2022.

                         Standard orientation:
 ---------------------------------------------------------------------
 Center     Atomic      Atomic             Coordinates (Angstroms)
 Number     Number       Type             X           Y           Z
 ---------------------------------------------------------------------
      1          6           0       -1.385636    1.207843   -0.496085
      2          6           0       -0.622356   -0.033795   -0.016991
      3          6           0       -0.712927   -0.155265    1.517782
      4          7           0       -1.160765   -1.205155   -0.726036
      5          6           0        0.852638    0.065313   -0.465803
      6          8           0        1.413580    1.218104    0.112017
      7          8           0        1.605278   -1.084650   -0.132038
      8          1           0       -1.000913    2.113259   -0.022592
      9          1           0       -2.449697    1.114620   -0.251420
     10          1           0       -1.301531    1.311323   -1.581768
     11          1           0       -1.762285   -0.196686    1.827805
     12          1           0       -0.236142   -1.076889    1.871395
     13          1           0       -0.241036    0.694502    2.019428
     14          1           0       -0.604615   -2.020791   -0.483783
     15          1           0       -2.109380   -1.388055   -0.411048
     16          1           0        0.880425    0.099291   -1.562533
     17          1           0        2.312118    1.299305   -0.225189
     18          1           0        1.697237   -1.086004    0.828710
 ---------------------------------------------------------------------

 SCF Done:  E(RHF) =  -362.217451192     A.U. after    8 cycles

 The electronic state is 1-A.
 Alpha  occ. eigenvalues --  -20.56871 -20.56617 -15.53495 -11.33193 -11.26356
 Alpha  occ. eigenvalues --  -11.21670 -11.20909  -1.41734  -1.33764  -1.18982
 Alpha  occ. eigenvalues --   -1.02307  -0.93812  -0.91223  -0.77214  -0.73893
 Alpha  occ. eigenvalues --   -0.67703  -0.65958  -0.63360  -0.60192  -0.59086
 Alpha  occ. eigenvalues --   -0.57233  -0.55019  -0.53542  -0.51767  -0.49914
 Alpha  occ. eigenvalues --   -0.48966  -0.47928  -0.44205  -0.39206
 Alpha virt. eigenvalues --    0.03251   0.04063   0.04257   0.05281   0.06439
 Alpha virt. eigenvalues --    0.06654   0.07196   0.07432   0.07719   0.09696
 Alpha virt. eigenvalues --    0.10123   0.10728   0.11262   0.13479   0.13834

 Mulliken charges:
               1
     1  C   -0.586616
     2  C    0.450176
     3  C   -0.609529
     4  N   -0.788692
     5  C    0.188630
     6  O   -0.605188
     7  O   -0.610147
     8  H    0.190312
     9  H    0.156058
    10  H    0.170111
    11  H    0.170391
    12  H    0.152991
    13  H    0.199012
    14  H    0.315220
    15  H    0.287449
    16  H    0.163779
    17  H    0.382388
    18  H    0.373656
 Sum of Mulliken charges =  -0.00000

 Dipole moment (field-independent basis, Debye):
    X=              0.1062    Y=              0.1279    Z=              1.4109  Tot=              1.4207
 Quadrupole moment (field-independent basis, Debye-Ang):
   XX=            -40.3092   YY=            -45.9241   ZZ=            -45.7660
   XY=              2.8339   XZ=             -1.2776   YZ=             -4.3653

 Normal termination of Gaussian 09 at Fri Aug 26 11:57:35 2022.
