 Gaussian 09, Revision E.01,
 Gaussian 09:  ES64L-G09RevE.01 30-Nov-2015

 -----
 #P G4
 -----

 --------
 Frag_664
 --------
 Symbolic Z-matrix:
 Charge =  0 Multiplicity = 1

 SCF Done:  E(RB3LYP) =  -269.169846000     A.U. after   12 cycles
 SCF Done:  E(RB3LYP) =  -269.174914066     A.U. after   11 cycles
 SCF Done:  E(RB3LYP) =  -269.175295761     A.U. after   10 cycles
 SCF Done:  E(RB3LYP) =  -269.175469747     A.U. after   10 cycles
 SCF Done:  E(RB3LYP) =  -269.175497725     A.U. after    9 cycles
 SCF Done:  E(RB3LYP) =  -269.175506494     A.U. after    9 cycles
 SCF Done:  E(RB3LYP) =  -269.175508085     A.U. after    7 cycles
 SCF Done:  E(RB3LYP) =  -269.175508304     A.U. after    6 cycles
 SCF Done:  E(RB3LYP) =  -269.175508374     A.U. after    6 cycles
 SCF Done:  E(RB3LYP) =  -269.175508406     A.U. after    6 cycles
 Optimization completed.
    -- Stationary point found.
 Normal termination of Gaussian 09 at Tue Aug 23 06:47:02 2022.

 ----------------------------------------------------------
 #P Geom=AllCheck Guess=TCheck SCRF=Check B3LYP/GTBas3 Freq
 ----------------------------------------------------------

 Structure from the checkpoint file:  "G4.Frag_664.chk"
 --------
 Frag_664
 --------
 Charge =  0 Multiplicity = 1

 SCF Done:  E(RB3LYP) =  -269.175508406     A.U. after    1 cycles

  Exact polarizability:  62.559  -0.309  58.968  -0.058   0.421  57.573
 Approx polarizability:  81.182  -0.034  82.247   0.448   0.001  84.680

                      1                      2                      3
                      A                      A                      A
 Frequencies --     86.6996               212.5091               232.1765
 Red. masses --      2.5252                 1.0697                 1.1132
 Frc consts  --      0.0112                 0.0285                 0.0354
 IR Inten    --      1.4322                 0.5470                11.7188

                      4                      5                      6
                      A                      A                      A
 Frequencies --    241.3280               264.5548               286.7809
 Red. masses --      1.1060                 2.4163                 2.7219
 Frc consts  --      0.0380                 0.0996                 0.1319
 IR Inten    --     22.0611                 2.9024                 6.2612

                      7                      8                      9
                      A                      A                      A
 Frequencies --    302.3313               344.5515               437.5990
 Red. masses --      1.0873                 2.3204                 2.3515
 Frc consts  --      0.0586                 0.1623                 0.2653
 IR Inten    --     34.2337                 1.0167                21.6705

                     10                     11                     12
                      A                      A                      A
 Frequencies --    507.4303               595.1762               752.5590
 Red. masses --      2.6213                 2.1986                 2.5375
 Frc consts  --      0.3977                 0.4589                 0.8467
 IR Inten    --     11.7378                 3.4627                18.5316

                     13                     14                     15
                      A                      A                      A
 Frequencies --    881.8921               900.5490               907.1823
 Red. masses --      1.9712                 1.5735                 1.7103
 Frc consts  --      0.9033                 0.7519                 0.8293
 IR Inten    --     78.5183               198.2603                12.6827

                     16                     17                     18
                      A                      A                      A
 Frequencies --    932.9834               963.7249              1023.0503
 Red. masses --      1.2802                 1.4251                 1.4872
 Frc consts  --      0.6566                 0.7798                 0.9171
 IR Inten    --     14.8182                 1.4605                33.7070

                     19                     20                     21
                      A                      A                      A
 Frequencies --   1050.1948              1082.3889              1159.3074
 Red. masses --      2.0348                 1.6464                 1.4111
 Frc consts  --      1.3223                 1.1365                 1.1174
 IR Inten    --     20.8771                 1.3934                21.6879

                     22                     23                     24
                      A                      A                      A
 Frequencies --   1172.9725              1216.3592              1281.3493
 Red. masses --      2.2550                 1.6891                 1.7787
 Frc consts  --      1.8280                 1.4724                 1.7207
 IR Inten    --     10.8176                 5.4130                 4.5241

                     25                     26                     27
                      A                      A                      A
 Frequencies --   1338.9584              1369.6183              1393.9266
 Red. masses --      1.2975                 1.3869                 1.2769
 Frc consts  --      1.3705                 1.5328                 1.4617
 IR Inten    --      4.1229                 0.5128                 5.0040

                     28                     29                     30
                      A                      A                      A
 Frequencies --   1398.8627              1416.6125              1430.6323
 Red. masses --      1.3282                 1.2323                 1.3071
 Frc consts  --      1.5313                 1.4570                 1.5762
 IR Inten    --      3.8236                10.3628                12.3291

                     31                     32                     33
                      A                      A                      A
 Frequencies --   1486.8907              1492.1953              1506.6154
 Red. masses --      1.0426                 1.0533                 1.0442
 Frc consts  --      1.3580                 1.3818                 1.3965
 IR Inten    --      0.9674                 0.9119                 4.5250

                     34                     35                     36
                      A                      A                      A
 Frequencies --   1512.2511              1645.0277              1666.6100
 Red. masses --      1.0579                 1.0983                 1.0910
 Frc consts  --      1.4255                 1.7512                 1.7855
 IR Inten    --      7.2795                22.0163                27.4773

                     37                     38                     39
                      A                      A                      A
 Frequencies --   2998.4254              3015.0494              3027.1136
 Red. masses --      1.0828                 1.0838                 1.0356
 Frc consts  --      5.7355                 5.8049                 5.5910
 IR Inten    --     24.8593                39.3073                34.8319

                     40                     41                     42
                      A                      A                      A
 Frequencies --   3032.7953              3091.0467              3093.3773
 Red. masses --      1.0376                 1.1007                 1.1011
 Frc consts  --      5.6232                 6.1962                 6.2076
 IR Inten    --     18.5349                28.9755                35.1073

                     43                     44                     45
                      A                      A                      A
 Frequencies --   3098.9071              3118.0591              3458.9268
 Red. masses --      1.0999                 1.1002                 1.0485
 Frc consts  --      6.2235                 6.3019                 7.3911
 IR Inten    --     29.3676                26.2889                 2.3793

                     46                     47                     48
                      A                      A                      A
 Frequencies --   3485.7801              3542.1648              3559.4611
 Red. masses --      1.0492                 1.0916                 1.0909
 Frc consts  --      7.5113                 8.0694                 8.1432
 IR Inten    --      0.3986                 0.8009                 0.6876

 - Thermochemistry -
 -------------------
 Temperature   298.150 Kelvin.  Pressure   1.00000 Atm.
 Atom     1 has atomic number  6 and mass  12.00000

 Molecular mass:    88.10005 amu.
 Principal axes and moments of inertia in atomic units:
                           1         2         3
     Eigenvalues --   407.94722 692.77565 785.54355
           X            0.99992  -0.01036  -0.00703
           Y            0.01086   0.99720   0.07403
           Z            0.00624  -0.07410   0.99723
 This molecule is an asymmetric top.
 Rotational symmetry number  1.
 Rotational temperatures (Kelvin)      0.21232     0.12502     0.11026
 Rotational constants (GHZ):           4.42396     2.60509     2.29744
 Zero-point vibrational energy     436726.4 (Joules/Mol)
                                  104.38012 (Kcal/Mol)
 Warning -- explicit consideration of  11 degrees of freedom as
           vibrations may cause significant error
 Vibrational temperatures:    124.74   305.75   334.05   347.22   380.63
          (Kelvin)            412.61   434.99   495.73   629.61   730.08
                              856.32  1082.76  1268.84  1295.69  1305.23
                             1342.35  1386.58  1471.94  1510.99  1557.31
                             1667.98  1687.64  1750.07  1843.57  1926.46
                             1970.57  2005.55  2012.65  2038.19  2058.36
                             2139.30  2146.93  2167.68  2175.79  2366.83
                             2397.88  4314.06  4337.98  4355.34  4363.51
                             4447.32  4450.67  4458.63  4486.19  4976.62
                             5015.25  5096.38  5121.26

 Zero-point correction=                           0.166340 (Hartree/Particle)
 Thermal correction to Energy=                    0.174405
 Thermal correction to Enthalpy=                  0.175349
 Thermal correction to Gibbs Free Energy=         0.135072
 Sum of electronic and zero-point Energies=           -269.009168
 Sum of electronic and thermal Energies=              -269.001103
 Sum of electronic and thermal Enthalpies=            -269.000159
 Sum of electronic and thermal Free Energies=         -269.040436

                     E (Thermal)             CV                S
                      KCal/Mol        Cal/Mol-Kelvin    Cal/Mol-Kelvin
 Total                  109.441             29.615             84.770
 Electronic               0.000              0.000              0.000
 Translational            0.889              2.981             39.340
 Rotational               0.889              2.981             26.898
 Vibrational            107.663             23.653             18.531
 Vibration     1          0.601              1.958              3.733
 Vibration     2          0.644              1.822              2.022
 Vibration     3          0.653              1.792              1.862
 Vibration     4          0.658              1.777              1.793
 Vibration     5          0.671              1.738              1.632
 Vibration     6          0.684              1.698              1.493
 Vibration     7          0.694              1.669              1.404
 Vibration     8          0.723              1.586              1.191
 Vibration     9          0.798              1.388              0.834
 Vibration    10          0.863              1.234              0.640
 Vibration    11          0.953              1.042              0.458

 Optimization completed.
    -- Stationary point found.
 Normal termination of Gaussian 09 at Tue Aug 23 06:51:03 2022.

 -----------------------------------------------------------------
 #P Geom=AllCheck Guess=TCheck SCRF=Check CCSD(T,E4T,FrzG4)/GTBas1
 -----------------------------------------------------------------

 Structure from the checkpoint file:  "G4.Frag_664.chk"
 --------
 Frag_664
 --------
 Charge =  0 Multiplicity = 1

 SCF Done:  E(RHF) =  -267.340606840     A.U. after   11 cycles
 E2 =    -0.8593380397D+00 EUMP2 =    -0.26819994487950D+03
 CCSD(T)
 CCSD(T)= -0.26829315752D+03
 16\CCSD(T)=-268.2931575\RMSD=8.538e-09\PG=C01 [X(C4H12N2)]\\@
 Normal termination of Gaussian 09 at Tue Aug 23 06:59:13 2022.

 ---------------------------------------------------------
 #P Geom=AllCheck Guess=TCheck SCRF=Check MP4=FrzG4/GTBas2
 ---------------------------------------------------------

 Structure from the checkpoint file:  "G4.Frag_664.chk"
 --------
 Frag_664
 --------
 Charge =  0 Multiplicity = 1

 SCF Done:  E(RHF) =  -267.348537654     A.U. after   11 cycles
 E2 =    -0.8718366711D+00 EUMP2 =    -0.26822037432484D+03
 Normal termination of Gaussian 09 at Tue Aug 23 07:10:06 2022.

 ---------------------------------------------------------
 #P Geom=AllCheck Guess=TCheck SCRF=Check MP4=FrzG4/GTBas3
 ---------------------------------------------------------

 Structure from the checkpoint file:  "G4.Frag_664.chk"
 --------
 Frag_664
 --------
 Charge =  0 Multiplicity = 1

 SCF Done:  E(RHF) =  -267.381649257     A.U. after   10 cycles
 E2 =    -0.1069092790D+01 EUMP2 =    -0.26845074204670D+03
 Normal termination of Gaussian 09 at Tue Aug 23 11:50:24 2022.

 -----------------------------------------------------------
 #P Geom=AllCheck Guess=TCheck SCRF=Check MP2=Full/GTLargeXP
 -----------------------------------------------------------

 Structure from the checkpoint file:  "G4.Frag_664.chk"
 --------
 Frag_664
 --------
 Charge =  0 Multiplicity = 1

 SCF Done:  E(RHF) =  -267.445159564     A.U. after   12 cycles
 E2 =    -0.1399058267D+01 EUMP2 =    -0.26884421783130D+03
 Normal termination of Gaussian 09 at Tue Aug 23 11:58:56 2022.
 SCF Done:  E(RHF) =  -267.466160046     A.U. after    8 cycles
 Normal termination of Gaussian 09 at Tue Aug 23 12:06:35 2022.

                         Standard orientation:
 ---------------------------------------------------------------------
 Center     Atomic      Atomic             Coordinates (Angstroms)
 Number     Number       Type             X           Y           Z
 ---------------------------------------------------------------------
      1          6           0        1.775105   -0.831879   -0.424963
      2          6           0        0.689088    0.251700   -0.415529
      3          6           0        0.966900    1.298618    0.672896
      4          6           0       -0.726075   -0.376244   -0.313888
      5          7           0       -1.843145    0.541266   -0.602829
      6          7           0       -0.899663   -1.042491    0.970098
      7          1           0        1.757567   -1.400612    0.508800
      8          1           0        1.620656   -1.539588   -1.246782
      9          1           0        2.770676   -0.391943   -0.545854
     10          1           0        0.714251    0.767788   -1.385914
     11          1           0        1.039547    0.837162    1.664038
     12          1           0        1.919208    1.804105    0.484851
     13          1           0        0.192454    2.072810    0.711400
     14          1           0       -0.782868   -1.156801   -1.084716
     15          1           0       -1.812963    1.334211    0.034581
     16          1           0       -1.741801    0.929263   -1.538658
     17          1           0       -1.832270   -1.445152    0.996606
     18          1           0       -0.874910   -0.355844    1.719672
 ---------------------------------------------------------------------

 SCF Done:  E(RHF) =  -267.470785785     A.U. after    7 cycles

 The electronic state is 1-A.
 Alpha  occ. eigenvalues --  -15.53813 -15.53451 -11.27744 -11.22611 -11.21653
 Alpha  occ. eigenvalues --  -11.20555  -1.22077  -1.11993  -1.05676  -0.92986
 Alpha  occ. eigenvalues --   -0.87321  -0.76310  -0.68689  -0.64590  -0.62195
 Alpha  occ. eigenvalues --   -0.60544  -0.57393  -0.56069  -0.53120  -0.51740
 Alpha  occ. eigenvalues --   -0.49712  -0.46712  -0.46659  -0.40550  -0.38896
 Alpha virt. eigenvalues --    0.03342   0.04176   0.04493   0.04844   0.06602
 Alpha virt. eigenvalues --    0.06846   0.07223   0.07451   0.07930   0.09762
 Alpha virt. eigenvalues --    0.10464   0.10732   0.10960   0.11992   0.12244

 Mulliken charges:
               1
     1  C   -0.555026
     2  C    0.042377
     3  C   -0.565373
     4  C    0.079256
     5  N   -0.699570
     6  N   -0.720595
     7  H    0.191413
     8  H    0.151644
     9  H    0.157268
    10  H    0.137147
    11  H    0.167029
    12  H    0.169172
    13  H    0.154534
    14  H    0.156843
    15  H    0.276275
    16  H    0.279145
    17  H    0.301680
    18  H    0.276781
 Sum of Mulliken charges =  -0.00000

 Dipole moment (field-independent basis, Debye):
    X=              0.3136    Y=              1.5494    Z=             -0.2969  Tot=              1.6085
 Quadrupole moment (field-independent basis, Debye-Ang):
   XX=            -43.7393   YY=            -40.7194   ZZ=            -37.8737
   XY=              0.1874   XZ=             -1.5816   YZ=              0.9299

 Normal termination of Gaussian 09 at Tue Aug 23 15:26:21 2022.
