 Gaussian 09, Revision E.01,
 Gaussian 09:  ES64L-G09RevE.01 30-Nov-2015

 -----
 #P G4
 -----

 --------
 Frag_558
 --------
 Symbolic Z-matrix:
 Charge =  0 Multiplicity = 1

 SCF Done:  E(RB3LYP) =  -248.478312113     A.U. after   13 cycles
 SCF Done:  E(RB3LYP) =  -248.492783334     A.U. after   11 cycles
 SCF Done:  E(RB3LYP) =  -248.493460680     A.U. after   11 cycles
 SCF Done:  E(RB3LYP) =  -248.493868670     A.U. after   11 cycles
 SCF Done:  E(RB3LYP) =  -248.494003957     A.U. after   11 cycles
 SCF Done:  E(RB3LYP) =  -248.494081694     A.U. after   11 cycles
 SCF Done:  E(RB3LYP) =  -248.494084368     A.U. after    8 cycles
 SCF Done:  E(RB3LYP) =  -248.494085393     A.U. after    7 cycles
 SCF Done:  E(RB3LYP) =  -248.494085380     A.U. after    7 cycles
 SCF Done:  E(RB3LYP) =  -248.494085322     A.U. after    7 cycles
 Optimization completed.
    -- Stationary point found.
 Normal termination of Gaussian 09 at Mon Aug 22 13:46:02 2022.

 ----------------------------------------------------------
 #P Geom=AllCheck Guess=TCheck SCRF=Check B3LYP/GTBas3 Freq
 ----------------------------------------------------------

 Structure from the checkpoint file:  "G4.Frag_558.chk"
 --------
 Frag_558
 --------
 Charge =  0 Multiplicity = 1

 SCF Done:  E(RB3LYP) =  -248.494085322     A.U. after    1 cycles

  Exact polarizability:  53.905   4.996  45.925  -4.190  -1.401  33.263
 Approx polarizability:  70.817  11.731  71.497  -7.014  -3.883  48.242

                      1                      2                      3
                      A                      A                      A
 Frequencies --     82.2193               228.1750               270.3193
 Red. masses --      2.8809                 1.1953                 2.7380
 Frc consts  --      0.0115                 0.0367                 0.1179
 IR Inten    --      0.5812                32.3212                16.8162

                      4                      5                      6
                      A                      A                      A
 Frequencies --    413.3598               442.5252               481.3085
 Red. masses --      2.1446                 1.1122                 2.3909
 Frc consts  --      0.2159                 0.1283                 0.3263
 IR Inten    --      1.9778                96.9923                17.5806

                      7                      8                      9
                      A                      A                      A
 Frequencies --    649.0076               735.7968               821.9146
 Red. masses --      2.7321                 1.2332                 1.4686
 Frc consts  --      0.6780                 0.3934                 0.5845
 IR Inten    --      6.7829                 0.1902                35.8480

                     10                     11                     12
                      A                      A                      A
 Frequencies --    824.0443               867.8971               985.2309
 Red. masses --      1.6104                 1.8692                 1.6017
 Frc consts  --      0.6443                 0.8295                 0.9160
 IR Inten    --     84.7629                49.8501                 2.3412

                     13                     14                     15
                      A                      A                      A
 Frequencies --   1000.4321              1070.9777              1176.1620
 Red. masses --      1.9779                 2.6018                 1.2009
 Frc consts  --      1.1663                 1.7583                 0.9788
 IR Inten    --     94.7988                14.5202                15.6378

                     16                     17                     18
                      A                      A                      A
 Frequencies --   1211.8842              1309.0999              1383.8909
 Red. masses --      1.5452                 1.2176                 1.6779
 Frc consts  --      1.3371                 1.2294                 1.8932
 IR Inten    --     99.3868                 4.4837                 5.8992

                     19                     20                     21
                      A                      A                      A
 Frequencies --   1428.9587              1461.3699              1496.2194
 Red. masses --      1.5647                 1.2644                 1.1030
 Frc consts  --      1.8824                 1.5909                 1.4549
 IR Inten    --     23.3232                10.1608                 0.9258

                     22                     23                     24
                      A                      A                      A
 Frequencies --   1654.8191              1722.9792              2980.6362
 Red. masses --      1.0967                 5.5586                 1.0681
 Frc consts  --      1.7695                 9.7225                 5.5910
 IR Inten    --     28.1327               112.3556                59.2169

                     25                     26                     27
                      A                      A                      A
 Frequencies --   3052.7406              3153.9007              3249.2784
 Red. masses --      1.0925                 1.0647                 1.1114
 Frc consts  --      5.9989                 6.2398                 6.9134
 IR Inten    --     25.6737                 5.6707                 8.7015

                     28                     29                     30
                      A                      A                      A
 Frequencies --   3489.0957              3571.0802              3805.9316
 Red. masses --      1.0490                 1.0927                 1.0654
 Frc consts  --      7.5242                 8.2100                 9.0923
 IR Inten    --      0.8607                 0.0793                23.9484

 - Thermochemistry -
 -------------------
 Temperature   298.150 Kelvin.  Pressure   1.00000 Atm.
 Atom     1 has atomic number  6 and mass  12.00000

 Molecular mass:    73.05276 amu.
 Principal axes and moments of inertia in atomic units:
                           1         2         3
     Eigenvalues --   218.05215 462.47289 595.00911
           X            0.99987  -0.00168  -0.01618
           Y            0.00167   1.00000  -0.00023
           Z            0.01618   0.00021   0.99987
 This molecule is an asymmetric top.
 Rotational symmetry number  1.
 Rotational temperatures (Kelvin)      0.39722     0.18728     0.14557
 Rotational constants (GHZ):           8.27665     3.90237     3.03313
 Zero-point vibrational energy     269286.9 (Joules/Mol)
                                   64.36111 (Kcal/Mol)
 Warning -- explicit consideration of   6 degrees of freedom as
           vibrations may cause significant error
 Vibrational temperatures:    118.30   328.29   388.93   594.73   636.69
          (Kelvin)            692.49   933.78  1058.65  1182.55  1185.61
                             1248.71  1417.53  1439.40  1540.90  1692.23
                             1743.63  1883.50  1991.11  2055.95  2102.58
                             2152.72  2380.91  2478.98  4288.47  4392.21
                             4537.75  4674.98  5020.02  5137.98  5475.88

 Zero-point correction=                           0.102566 (Hartree/Particle)
 Thermal correction to Energy=                    0.108567
 Thermal correction to Enthalpy=                  0.109511
 Thermal correction to Gibbs Free Energy=         0.073512
 Sum of electronic and zero-point Energies=           -248.391519
 Sum of electronic and thermal Energies=              -248.385518
 Sum of electronic and thermal Enthalpies=            -248.384574
 Sum of electronic and thermal Free Energies=         -248.420574

                     E (Thermal)             CV                S
                      KCal/Mol        Cal/Mol-Kelvin    Cal/Mol-Kelvin
 Total                   68.127             21.108             75.767
 Electronic               0.000              0.000              0.000
 Translational            0.889              2.981             38.782
 Rotational               0.889              2.981             25.598
 Vibrational             66.349             15.147             11.387
 Vibration     1          0.600              1.961              3.837
 Vibration     2          0.651              1.798              1.893
 Vibration     3          0.674              1.728              1.594
 Vibration     4          0.777              1.441              0.915
 Vibration     5          0.802              1.377              0.819
 Vibration     6          0.838              1.292              0.707

 Optimization completed.
    -- Stationary point found.
 Normal termination of Gaussian 09 at Mon Aug 22 13:47:29 2022.

 -----------------------------------------------------------------
 #P Geom=AllCheck Guess=TCheck SCRF=Check CCSD(T,E4T,FrzG4)/GTBas1
 -----------------------------------------------------------------

 Structure from the checkpoint file:  "G4.Frag_558.chk"
 --------
 Frag_558
 --------
 Charge =  0 Multiplicity = 1

 SCF Done:  E(RHF) =  -246.945323007     A.U. after   12 cycles
 E2 =    -0.7252960844D+00 EUMP2 =    -0.24767061909112D+03
 CCSD(T)
 CCSD(T)= -0.24773702027D+03
 CSD=-247.714388\CCSD(T)=-247.7370203\RMSD=9.187e-09\PG=C01 [X(C3H7N1O1
 Normal termination of Gaussian 09 at Mon Aug 22 13:49:25 2022.

 ---------------------------------------------------------
 #P Geom=AllCheck Guess=TCheck SCRF=Check MP4=FrzG4/GTBas2
 ---------------------------------------------------------

 Structure from the checkpoint file:  "G4.Frag_558.chk"
 --------
 Frag_558
 --------
 Charge =  0 Multiplicity = 1

 SCF Done:  E(RHF) =  -246.955693136     A.U. after   13 cycles
 E2 =    -0.7369259123D+00 EUMP2 =    -0.24769261904805D+03
 Normal termination of Gaussian 09 at Mon Aug 22 13:51:28 2022.

 ---------------------------------------------------------
 #P Geom=AllCheck Guess=TCheck SCRF=Check MP4=FrzG4/GTBas3
 ---------------------------------------------------------

 Structure from the checkpoint file:  "G4.Frag_558.chk"
 --------
 Frag_558
 --------
 Charge =  0 Multiplicity = 1

 SCF Done:  E(RHF) =  -246.983068169     A.U. after   11 cycles
 E2 =    -0.8936388830D+00 EUMP2 =    -0.24787670705248D+03
 Normal termination of Gaussian 09 at Mon Aug 22 14:30:39 2022.

 -----------------------------------------------------------
 #P Geom=AllCheck Guess=TCheck SCRF=Check MP2=Full/GTLargeXP
 -----------------------------------------------------------

 Structure from the checkpoint file:  "G4.Frag_558.chk"
 --------
 Frag_558
 --------
 Charge =  0 Multiplicity = 1

 SCF Done:  E(RHF) =  -247.049756816     A.U. after   12 cycles
 E2 =    -0.1173411768D+01 EUMP2 =    -0.24822316858353D+03
 Normal termination of Gaussian 09 at Mon Aug 22 14:38:11 2022.
 SCF Done:  E(RHF) =  -247.069845508     A.U. after    8 cycles
 Normal termination of Gaussian 09 at Mon Aug 22 14:41:09 2022.

                         Standard orientation:
 ---------------------------------------------------------------------
 Center     Atomic      Atomic             Coordinates (Angstroms)
 Number     Number       Type             X           Y           Z
 ---------------------------------------------------------------------
      1          6           0        1.465191    0.985590   -0.190763
      2          6           0        0.571224    0.038888    0.103562
      3          8           0        0.809456   -1.299296    0.030798
      4          6           0       -0.833968    0.329448    0.560520
      5          7           0       -1.811353   -0.105131   -0.445231
      6          1           0        2.473377    0.747983   -0.515610
      7          1           0        1.205735    2.032240   -0.107657
      8          1           0        1.707049   -1.438568   -0.291613
      9          1           0       -1.024299   -0.245168    1.475233
     10          1           0       -0.891399    1.396516    0.824591
     11          1           0       -1.730199    0.483772   -1.269086
     12          1           0       -2.751124    0.029954   -0.085538
 ---------------------------------------------------------------------

 SCF Done:  E(RHF) =  -247.074172094     A.U. after    8 cycles

 The electronic state is 1-A.
 Alpha  occ. eigenvalues --  -20.58162 -15.54296 -11.29928 -11.25963 -11.20978
 Alpha  occ. eigenvalues --   -1.40108  -1.18105  -1.03413  -0.91463  -0.78821
 Alpha  occ. eigenvalues --   -0.68943  -0.67173  -0.62978  -0.60516  -0.57710
 Alpha  occ. eigenvalues --   -0.54339  -0.54010  -0.50586  -0.40037  -0.34453
 Alpha virt. eigenvalues --    0.03659   0.04183   0.05312   0.05621   0.06737
 Alpha virt. eigenvalues --    0.07332   0.07734   0.08647   0.09052   0.10303
 Alpha virt. eigenvalues --    0.12186   0.12684   0.13329   0.15252   0.15929

 Mulliken charges:
               1
     1  C   -0.529486
     2  C    0.267840
     3  O   -0.524549
     4  C   -0.167403
     5  N   -0.648206
     6  H    0.150017
     7  H    0.178846
     8  H    0.378042
     9  H    0.179416
    10  H    0.144037
    11  H    0.282858
    12  H    0.288587
 Sum of Mulliken charges =  -0.00000

 Dipole moment (field-independent basis, Debye):
    X=              0.2691    Y=              1.5933    Z=              0.0351  Tot=              1.6163
 Quadrupole moment (field-independent basis, Debye-Ang):
   XX=            -24.9297   YY=            -32.8744   ZZ=            -31.9224
   XY=             -4.7129   XZ=             -2.5135   YZ=             -0.5461

 Normal termination of Gaussian 09 at Mon Aug 22 16:10:10 2022.
