 Gaussian 09, Revision E.01,
 Gaussian 09:  ES64L-G09RevE.01 30-Nov-2015

 -----
 #P G4
 -----

 --------
 Frag_774
 --------
 Symbolic Z-matrix:
 Charge =  0 Multiplicity = 1

 SCF Done:  E(RB3LYP) =  -280.461725969     A.U. after   15 cycles
 SCF Done:  E(RB3LYP) =  -280.480494999     A.U. after   13 cycles
 SCF Done:  E(RB3LYP) =  -280.482941825     A.U. after   13 cycles
 SCF Done:  E(RB3LYP) =  -280.484551372     A.U. after   13 cycles
 SCF Done:  E(RB3LYP) =  -280.486829039     A.U. after   13 cycles
 SCF Done:  E(RB3LYP) =  -280.491070401     A.U. after   15 cycles
 SCF Done:  E(RB3LYP) =  -280.493627562     A.U. after   14 cycles
 SCF Done:  E(RB3LYP) =  -280.495459670     A.U. after   13 cycles
 SCF Done:  E(RB3LYP) =  -280.495770408     A.U. after   12 cycles
 SCF Done:  E(RB3LYP) =  -280.496871120     A.U. after   13 cycles
 SCF Done:  E(RB3LYP) =  -280.498293956     A.U. after    9 cycles
 SCF Done:  E(RB3LYP) =  -280.498295904     A.U. after    9 cycles
 SCF Done:  E(RB3LYP) =  -280.498296149     A.U. after    8 cycles
 Optimization completed.
    -- Stationary point found.
 Normal termination of Gaussian 09 at Sat Aug 20 13:44:53 2022.

 ----------------------------------------------------------
 #P Geom=AllCheck Guess=TCheck SCRF=Check B3LYP/GTBas3 Freq
 ----------------------------------------------------------

 Structure from the checkpoint file:  "G4.Frag_774.chk"
 --------
 Frag_774
 --------
 Charge =  0 Multiplicity = 1

 SCF Done:  E(RB3LYP) =  -280.498296149     A.U. after    1 cycles

  Exact polarizability:  58.252  -2.458  37.027   1.694   0.346  24.790
 Approx polarizability:  93.739  -7.055  58.923   7.183   0.363  37.318

                      1                      2                      3
                      A                      A                      A
 Frequencies --    150.7640               233.5144               359.0859
 Red. masses --      2.1985                 1.3278                 3.5309
 Frc consts  --      0.0294                 0.0427                 0.2682
 IR Inten    --     16.5342                 8.6350                 0.2090

                      4                      5                      6
                      A                      A                      A
 Frequencies --    399.9355               471.2801               530.6787
 Red. masses --      3.5711                 4.3155                 1.2433
 Frc consts  --      0.3365                 0.5647                 0.2063
 IR Inten    --     10.7573                20.8127                96.3042

                      7                      8                      9
                      A                      A                      A
 Frequencies --    724.8297               838.2934               882.4172
 Red. masses --      5.1293                 2.3947                 1.6637
 Frc consts  --      1.5878                 0.9915                 0.7633
 IR Inten    --     27.6800                53.8173                34.7677

                     10                     11                     12
                      A                      A                      A
 Frequencies --   1033.6521              1147.0391              1243.2811
 Red. masses --      1.9505                 1.3085                 3.0058
 Frc consts  --      1.2279                 1.0143                 2.7375
 IR Inten    --     57.3558                21.7961                41.2717

                     13                     14                     15
                      A                      A                      A
 Frequencies --   1274.4266              1430.3675              1444.8663
 Red. masses --      2.2883                 1.3120                 1.5693
 Frc consts  --      2.1897                 1.5815                 1.9303
 IR Inten    --     93.5622                 1.3450                41.7172

                     16                     17                     18
                      A                      A                      A
 Frequencies --   1468.5030              1496.4271              1525.4850
 Red. masses --      1.0579                 2.5811                 1.4159
 Frc consts  --      1.3441                 3.4054                 1.9413
 IR Inten    --     14.2598                98.5105                27.0528

                     19                     20                     21
                      A                      A                      A
 Frequencies --   1568.9528              3031.1639              3116.3270
 Red. masses --      1.3745                 1.0426                 1.0930
 Frc consts  --      1.9934                 5.6442                 6.2537
 IR Inten    --     92.0438                43.3619                14.8346

                     22                     23                     24
                      A                      A                      A
 Frequencies --   3166.3320              3363.6577              3467.1229
 Red. masses --      1.1030                 1.0628                 1.0758
 Frc consts  --      6.5155                 7.0845                 7.6195
 IR Inten    --      4.0164                74.9385                 7.0437

 - Thermochemistry -
 -------------------
 Temperature   298.150 Kelvin.  Pressure   1.00000 Atm.
 Atom     1 has atomic number  6 and mass  12.00000

 Molecular mass:    75.04326 amu.
 Principal axes and moments of inertia in atomic units:
                           1         2         3
     Eigenvalues --   176.12541 385.02591 539.46807
           X            0.99916   0.04082  -0.00372
           Y           -0.04084   0.99916  -0.00403
           Z            0.00355   0.00417   0.99998
 This molecule is an asymmetric top.
 Rotational symmetry number  1.
 Rotational temperatures (Kelvin)      0.49177     0.22496     0.16055
 Rotational constants (GHZ):          10.24691     4.68732     3.34541
 Zero-point vibrational energy     205568.7 (Joules/Mol)
                                   49.13210 (Kcal/Mol)
 Warning -- explicit consideration of   6 degrees of freedom as
           vibrations may cause significant error
 Vibrational temperatures:    216.92   335.97   516.64   575.42   678.07
          (Kelvin)            763.53  1042.87  1206.12  1269.60  1487.19
                             1650.33  1788.80  1833.61  2057.98  2078.84
                             2112.85  2153.02  2194.83  2257.37  4361.16
                             4483.69  4555.64  4839.55  4988.41

 Zero-point correction=                           0.078297 (Hartree/Particle)
 Thermal correction to Energy=                    0.083731
 Thermal correction to Enthalpy=                  0.084675
 Thermal correction to Gibbs Free Energy=         0.050099
 Sum of electronic and zero-point Energies=           -280.419999
 Sum of electronic and thermal Energies=              -280.414565
 Sum of electronic and thermal Enthalpies=            -280.413621
 Sum of electronic and thermal Free Energies=         -280.448197

                     E (Thermal)             CV                S
                      KCal/Mol        Cal/Mol-Kelvin    Cal/Mol-Kelvin
 Total                   52.542             18.469             72.771
 Electronic               0.000              0.000              0.000
 Translational            0.889              2.981             38.862
 Rotational               0.889              2.981             25.107
 Vibrational             50.764             12.507              8.802
 Vibration     1          0.618              1.902              2.663
 Vibration     2          0.654              1.790              1.852
 Vibration     3          0.734              1.557              1.126
 Vibration     4          0.766              1.470              0.963
 Vibration     5          0.828              1.314              0.734
 Vibration     6          0.886              1.182              0.586

 Optimization completed.
    -- Stationary point found.
 Normal termination of Gaussian 09 at Sat Aug 20 13:45:54 2022.

 -----------------------------------------------------------------
 #P Geom=AllCheck Guess=TCheck SCRF=Check CCSD(T,E4T,FrzG4)/GTBas1
 -----------------------------------------------------------------

 Structure from the checkpoint file:  "G4.Frag_774.chk"
 --------
 Frag_774
 --------
 Charge =  0 Multiplicity = 1

 SCF Done:  E(RHF) =  -278.837241296     A.U. after   15 cycles
 E2 =    -0.8111935290D+00 EUMP2 =    -0.27964843482474D+03
 CCSD(T)
 CCSD(T)= -0.27970618440D+03
 CCSD(T)=-279.7061844\RMSD=9.446e-09\PG=C01 [X(C1H5N3O1)]\\@
 Normal termination of Gaussian 09 at Sat Aug 20 13:47:35 2022.

 ---------------------------------------------------------
 #P Geom=AllCheck Guess=TCheck SCRF=Check MP4=FrzG4/GTBas2
 ---------------------------------------------------------

 Structure from the checkpoint file:  "G4.Frag_774.chk"
 --------
 Frag_774
 --------
 Charge =  0 Multiplicity = 1

 SCF Done:  E(RHF) =  -278.848008890     A.U. after   14 cycles
 E2 =    -0.8239345315D+00 EUMP2 =    -0.27967194342188D+03
 Normal termination of Gaussian 09 at Sat Aug 20 13:49:03 2022.

 ---------------------------------------------------------
 #P Geom=AllCheck Guess=TCheck SCRF=Check MP4=FrzG4/GTBas3
 ---------------------------------------------------------

 Structure from the checkpoint file:  "G4.Frag_774.chk"
 --------
 Frag_774
 --------
 Charge =  0 Multiplicity = 1

 SCF Done:  E(RHF) =  -278.873028038     A.U. after   13 cycles
 E2 =    -0.9794579018D+00 EUMP2 =    -0.27985248593999D+03
 Normal termination of Gaussian 09 at Sat Aug 20 14:20:30 2022.

 -----------------------------------------------------------
 #P Geom=AllCheck Guess=TCheck SCRF=Check MP2=Full/GTLargeXP
 -----------------------------------------------------------

 Structure from the checkpoint file:  "G4.Frag_774.chk"
 --------
 Frag_774
 --------
 Charge =  0 Multiplicity = 1

 SCF Done:  E(RHF) =  -278.949679242     A.U. after   13 cycles
 E2 =    -0.1268353489D+01 EUMP2 =    -0.28021803273118D+03
 Normal termination of Gaussian 09 at Sat Aug 20 14:22:34 2022.
 SCF Done:  E(RHF) =  -278.973350034     A.U. after   10 cycles
 Normal termination of Gaussian 09 at Sat Aug 20 14:25:32 2022.

                         Standard orientation:
 ---------------------------------------------------------------------
 Center     Atomic      Atomic             Coordinates (Angstroms)
 Number     Number       Type             X           Y           Z
 ---------------------------------------------------------------------
      1          6           0       -1.671898   -0.513048    0.115085
      2          7           0       -0.370158   -0.006495   -0.259996
      3          8           0       -0.210797    1.352051    0.010968
      4          7           0        0.682545   -0.783460   -0.084041
      5          7           0        1.748700   -0.122335    0.101169
      6          1           0       -1.861567   -0.363803    1.185001
      7          1           0       -1.687226   -1.576460   -0.123855
      8          1           0       -2.435093    0.011420   -0.462991
      9          1           0        0.767392    1.378538    0.160615
     10          1           0        2.506648   -0.801783    0.163056
 ---------------------------------------------------------------------

 SCF Done:  E(RHF) =  -278.978027815     A.U. after    8 cycles

 The electronic state is 1-A.
 Alpha  occ. eigenvalues --  -20.60063 -15.69136 -15.66940 -15.60030 -11.27492
 Alpha  occ. eigenvalues --   -1.48721  -1.34663  -1.17766  -0.99279  -0.83110
 Alpha  occ. eigenvalues --   -0.73896  -0.72294  -0.68503  -0.62178  -0.57864
 Alpha  occ. eigenvalues --   -0.56880  -0.55881  -0.51988  -0.44012  -0.36392
 Alpha virt. eigenvalues --    0.04435   0.05056   0.05566   0.05941   0.08062
 Alpha virt. eigenvalues --    0.08132   0.09512   0.10422   0.11496   0.12692
 Alpha virt. eigenvalues --    0.13227   0.13972   0.15840   0.16139   0.17436

 Mulliken charges:
               1
     1  C   -0.401504
     2  N    0.180845
     3  O   -0.527575
     4  N   -0.012474
     5  N   -0.587735
     6  H    0.175364
     7  H    0.209506
     8  H    0.203028
     9  H    0.425194
    10  H    0.335352
 Sum of Mulliken charges =  -0.00000

 Dipole moment (field-independent basis, Debye):
    X=             -0.3686    Y=             -1.5395    Z=              0.5475  Tot=              1.6750
 Quadrupole moment (field-independent basis, Debye-Ang):
   XX=            -24.4686   YY=            -31.6117   ZZ=            -31.1952
   XY=              0.6072   XZ=              0.2764   YZ=             -0.0493

 Normal termination of Gaussian 09 at Sat Aug 20 15:39:34 2022.
