 Gaussian 09, Revision E.01,
 Gaussian 09:  ES64L-G09RevE.01 30-Nov-2015

 -----
 #P G4
 -----

 --------
 Frag_888
 --------
 Symbolic Z-matrix:
 Charge =  0 Multiplicity = 1

 SCF Done:  E(RB3LYP) =  -319.677693534     A.U. after   15 cycles
 SCF Done:  E(RB3LYP) =  -319.749220930     A.U. after   13 cycles
 SCF Done:  E(RB3LYP) =  -319.796339870     A.U. after   14 cycles
 SCF Done:  E(RB3LYP) =  -319.799944565     A.U. after   12 cycles
 SCF Done:  E(RB3LYP) =  -319.800664035     A.U. after   12 cycles
 SCF Done:  E(RB3LYP) =  -319.800859321     A.U. after   12 cycles
 SCF Done:  E(RB3LYP) =  -319.800913297     A.U. after   12 cycles
 SCF Done:  E(RB3LYP) =  -319.801233456     A.U. after   12 cycles
 SCF Done:  E(RB3LYP) =  -319.801708214     A.U. after   13 cycles
 SCF Done:  E(RB3LYP) =  -319.802099051     A.U. after   12 cycles
 SCF Done:  E(RB3LYP) =  -319.802457195     A.U. after   10 cycles
 SCF Done:  E(RB3LYP) =  -319.802457923     A.U. after    8 cycles
 SCF Done:  E(RB3LYP) =  -319.802457967     A.U. after    8 cycles
 Optimization completed.
    -- Stationary point found.
 Normal termination of Gaussian 09 at Tue Aug 30 12:36:06 2022.

 ----------------------------------------------------------
 #P Geom=AllCheck Guess=TCheck SCRF=Check B3LYP/GTBas3 Freq
 ----------------------------------------------------------

 Structure from the checkpoint file:  "G4.Frag_888.chk"
 --------
 Frag_888
 --------
 Charge =  0 Multiplicity = 1

 SCF Done:  E(RB3LYP) =  -319.802457967     A.U. after    1 cycles

  Exact polarizability:  57.574  -2.615  59.255   0.425   1.267  34.221
 Approx polarizability:  84.961  -5.069 103.478   3.046   3.668  51.566

                      1                      2                      3
                      A                      A                      A
 Frequencies --     63.5608               161.6353               173.7374
 Red. masses --      3.7979                 1.1975                 1.1099
 Frc consts  --      0.0090                 0.0184                 0.0197
 IR Inten    --      2.9336                 3.3194                 0.4635

                      4                      5                      6
                      A                      A                      A
 Frequencies --    256.9987               376.6523               437.5131
 Red. masses --      2.6962                 2.9593                 2.4206
 Frc consts  --      0.1049                 0.2474                 0.2730
 IR Inten    --      7.4685                 6.0209                 2.0001

                      7                      8                      9
                      A                      A                      A
 Frequencies --    580.5715               601.7527               696.3803
 Red. masses --      4.2510                 4.7148                 1.5830
 Frc consts  --      0.8442                 1.0059                 0.4523
 IR Inten    --      2.1364                 4.5112                64.2518

                     10                     11                     12
                      A                      A                      A
 Frequencies --    772.3484               821.6918               958.1678
 Red. masses --      3.0691                 6.0579                 3.2754
 Frc consts  --      1.0787                 2.4099                 1.7717
 IR Inten    --      5.3549                21.3240                65.4185

                     13                     14                     15
                      A                      A                      A
 Frequencies --   1047.9076              1124.8278              1150.0398
 Red. masses --      1.4954                 1.2323                 1.4634
 Frc consts  --      0.9675                 0.9187                 1.1403
 IR Inten    --     13.4199                 2.0170                30.4242

                     16                     17                     18
                      A                      A                      A
 Frequencies --   1238.9552              1256.0916              1291.8597
 Red. masses --      2.0361                 2.4077                 4.4375
 Frc consts  --      1.8414                 2.2381                 4.3633
 IR Inten    --     35.6082                38.4275                 0.3456

                     19                     20                     21
                      A                      A                      A
 Frequencies --   1412.9700              1432.3276              1472.6225
 Red. masses --      1.7480                 1.1511                 1.1434
 Frc consts  --      2.0561                 1.3914                 1.4609
 IR Inten    --    239.7730                12.4927                41.6051

                     22                     23                     24
                      A                      A                      A
 Frequencies --   1484.4382              1488.1407              1501.5342
 Red. masses --      1.1137                 1.1218                 1.0505
 Frc consts  --      1.4459                 1.4637                 1.3955
 IR Inten    --      5.1869                21.6120                 7.5272

                     25                     26                     27
                      A                      A                      A
 Frequencies --   1517.1147              1669.2724              3006.1389
 Red. masses --      1.0505                 4.9029                 1.0441
 Frc consts  --      1.4246                 8.0493                 5.5594
 IR Inten    --     26.2984               168.5066                27.4063

                     28                     29                     30
                      A                      A                      A
 Frequencies --   3018.3473              3080.0712              3113.2957
 Red. masses --      1.0501                 1.0972                 1.0898
 Frc consts  --      5.6368                 6.1326                 6.2238
 IR Inten    --     39.9012                19.7218                15.7096

                     31                     32                     33
                      A                      A                      A
 Frequencies --   3141.4388              3180.5832              3505.5418
 Red. masses --      1.0957                 1.0987                 1.0723
 Frc consts  --      6.3706                 6.5483                 7.7641
 IR Inten    --     10.1900                 2.4059                 3.3101

 - Thermochemistry -
 -------------------
 Temperature   298.150 Kelvin.  Pressure   1.00000 Atm.
 Atom     1 has atomic number  6 and mass  12.00000

 Molecular mass:    89.05891 amu.
 Principal axes and moments of inertia in atomic units:
                           1         2         3
     Eigenvalues --   346.10712 468.95302 778.65232
           X            0.99905  -0.04262  -0.00954
           Y            0.04258   0.99908  -0.00413
           Z            0.00971   0.00372   0.99995
 This molecule is an asymmetric top.
 Rotational symmetry number  1.
 Rotational temperatures (Kelvin)      0.25025     0.18470     0.11124
 Rotational constants (GHZ):           5.21440     3.84845     2.31778
 Zero-point vibrational energy     281329.0 (Joules/Mol)
                                   67.23923 (Kcal/Mol)
 Warning -- explicit consideration of   8 degrees of freedom as
           vibrations may cause significant error
 Vibrational temperatures:     91.45   232.56   249.97   369.76   541.92
          (Kelvin)            629.48   835.31   865.79  1001.93  1111.24
                             1182.23  1378.59  1507.70  1618.37  1654.65
                             1782.58  1807.23  1858.70  2032.95  2060.80
                             2118.77  2135.77  2141.10  2160.37  2182.79
                             2401.71  4325.16  4342.72  4431.53  4479.33
                             4519.82  4576.14  5043.69

 Zero-point correction=                           0.107153 (Hartree/Particle)
 Thermal correction to Energy=                    0.113903
 Thermal correction to Enthalpy=                  0.114847
 Thermal correction to Gibbs Free Energy=         0.076503
 Sum of electronic and zero-point Energies=           -319.695305
 Sum of electronic and thermal Energies=              -319.688555
 Sum of electronic and thermal Enthalpies=            -319.687611
 Sum of electronic and thermal Free Energies=         -319.725955

                     E (Thermal)             CV                S
                      KCal/Mol        Cal/Mol-Kelvin    Cal/Mol-Kelvin
 Total                   71.475             22.986             80.702
 Electronic               0.000              0.000              0.000
 Translational            0.889              2.981             39.373
 Rotational               0.889              2.981             26.338
 Vibrational             69.698             17.024             14.991
 Vibration     1          0.597              1.972              4.343
 Vibration     2          0.622              1.889              2.531
 Vibration     3          0.627              1.875              2.395
 Vibration     4          0.667              1.751              1.682
 Vibration     5          0.747              1.520              1.053
 Vibration     6          0.798              1.388              0.834
 Vibration     7          0.937              1.073              0.484
 Vibration     8          0.960              1.028              0.447

 Optimization completed.
    -- Stationary point found.
 Normal termination of Gaussian 09 at Tue Aug 30 12:36:36 2022.

 -----------------------------------------------------------------
 #P Geom=AllCheck Guess=TCheck SCRF=Check CCSD(T,E4T,FrzG4)/GTBas1
 -----------------------------------------------------------------

 Structure from the checkpoint file:  "G4.Frag_888.chk"
 --------
 Frag_888
 --------
 Charge =  0 Multiplicity = 1

 SCF Done:  E(RHF) =  -317.849725180     A.U. after   15 cycles
 E2 =    -0.9551648167D+00 EUMP2 =    -0.31880488999679D+03
 CCSD(T)
 CCSD(T)= -0.31887301261D+03
 4SDTQ=-318.8795154\MP4SDQ=-318.8378507\CCSD=-318.8359096\CCSD(T)=-318.
 Normal termination of Gaussian 09 at Tue Aug 30 12:38:41 2022.

 ---------------------------------------------------------
 #P Geom=AllCheck Guess=TCheck SCRF=Check MP4=FrzG4/GTBas2
 ---------------------------------------------------------

 Structure from the checkpoint file:  "G4.Frag_888.chk"
 --------
 Frag_888
 --------
 Charge =  0 Multiplicity = 1

 SCF Done:  E(RHF) =  -317.859789657     A.U. after   14 cycles
 E2 =    -0.9682750103D+00 EUMP2 =    -0.31882806466750D+03
 Normal termination of Gaussian 09 at Tue Aug 30 12:39:17 2022.

 ---------------------------------------------------------
 #P Geom=AllCheck Guess=TCheck SCRF=Check MP4=FrzG4/GTBas3
 ---------------------------------------------------------

 Structure from the checkpoint file:  "G4.Frag_888.chk"
 --------
 Frag_888
 --------
 Charge =  0 Multiplicity = 1

 SCF Done:  E(RHF) =  -317.890244369     A.U. after   12 cycles
 E2 =    -0.1156825431D+01 EUMP2 =    -0.31904706980007D+03
 Normal termination of Gaussian 09 at Tue Aug 30 12:42:40 2022.

 -----------------------------------------------------------
 #P Geom=AllCheck Guess=TCheck SCRF=Check MP2=Full/GTLargeXP
 -----------------------------------------------------------

 Structure from the checkpoint file:  "G4.Frag_888.chk"
 --------
 Frag_888
 --------
 Charge =  0 Multiplicity = 1

 SCF Done:  E(RHF) =  -317.972834646     A.U. after   13 cycles
 E2 =    -0.1497063098D+01 EUMP2 =    -0.31946989774422D+03
 Normal termination of Gaussian 09 at Tue Aug 30 12:44:38 2022.
 SCF Done:  E(RHF) =  -317.998552522     A.U. after   10 cycles
 Normal termination of Gaussian 09 at Tue Aug 30 12:46:36 2022.

                         Standard orientation:
 ---------------------------------------------------------------------
 Center     Atomic      Atomic             Coordinates (Angstroms)
 Number     Number       Type             X           Y           Z
 ---------------------------------------------------------------------
      1          6           0       -1.207737   -1.283246    0.141868
      2          7           0       -0.576014   -0.045673   -0.300952
      3          6           0       -1.293194    1.192976   -0.008137
      4          7           0        0.821341    0.048499   -0.035720
      5          7           0        1.560709   -0.985528   -0.023842
      6          8           0        1.253630    1.188827    0.132741
      7          1           0       -2.286908   -1.146568    0.064887
      8          1           0       -0.957749   -1.540331    1.180920
      9          1           0       -0.946609   -2.123300   -0.509079
     10          1           0       -2.312471    1.067392   -0.378539
     11          1           0       -0.820530    2.018980   -0.533517
     12          1           0       -1.320096    1.429163    1.064232
     13          1           0        0.978653   -1.795418   -0.229618
 ---------------------------------------------------------------------

 SCF Done:  E(RHF) =  -318.003852207     A.U. after    8 cycles

 The electronic state is 1-A.
 Alpha  occ. eigenvalues --  -20.55785 -15.82673 -15.63871 -15.59502 -11.29279
 Alpha  occ. eigenvalues --  -11.27261  -1.54710  -1.30014  -1.24291  -0.99970
 Alpha  occ. eigenvalues --   -0.96992  -0.82597  -0.77308  -0.71766  -0.69829
 Alpha  occ. eigenvalues --   -0.63730  -0.62162  -0.60134  -0.58542  -0.55745
 Alpha  occ. eigenvalues --   -0.48383  -0.47022  -0.42293  -0.38608
 Alpha virt. eigenvalues --    0.02877   0.03666   0.04478   0.05331   0.06831
 Alpha virt. eigenvalues --    0.07126   0.07360   0.09028   0.09708   0.11541
 Alpha virt. eigenvalues --    0.12622   0.13003   0.13441   0.14387   0.14597

 Mulliken charges:
               1
     1  C   -0.517901
     2  N    0.017816
     3  C   -0.473355
     4  N    0.467759
     5  N   -0.507142
     6  O   -0.473589
     7  H    0.211255
     8  H    0.195691
     9  H    0.186956
    10  H    0.184824
    11  H    0.232967
    12  H    0.176356
    13  H    0.298364
 Sum of Mulliken charges =  -0.00000

 Dipole moment (field-independent basis, Debye):
    X=             -5.1074    Y=             -2.2106    Z=              0.0023  Tot=              5.5653
 Quadrupole moment (field-independent basis, Debye-Ang):
   XX=            -41.4587   YY=            -34.4180   ZZ=            -37.4101
   XY=             -1.2673   XZ=             -1.1501   YZ=             -0.0650

 Normal termination of Gaussian 09 at Tue Aug 30 12:53:33 2022.
