 Gaussian 09, Revision E.01,
 Gaussian 09:  ES64L-G09RevE.01 30-Nov-2015

 -----
 #P G4
 -----

 ---------
 Frag_1057
 ---------
 Symbolic Z-matrix:
 Charge =  0 Multiplicity = 1

 SCF Done:  E(RB3LYP) =  -288.988752988     A.U. after   12 cycles
 SCF Done:  E(RB3LYP) =  -288.995732056     A.U. after   11 cycles
 SCF Done:  E(RB3LYP) =  -288.996726395     A.U. after   12 cycles
 SCF Done:  E(RB3LYP) =  -288.996944836     A.U. after   11 cycles
 SCF Done:  E(RB3LYP) =  -288.996969201     A.U. after    9 cycles
 SCF Done:  E(RB3LYP) =  -288.996973139     A.U. after    8 cycles
 SCF Done:  E(RB3LYP) =  -288.996974101     A.U. after    7 cycles
 SCF Done:  E(RB3LYP) =  -288.996974564     A.U. after    7 cycles
 Optimization completed.
    -- Stationary point found.
 Normal termination of Gaussian 09 at Thu Aug 25 02:16:09 2022.

 ----------------------------------------------------------
 #P Geom=AllCheck Guess=TCheck SCRF=Check B3LYP/GTBas3 Freq
 ----------------------------------------------------------

 Structure from the checkpoint file:  "G4.Frag_1057.chk"
 ---------
 Frag_1057
 ---------
 Charge =  0 Multiplicity = 1

 SCF Done:  E(RB3LYP) =  -288.996974564     A.U. after    1 cycles

  Exact polarizability:  61.192  -1.758  55.892  -0.462   0.542  53.706
 Approx polarizability:  84.118  -2.293  77.305  -0.834   1.320  75.639

                      1                      2                      3
                      A                      A                      A
 Frequencies --    137.6138               191.1378               235.8394
 Red. masses --      2.2272                 1.2151                 1.0866
 Frc consts  --      0.0249                 0.0262                 0.0356
 IR Inten    --      0.1360                 0.5751                 2.2094

                      4                      5                      6
                      A                      A                      A
 Frequencies --    256.5295               263.0205               327.1583
 Red. masses --      1.4120                 1.6884                 1.4139
 Frc consts  --      0.0547                 0.0688                 0.0892
 IR Inten    --      0.6051                 1.1670                37.8954

                      7                      8                      9
                      A                      A                      A
 Frequencies --    343.9189               355.3309               405.0530
 Red. masses --      1.9361                 1.9430                 2.2846
 Frc consts  --      0.1349                 0.1445                 0.2208
 IR Inten    --     30.7780                 9.9292                 0.2823

                     10                     11                     12
                      A                      A                      A
 Frequencies --    455.5494               534.2535               746.2600
 Red. masses --      2.2155                 3.2991                 3.8870
 Frc consts  --      0.2709                 0.5548                 1.2754
 IR Inten    --     22.4705                 3.8077                 2.7352

                     13                     14                     15
                      A                      A                      A
 Frequencies --    858.3038               918.7022               928.2674
 Red. masses --      2.6155                 1.7314                 1.8099
 Frc consts  --      1.1353                 0.8610                 0.9189
 IR Inten    --     31.2556                 0.9303                 4.2984

                     16                     17                     18
                      A                      A                      A
 Frequencies --    956.2924               966.8928              1002.2884
 Red. masses --      1.2157                 2.1685                 1.7872
 Frc consts  --      0.6550                 1.1944                 1.0578
 IR Inten    --      1.0198                22.0370                29.8193

                     19                     20                     21
                      A                      A                      A
 Frequencies --   1048.0421              1082.8060              1238.5898
 Red. masses --      1.4357                 1.4082                 2.2998
 Frc consts  --      0.9291                 0.9728                 2.0787
 IR Inten    --      2.3299                28.5434                17.8134

                     22                     23                     24
                      A                      A                      A
 Frequencies --   1257.9261              1285.1265              1365.3907
 Red. masses --      2.7354                 2.4246                 1.2312
 Frc consts  --      2.5503                 2.3593                 1.3524
 IR Inten    --     21.2888                13.6252                43.9682

                     25                     26                     27
                      A                      A                      A
 Frequencies --   1391.7548              1394.3910              1423.6336
 Red. masses --      1.2901                 1.2577                 1.2310
 Frc consts  --      1.4723                 1.4407                 1.4700
 IR Inten    --     13.8561                 7.4957                 2.4637

                     28                     29                     30
                      A                      A                      A
 Frequencies --   1471.0596              1481.6489              1485.9474
 Red. masses --      1.0489                 1.0587                 1.0487
 Frc consts  --      1.3373                 1.3694                 1.3643
 IR Inten    --      0.2768                 1.3558                 0.0881

                     31                     32                     33
                      A                      A                      A
 Frequencies --   1489.1887              1498.0644              1516.5618
 Red. masses --      1.0488                 1.0595                 1.1023
 Frc consts  --      1.3704                 1.4009                 1.4938
 IR Inten    --      0.0117                 4.1833                 2.3139

                     34                     35                     36
                      A                      A                      A
 Frequencies --   1521.6600              3027.8319              3031.8219
 Red. masses --      1.0643                 1.0380                 1.0370
 Frc consts  --      1.4519                 5.6069                 5.6161
 IR Inten    --      7.2860                14.9675                39.2582

                     37                     38                     39
                      A                      A                      A
 Frequencies --   3041.2622              3091.7477              3098.2534
 Red. masses --      1.0362                 1.0995                 1.0979
 Frc consts  --      5.6468                 6.1922                 6.2093
 IR Inten    --      7.9912                 6.5931                46.2456

                     40                     41                     42
                      A                      A                      A
 Frequencies --   3109.5108              3119.4054              3120.8723
 Red. masses --      1.1019                 1.1018                 1.1009
 Frc consts  --      6.2772                 6.3168                 6.3178
 IR Inten    --     14.9259                34.0673                13.7980

                     43                     44                     45
                      A                      A                      A
 Frequencies --   3131.7257              3441.1431              3811.6504
 Red. masses --      1.0990                 1.0749                 1.0683
 Frc consts  --      6.3508                 7.4992                 9.1449
 IR Inten    --     21.0055                 2.3801                36.9139

 - Thermochemistry -
 -------------------
 Temperature   298.150 Kelvin.  Pressure   1.00000 Atm.
 Atom     1 has atomic number  6 and mass  12.00000

 Molecular mass:    89.08406 amu.
 Principal axes and moments of inertia in atomic units:
                           1         2         3
     Eigenvalues --   408.55113 671.09913 672.16723
           X            0.99969  -0.02129  -0.01296
           Y            0.02182   0.99889   0.04173
           Z            0.01206  -0.04199   0.99905
 This molecule is an asymmetric top.
 Rotational symmetry number  1.
 Rotational temperatures (Kelvin)      0.21200     0.12906     0.12886
 Rotational constants (GHZ):           4.41742     2.68923     2.68496
 Zero-point vibrational energy     399908.2 (Joules/Mol)
                                   95.58035 (Kcal/Mol)
 Warning -- explicit consideration of  11 degrees of freedom as
           vibrations may cause significant error
 Vibrational temperatures:    198.00   275.00   339.32   369.09   378.43
          (Kelvin)            470.71   494.82   511.24   582.78   655.43
                              768.67  1073.70  1234.91  1321.81  1335.57
                             1375.89  1391.14  1442.07  1507.90  1557.91
                             1782.05  1809.87  1849.01  1964.49  2002.42
                             2006.22  2048.29  2116.52  2131.76  2137.94
                             2142.61  2155.38  2181.99  2189.33  4356.37
                             4362.11  4375.69  4448.33  4457.69  4473.89
                             4488.12  4490.23  4505.85  4951.03  5484.11

 Zero-point correction=                           0.152317 (Hartree/Particle)
 Thermal correction to Energy=                    0.160258
 Thermal correction to Enthalpy=                  0.161202
 Thermal correction to Gibbs Free Energy=         0.121482
 Sum of electronic and zero-point Energies=           -288.844658
 Sum of electronic and thermal Energies=              -288.836716
 Sum of electronic and thermal Enthalpies=            -288.835772
 Sum of electronic and thermal Free Energies=         -288.875492

                     E (Thermal)             CV                S
                      KCal/Mol        Cal/Mol-Kelvin    Cal/Mol-Kelvin
 Total                  100.564             29.319             83.598
 Electronic               0.000              0.000              0.000
 Translational            0.889              2.981             39.374
 Rotational               0.889              2.981             26.713
 Vibrational             98.786             23.357             17.511
 Vibration     1          0.614              1.916              2.837
 Vibration     2          0.634              1.852              2.217
 Vibration     3          0.655              1.786              1.834
 Vibration     4          0.666              1.752              1.685
 Vibration     5          0.670              1.741              1.642
 Vibration     6          0.711              1.621              1.274
 Vibration     7          0.723              1.588              1.194
 Vibration     8          0.731              1.564              1.142
 Vibration     9          0.770              1.459              0.944
 Vibration    10          0.814              1.349              0.779
 Vibration    11          0.889              1.174              0.578

 Optimization completed.
    -- Stationary point found.
 Normal termination of Gaussian 09 at Thu Aug 25 02:19:38 2022.

 -----------------------------------------------------------------
 #P Geom=AllCheck Guess=TCheck SCRF=Check CCSD(T,E4T,FrzG4)/GTBas1
 -----------------------------------------------------------------

 Structure from the checkpoint file:  "G4.Frag_1057.chk"
 ---------
 Frag_1057
 ---------
 Charge =  0 Multiplicity = 1

 SCF Done:  E(RHF) =  -287.119845268     A.U. after   12 cycles
 E2 =    -0.8782708331D+00 EUMP2 =    -0.28799811610099D+03
 CCSD(T)
 CCSD(T)= -0.28808737692D+03
 88.0595168\CCSD=-288.060594\CCSD(T)=-288.0873769\RMSD=5.641e-09\PG=C01
 Normal termination of Gaussian 09 at Thu Aug 25 02:27:17 2022.

 ---------------------------------------------------------
 #P Geom=AllCheck Guess=TCheck SCRF=Check MP4=FrzG4/GTBas2
 ---------------------------------------------------------

 Structure from the checkpoint file:  "G4.Frag_1057.chk"
 ---------
 Frag_1057
 ---------
 Charge =  0 Multiplicity = 1

 SCF Done:  E(RHF) =  -287.127263242     A.U. after   12 cycles
 E2 =    -0.8916877683D+00 EUMP2 =    -0.28801895101050D+03
 Normal termination of Gaussian 09 at Thu Aug 25 02:37:40 2022.

 ---------------------------------------------------------
 #P Geom=AllCheck Guess=TCheck SCRF=Check MP4=FrzG4/GTBas3
 ---------------------------------------------------------

 Structure from the checkpoint file:  "G4.Frag_1057.chk"
 ---------
 Frag_1057
 ---------
 Charge =  0 Multiplicity = 1

 SCF Done:  E(RHF) =  -287.158697072     A.U. after   11 cycles
 E2 =    -0.1093425504D+01 EUMP2 =    -0.28825212257620D+03
 Normal termination of Gaussian 09 at Thu Aug 25 06:44:18 2022.

 -----------------------------------------------------------
 #P Geom=AllCheck Guess=TCheck SCRF=Check MP2=Full/GTLargeXP
 -----------------------------------------------------------

 Structure from the checkpoint file:  "G4.Frag_1057.chk"
 ---------
 Frag_1057
 ---------
 Charge =  0 Multiplicity = 1

 SCF Done:  E(RHF) =  -287.229152869     A.U. after   12 cycles
 E2 =    -0.1429219598D+01 EUMP2 =    -0.28865837246668D+03
 Normal termination of Gaussian 09 at Thu Aug 25 06:52:45 2022.
 SCF Done:  E(RHF) =  -287.252522022     A.U. after    9 cycles
 Normal termination of Gaussian 09 at Thu Aug 25 07:00:49 2022.

                         Standard orientation:
 ---------------------------------------------------------------------
 Center     Atomic      Atomic             Coordinates (Angstroms)
 Number     Number       Type             X           Y           Z
 ---------------------------------------------------------------------
      1          6           0        0.403581   -0.846891    1.289231
      2          6           0        0.390896    0.014461    0.014060
      3          6           0        0.385023    1.506261    0.372568
      4          6           0        1.599034   -0.317799   -0.873111
      5          7           0       -0.794912   -0.255631   -0.834716
      6          8           0       -1.993217   -0.113556   -0.043031
      7          1           0        1.272525   -0.613158    1.913096
      8          1           0       -0.501215   -0.672733    1.875466
      9          1           0        0.449246   -1.913040    1.038045
     10          1           0        1.271987    1.766664    0.957987
     11          1           0        0.376474    2.118943   -0.534201
     12          1           0       -0.499434    1.753362    0.965169
     13          1           0        2.531475   -0.112509   -0.339179
     14          1           0        1.605525   -1.377717   -1.153666
     15          1           0        1.584202    0.277649   -1.790325
     16          1           0       -0.788633   -1.252096   -1.054148
     17          1           0       -2.463242    0.586308   -0.507474
 ---------------------------------------------------------------------

 SCF Done:  E(RHF) =  -287.257526027     A.U. after    7 cycles

 The electronic state is 1-A.
 Alpha  occ. eigenvalues --  -20.57765 -15.59910 -11.26315 -11.21617 -11.20878
 Alpha  occ. eigenvalues --  -11.20864  -1.39150  -1.14721  -1.00957  -0.93517
 Alpha  occ. eigenvalues --   -0.93241  -0.75835  -0.68020  -0.66063  -0.63161
 Alpha  occ. eigenvalues --   -0.59896  -0.58051  -0.53962  -0.53282  -0.52979
 Alpha  occ. eigenvalues --   -0.51404  -0.48277  -0.46736  -0.45825  -0.39641
 Alpha virt. eigenvalues --    0.03482   0.04191   0.04452   0.05219   0.07044
 Alpha virt. eigenvalues --    0.07232   0.07245   0.07402   0.07687   0.09988
 Alpha virt. eigenvalues --    0.10373   0.10840   0.11036   0.13609   0.14075

 Mulliken charges:
               1
     1  C   -0.573649
     2  C    0.425686
     3  C   -0.605137
     4  C   -0.580300
     5  N   -0.339817
     6  O   -0.553571
     7  H    0.165929
     8  H    0.198591
     9  H    0.152388
    10  H    0.165482
    11  H    0.174500
    12  H    0.179104
    13  H    0.172808
    14  H    0.154848
    15  H    0.178019
    16  H    0.287780
    17  H    0.397340
 Sum of Mulliken charges =  -0.00000

 Dipole moment (field-independent basis, Debye):
    X=              0.7357    Y=              0.1339    Z=             -0.2495  Tot=              0.7883
 Quadrupole moment (field-independent basis, Debye-Ang):
   XX=            -38.8743   YY=            -37.6385   ZZ=            -40.8321
   XY=             -2.2820   XZ=              1.6404   YZ=              0.8945

 Normal termination of Gaussian 09 at Thu Aug 25 10:12:36 2022.
