 Gaussian 09, Revision E.01,
 Gaussian 09:  ES64L-G09RevE.01 30-Nov-2015

 -----
 #P G4
 -----

 --------
 Frag_784
 --------
 Symbolic Z-matrix:
 Charge =  0 Multiplicity = 1

 SCF Done:  E(RB3LYP) =  -344.730772549     A.U. after   12 cycles
 SCF Done:  E(RB3LYP) =  -344.742863893     A.U. after   12 cycles
 SCF Done:  E(RB3LYP) =  -344.744358369     A.U. after   12 cycles
 SCF Done:  E(RB3LYP) =  -344.744784410     A.U. after   12 cycles
 SCF Done:  E(RB3LYP) =  -344.744850259     A.U. after   10 cycles
 SCF Done:  E(RB3LYP) =  -344.744862038     A.U. after    9 cycles
 SCF Done:  E(RB3LYP) =  -344.744865462     A.U. after    9 cycles
 SCF Done:  E(RB3LYP) =  -344.744866128     A.U. after    7 cycles
 SCF Done:  E(RB3LYP) =  -344.744866751     A.U. after    8 cycles
 SCF Done:  E(RB3LYP) =  -344.744867366     A.U. after    8 cycles
 SCF Done:  E(RB3LYP) =  -344.744867754     A.U. after    7 cycles
 Optimization completed.
    -- Stationary point found.
 Normal termination of Gaussian 09 at Fri Aug 26 12:20:54 2022.

 ----------------------------------------------------------
 #P Geom=AllCheck Guess=TCheck SCRF=Check B3LYP/GTBas3 Freq
 ----------------------------------------------------------

 Structure from the checkpoint file:  "G4.Frag_784.chk"
 --------
 Frag_784
 --------
 Charge =  0 Multiplicity = 1

 SCF Done:  E(RB3LYP) =  -344.744867754     A.U. after    1 cycles

  Exact polarizability:  53.890  -1.092  44.674  -3.102  -0.023  42.646
 Approx polarizability:  73.844  -3.176  60.747  -3.766   1.203  62.964

                      1                      2                      3
                      A                      A                      A
 Frequencies --    144.4846               169.6737               189.5015
 Red. masses --      3.4419                 1.2000                 1.0399
 Frc consts  --      0.0423                 0.0204                 0.0220
 IR Inten    --     14.0245               122.4748                58.6192

                      4                      5                      6
                      A                      A                      A
 Frequencies --    248.1176               272.2829               339.6016
 Red. masses --      1.0917                 3.0643                 2.4779
 Frc consts  --      0.0396                 0.1338                 0.1684
 IR Inten    --      0.9706                 8.8946                 2.8783

                      7                      8                      9
                      A                      A                      A
 Frequencies --    378.4530               424.4826               462.6363
 Red. masses --      3.3761                 2.5821                 1.2083
 Frc consts  --      0.2849                 0.2741                 0.1524
 IR Inten    --      5.4766                 0.1690                 9.4973

                     10                     11                     12
                      A                      A                      A
 Frequencies --    519.8518               593.4518               782.6901
 Red. masses --      3.3769                 4.3668                 5.3193
 Frc consts  --      0.5377                 0.9061                 1.9199
 IR Inten    --     11.7814                15.1103                 2.7489

                     13                     14                     15
                      A                      A                      A
 Frequencies --    856.4045               927.1843               953.0214
 Red. masses --      2.7958                 1.7105                 4.9581
 Frc consts  --      1.2081                 0.8664                 2.6532
 IR Inten    --     40.8485                 2.3830                 7.5055

                     16                     17                     18
                      A                      A                      A
 Frequencies --    992.4374              1012.1292              1140.2000
 Red. masses --      2.0747                 1.3338                 1.6319
 Frc consts  --      1.2040                 0.8051                 1.2500
 IR Inten    --     31.8693                 0.9578                44.0070

                     19                     20                     21
                      A                      A                      A
 Frequencies --   1197.9515              1247.6243              1375.8040
 Red. masses --      2.3263                 3.0983                 1.2221
 Frc consts  --      1.9669                 2.8414                 1.3629
 IR Inten    --     94.2208                95.2195                33.0109

                     22                     23                     24
                      A                      A                      A
 Frequencies --   1384.7130              1407.7059              1426.6690
 Red. masses --      1.1620                 1.3299                 1.5763
 Frc consts  --      1.3128                 1.5528                 1.8903
 IR Inten    --     45.4375                30.0054                24.8579

                     25                     26                     27
                      A                      A                      A
 Frequencies --   1479.4780              1481.7078              1495.5051
 Red. masses --      1.0751                 1.0522                 1.1064
 Frc consts  --      1.3865                 1.3610                 1.4580
 IR Inten    --      1.0539                 0.5587                 4.7856

                     28                     29                     30
                      A                      A                      A
 Frequencies --   1505.5594              3050.2651              3061.9299
 Red. masses --      1.0521                 1.0343                 1.0342
 Frc consts  --      1.4051                 5.6700                 5.7127
 IR Inten    --      1.6549                 9.5802                 6.8342

                     31                     32                     33
                      A                      A                      A
 Frequencies --   3129.0406              3129.4784              3142.7371
 Red. masses --      1.1020                 1.1026                 1.1024
 Frc consts  --      6.3570                 6.3620                 6.4149
 IR Inten    --     13.6291                11.0446                16.0098

                     34                     35                     36
                      A                      A                      A
 Frequencies --   3146.2248              3755.8665              3805.7042
 Red. masses --      1.1028                 1.0684                 1.0651
 Frc consts  --      6.4319                 8.8800                 9.0887
 IR Inten    --     14.2053                34.1927                18.7138

 - Thermochemistry -
 -------------------
 Temperature   298.150 Kelvin.  Pressure   1.00000 Atm.
 Atom     1 has atomic number  6 and mass  12.00000

 Molecular mass:    92.04734 amu.
 Principal axes and moments of inertia in atomic units:
                           1         2         3
     Eigenvalues --   380.89790 618.99035 639.76823
           X            0.99783  -0.01700  -0.06360
           Y            0.01193   0.99678  -0.07929
           Z            0.06474   0.07836   0.99482
 This molecule is an asymmetric top.
 Rotational symmetry number  1.
 Rotational temperatures (Kelvin)      0.22739     0.13993     0.13538
 Rotational constants (GHZ):           4.73812     2.91562     2.82093
 Zero-point vibrational energy     302838.1 (Joules/Mol)
                                   72.38003 (Kcal/Mol)
 Warning -- explicit consideration of  11 degrees of freedom as
           vibrations may cause significant error
 Vibrational temperatures:    207.88   244.12   272.65   356.99   391.75
          (Kelvin)            488.61   544.51   610.74   665.63   747.95
                              853.84  1126.12  1232.17  1334.01  1371.18
                             1427.89  1456.23  1640.49  1723.58  1795.05
                             1979.47  1992.29  2025.37  2052.66  2128.64
                             2131.84  2151.70  2166.16  4388.65  4405.43
                             4501.99  4502.62  4521.69  4526.71  5403.85
                             5475.55

 Zero-point correction=                           0.115345 (Hartree/Particle)
 Thermal correction to Energy=                    0.122995
 Thermal correction to Enthalpy=                  0.123939
 Thermal correction to Gibbs Free Energy=         0.084620
 Sum of electronic and zero-point Energies=           -344.629523
 Sum of electronic and thermal Energies=              -344.621873
 Sum of electronic and thermal Enthalpies=            -344.620928
 Sum of electronic and thermal Free Energies=         -344.660248

                     E (Thermal)             CV                S
                      KCal/Mol        Cal/Mol-Kelvin    Cal/Mol-Kelvin
 Total                   77.181             27.462             82.754
 Electronic               0.000              0.000              0.000
 Translational            0.889              2.981             39.471
 Rotational               0.889              2.981             26.514
 Vibrational             75.403             21.500             16.769
 Vibration     1          0.616              1.909              2.744
 Vibration     2          0.625              1.880              2.439
 Vibration     3          0.633              1.854              2.233
 Vibration     4          0.662              1.766              1.744
 Vibration     5          0.675              1.724              1.582
 Vibration     6          0.720              1.596              1.214
 Vibration     7          0.749              1.516              1.045
 Vibration     8          0.786              1.417              0.877
 Vibration     9          0.820              1.333              0.758
 Vibration    10          0.875              1.206              0.610
 Vibration    11          0.951              1.046              0.461

 Normal termination of Gaussian 09 at Fri Aug 26 12:21:27 2022.

 -----------------------------------------------------------------
 #P Geom=AllCheck Guess=TCheck SCRF=Check CCSD(T,E4T,FrzG4)/GTBas1
 -----------------------------------------------------------------

 Structure from the checkpoint file:  "G4.Frag_784.chk"
 --------
 Frag_784
 --------
 Charge =  0 Multiplicity = 1

 SCF Done:  E(RHF) =  -342.737363226     A.U. after   13 cycles
 E2 =    -0.9409907514D+00 EUMP2 =    -0.34367835397752D+03
 CCSD(T)
 CCSD(T)= -0.34375232205D+03
 DQ=-343.7248912\CCSD=-343.7250355\CCSD(T)=-343.7523221\RMSD=5.868e-09\
 Normal termination of Gaussian 09 at Fri Aug 26 12:23:54 2022.

 ---------------------------------------------------------
 #P Geom=AllCheck Guess=TCheck SCRF=Check MP4=FrzG4/GTBas2
 ---------------------------------------------------------

 Structure from the checkpoint file:  "G4.Frag_784.chk"
 --------
 Frag_784
 --------
 Charge =  0 Multiplicity = 1

 SCF Done:  E(RHF) =  -342.747406267     A.U. after   12 cycles
 E2 =    -0.9573343441D+00 EUMP2 =    -0.34370474061069D+03
 Normal termination of Gaussian 09 at Fri Aug 26 12:24:37 2022.

 ---------------------------------------------------------
 #P Geom=AllCheck Guess=TCheck SCRF=Check MP4=FrzG4/GTBas3
 ---------------------------------------------------------

 Structure from the checkpoint file:  "G4.Frag_784.chk"
 --------
 Frag_784
 --------
 Charge =  0 Multiplicity = 1

 SCF Done:  E(RHF) =  -342.781551166     A.U. after   12 cycles
 E2 =    -0.1169249795D+01 EUMP2 =    -0.34395080096012D+03
 Normal termination of Gaussian 09 at Fri Aug 26 12:28:28 2022.

 -----------------------------------------------------------
 #P Geom=AllCheck Guess=TCheck SCRF=Check MP2=Full/GTLargeXP
 -----------------------------------------------------------

 Structure from the checkpoint file:  "G4.Frag_784.chk"
 --------
 Frag_784
 --------
 Charge =  0 Multiplicity = 1

 SCF Done:  E(RHF) =  -342.875590317     A.U. after   13 cycles
 E2 =    -0.1521180833D+01 EUMP2 =    -0.34439677115020D+03
 Normal termination of Gaussian 09 at Fri Aug 26 12:30:34 2022.
 SCF Done:  E(RHF) =  -342.904592836     A.U. after    9 cycles
 Normal termination of Gaussian 09 at Fri Aug 26 12:32:42 2022.

                         Standard orientation:
 ---------------------------------------------------------------------
 Center     Atomic      Atomic             Coordinates (Angstroms)
 Number     Number       Type             X           Y           Z
 ---------------------------------------------------------------------
      1          6           0        0.443284    1.493561   -0.352014
      2          6           0        0.385444    0.018391    0.046374
      3          6           0        1.615125   -0.773759   -0.378571
      4          8           0        0.237980   -0.134863    1.433890
      5          8           0       -0.687916   -0.641906   -0.648879
      6          8           0       -1.932932   -0.070569   -0.186402
      7          1           0        1.260770    1.991955    0.175428
      8          1           0       -0.497533    1.989694   -0.099380
      9          1           0        0.600506    1.593175   -1.428925
     10          1           0        1.536921   -1.797847   -0.008216
     11          1           0        2.510987   -0.312069    0.042312
     12          1           0        1.699124   -0.790446   -1.467152
     13          1           0       -0.474740    0.454912    1.704419
     14          1           0       -2.236205   -0.779826    0.397908
 ---------------------------------------------------------------------

 SCF Done:  E(RHF) =  -342.910826340     A.U. after    8 cycles

 The electronic state is 1-A.
 Alpha  occ. eigenvalues --  -20.62517 -20.62156 -20.56949 -11.34762 -11.22301
 Alpha  occ. eigenvalues --  -11.22127  -1.48578  -1.38091  -1.22595  -1.02834
 Alpha  occ. eigenvalues --   -0.95605  -0.80553  -0.72307  -0.72004  -0.66267
 Alpha  occ. eigenvalues --   -0.64986  -0.59166  -0.56591  -0.55546  -0.54116
 Alpha  occ. eigenvalues --   -0.53474  -0.51169  -0.50736  -0.47227  -0.45596
 Alpha virt. eigenvalues --    0.03711   0.04197   0.04700   0.05740   0.06976
 Alpha virt. eigenvalues --    0.07072   0.07719   0.07965   0.09365   0.10082
 Alpha virt. eigenvalues --    0.12379   0.13072   0.14703   0.14722   0.15634

 Mulliken charges:
               1
     1  C   -0.559354
     2  C    0.526366
     3  C   -0.558926
     4  O   -0.609581
     5  O   -0.246971
     6  O   -0.447368
     7  H    0.184178
     8  H    0.189417
     9  H    0.183186
    10  H    0.187789
    11  H    0.178706
    12  H    0.188907
    13  H    0.379184
    14  H    0.404467
 Sum of Mulliken charges =  -0.00000

 Dipole moment (field-independent basis, Debye):
    X=              0.1254    Y=              0.7372    Z=              0.7323  Tot=              1.0467
 Quadrupole moment (field-independent basis, Debye-Ang):
   XX=            -34.5796   YY=            -35.7015   ZZ=            -38.4178
   XY=              1.6521   XZ=             -5.7061   YZ=              0.4575

 Normal termination of Gaussian 09 at Fri Aug 26 12:39:56 2022.
