 Gaussian 09, Revision E.01,
 Gaussian 09:  ES64L-G09RevE.01 30-Nov-2015

 -----
 #P G4
 -----

 --------
 Frag_560
 --------
 Symbolic Z-matrix:
 Charge =  0 Multiplicity = 1

 SCF Done:  E(RB3LYP) =  -267.933790905     A.U. after   14 cycles
 SCF Done:  E(RB3LYP) =  -267.943462738     A.U. after   12 cycles
 SCF Done:  E(RB3LYP) =  -267.944745480     A.U. after   12 cycles
 SCF Done:  E(RB3LYP) =  -267.945619205     A.U. after   12 cycles
 SCF Done:  E(RB3LYP) =  -267.945884004     A.U. after   10 cycles
 SCF Done:  E(RB3LYP) =  -267.946634215     A.U. after   12 cycles
 SCF Done:  E(RB3LYP) =  -267.946938748     A.U. after   11 cycles
 SCF Done:  E(RB3LYP) =  -267.947317882     A.U. after   11 cycles
 SCF Done:  E(RB3LYP) =  -267.947620589     A.U. after   10 cycles
 SCF Done:  E(RB3LYP) =  -267.947670482     A.U. after   10 cycles
 SCF Done:  E(RB3LYP) =  -267.947691853     A.U. after    9 cycles
 SCF Done:  E(RB3LYP) =  -267.947695739     A.U. after    7 cycles
 SCF Done:  E(RB3LYP) =  -267.947695876     A.U. after    7 cycles
 Optimization completed.
    -- Stationary point found.
 Normal termination of Gaussian 09 at Thu Aug 25 19:35:43 2022.

 ----------------------------------------------------------
 #P Geom=AllCheck Guess=TCheck SCRF=Check B3LYP/GTBas3 Freq
 ----------------------------------------------------------

 Structure from the checkpoint file:  "G4.Frag_560.chk"
 --------
 Frag_560
 --------
 Charge =  0 Multiplicity = 1

 SCF Done:  E(RB3LYP) =  -267.947695876     A.U. after    1 cycles

  Exact polarizability:  64.645   2.356  65.907   3.012   6.815  46.137
 Approx polarizability:  84.441   3.368  99.176   4.195  16.229  70.502

                      1                      2                      3
                      A                      A                      A
 Frequencies --     89.3097               227.9396               244.2799
 Red. masses --      3.1638                 1.0834                 1.8931
 Frc consts  --      0.0149                 0.0332                 0.0666
 IR Inten    --      1.6030                 6.9526                 5.7506

                      4                      5                      6
                      A                      A                      A
 Frequencies --    276.9463               317.0170               323.8319
 Red. masses --      1.0808                 2.3350                 1.3423
 Frc consts  --      0.0488                 0.1383                 0.0829
 IR Inten    --     17.5721                 9.4139                28.8781

                      7                      8                      9
                      A                      A                      A
 Frequencies --    389.5293               460.1313               540.7977
 Red. masses --      2.7154                 2.2872                 3.0313
 Frc consts  --      0.2428                 0.2853                 0.5223
 IR Inten    --      4.8290                 5.1322                 8.8893

                     10                     11                     12
                      A                      A                      A
 Frequencies --    613.2305               678.4091               763.2003
 Red. masses --      1.8206                 1.4718                 1.2828
 Frc consts  --      0.4034                 0.3991                 0.4402
 IR Inten    --    118.4326               109.6441                16.0731

                     13                     14                     15
                      A                      A                      A
 Frequencies --    778.0528               836.2038               867.2938
 Red. masses --      2.1718                 1.4259                 1.3853
 Frc consts  --      0.7746                 0.5875                 0.6139
 IR Inten    --     12.7791                66.8641                81.5550

                     16                     17                     18
                      A                      A                      A
 Frequencies --    942.3505               987.8192              1013.1359
 Red. masses --      2.0602                 1.5407                 1.5353
 Frc consts  --      1.0779                 0.8858                 0.9285
 IR Inten    --      5.8339                 5.1857                 3.2472

                     19                     20                     21
                      A                      A                      A
 Frequencies --   1091.9529              1118.3002              1167.4828
 Red. masses --      1.7874                 1.6521                 1.9488
 Frc consts  --      1.2557                 1.2173                 1.5650
 IR Inten    --     17.3735                 4.2283                 9.6640

                     22                     23                     24
                      A                      A                      A
 Frequencies --   1252.1473              1320.5503              1374.0444
 Red. masses --      1.2082                 2.0064                 1.3645
 Frc consts  --      1.1161                 2.0615                 1.5178
 IR Inten    --      0.2801                35.9920                13.3327

                     25                     26                     27
                      A                      A                      A
 Frequencies --   1401.4496              1419.8765              1437.9196
 Red. masses --      1.2894                 1.6793                 1.1962
 Frc consts  --      1.4921                 1.9947                 1.4573
 IR Inten    --      5.3441                 6.5067                 5.3628

                     28                     29                     30
                      A                      A                      A
 Frequencies --   1488.8226              1499.3506              1645.0333
 Red. masses --      1.0561                 1.0844                 1.1143
 Frc consts  --      1.3793                 1.4363                 1.7766
 IR Inten    --      1.8598                 3.8480                31.5651

                     31                     32                     33
                      A                      A                      A
 Frequencies --   1653.5204              1721.6720              2915.8734
 Red. masses --      1.1323                 5.0321                 1.0806
 Frc consts  --      1.8241                 8.7882                 5.4133
 IR Inten    --     49.1449                83.2496                72.6725

                     34                     35                     36
                      A                      A                      A
 Frequencies --   3033.9155              3098.0759              3126.6219
 Red. masses --      1.0361                 1.0998                 1.1017
 Frc consts  --      5.6191                 6.2191                 6.3454
 IR Inten    --     25.8480                34.1019                19.6165

                     37                     38                     39
                      A                      A                      A
 Frequencies --   3158.3110              3266.0134              3492.9855
 Red. masses --      1.0640                 1.1102                 1.0489
 Frc consts  --      6.2533                 6.9776                 7.5404
 IR Inten    --     13.0804                 2.9539                 0.3530

                     40                     41                     42
                      A                      A                      A
 Frequencies --   3546.1763              3576.0054              3642.2638
 Red. masses --      1.0473                 1.0930                 1.0967
 Frc consts  --      7.7593                 8.2348                 8.5717
 IR Inten    --      4.3049                 0.2304                 6.2691

 - Thermochemistry -
 -------------------
 Temperature   298.150 Kelvin.  Pressure   1.00000 Atm.
 Atom     1 has atomic number  6 and mass  12.00000

 Molecular mass:    86.08440 amu.
 Principal axes and moments of inertia in atomic units:
                           1         2         3
     Eigenvalues --   379.79850 612.53616 816.26261
           X            0.99954   0.02774   0.01258
           Y           -0.02760   0.99956  -0.01081
           Z           -0.01288   0.01046   0.99986
 This molecule is an asymmetric top.
 Rotational symmetry number  1.
 Rotational temperatures (Kelvin)      0.22805     0.14140     0.10611
 Rotational constants (GHZ):           4.75184     2.94634     2.21098
 Zero-point vibrational energy     375614.5 (Joules/Mol)
                                   89.77402 (Kcal/Mol)
 Warning -- explicit consideration of  10 degrees of freedom as
           vibrations may cause significant error
 Vibrational temperatures:    128.50   327.95   351.46   398.46   456.12
          (Kelvin)            465.92   560.45   662.03   778.09   882.30
                              976.08  1098.07  1119.44  1203.11  1247.84
                             1355.83  1421.25  1457.67  1571.07  1608.98
                             1679.75  1801.56  1899.97  1976.94  2016.37
                             2042.88  2068.84  2142.08  2157.23  2366.83
                             2379.04  2477.10  4195.29  4365.12  4457.43
                             4498.51  4544.10  4699.06  5025.62  5102.15
                             5145.07  5240.40

 Zero-point correction=                           0.143064 (Hartree/Particle)
 Thermal correction to Energy=                    0.150512
 Thermal correction to Enthalpy=                  0.151456
 Thermal correction to Gibbs Free Energy=         0.112465
 Sum of electronic and zero-point Energies=           -267.804632
 Sum of electronic and thermal Energies=              -267.797184
 Sum of electronic and thermal Enthalpies=            -267.796240
 Sum of electronic and thermal Free Energies=         -267.835231

                     E (Thermal)             CV                S
                      KCal/Mol        Cal/Mol-Kelvin    Cal/Mol-Kelvin
 Total                   94.448             27.857             82.064
 Electronic               0.000              0.000              0.000
 Translational            0.889              2.981             39.271
 Rotational               0.889              2.981             26.743
 Vibrational             92.670             21.896             16.050
 Vibration     1          0.602              1.957              3.675
 Vibration     2          0.651              1.798              1.895
 Vibration     3          0.660              1.772              1.771
 Vibration     4          0.678              1.716              1.552
 Vibration     5          0.704              1.641              1.325
 Vibration     6          0.708              1.628              1.291
 Vibration     7          0.757              1.493              1.002
 Vibration     8          0.818              1.338              0.766
 Vibration     9          0.896              1.160              0.564
 Vibration    10          0.973              1.004              0.427

 Normal termination of Gaussian 09 at Thu Aug 25 19:38:48 2022.

 -----------------------------------------------------------------
 #P Geom=AllCheck Guess=TCheck SCRF=Check CCSD(T,E4T,FrzG4)/GTBas1
 -----------------------------------------------------------------

 Structure from the checkpoint file:  "G4.Frag_560.chk"
 --------
 Frag_560
 --------
 Charge =  0 Multiplicity = 1

 SCF Done:  E(RHF) =  -266.154610019     A.U. after   12 cycles
 E2 =    -0.8460484971D+00 EUMP2 =    -0.26700065851627D+03
 CCSD(T)
 CCSD(T)= -0.26708835317D+03
 866283\MP4SDQ=-267.0591391\CCSD=-267.0603516\CCSD(T)=-267.0883532\RMSD
 Normal termination of Gaussian 09 at Thu Aug 25 19:45:48 2022.

 ---------------------------------------------------------
 #P Geom=AllCheck Guess=TCheck SCRF=Check MP4=FrzG4/GTBas2
 ---------------------------------------------------------

 Structure from the checkpoint file:  "G4.Frag_560.chk"
 --------
 Frag_560
 --------
 Charge =  0 Multiplicity = 1

 SCF Done:  E(RHF) =  -266.164762805     A.U. after   14 cycles
 E2 =    -0.8590843858D+00 EUMP2 =    -0.26702384719093D+03
 Normal termination of Gaussian 09 at Thu Aug 25 19:55:21 2022.

 ---------------------------------------------------------
 #P Geom=AllCheck Guess=TCheck SCRF=Check MP4=FrzG4/GTBas3
 ---------------------------------------------------------

 Structure from the checkpoint file:  "G4.Frag_560.chk"
 --------
 Frag_560
 --------
 Charge =  0 Multiplicity = 1

 SCF Done:  E(RHF) =  -266.195316320     A.U. after   11 cycles
 E2 =    -0.1040879697D+01 EUMP2 =    -0.26723619601633D+03
 Normal termination of Gaussian 09 at Thu Aug 25 23:29:54 2022.

 -----------------------------------------------------------
 #P Geom=AllCheck Guess=TCheck SCRF=Check MP2=Full/GTLargeXP
 -----------------------------------------------------------

 Structure from the checkpoint file:  "G4.Frag_560.chk"
 --------
 Frag_560
 --------
 Charge =  0 Multiplicity = 1

 SCF Done:  E(RHF) =  -266.261199354     A.U. after   12 cycles
 E2 =    -0.1367972689D+01 EUMP2 =    -0.26762917204321D+03
 Normal termination of Gaussian 09 at Thu Aug 25 23:36:54 2022.
 SCF Done:  E(RHF) =  -266.282128057     A.U. after    8 cycles
 Normal termination of Gaussian 09 at Thu Aug 25 23:43:20 2022.

                         Standard orientation:
 ---------------------------------------------------------------------
 Center     Atomic      Atomic             Coordinates (Angstroms)
 Number     Number       Type             X           Y           Z
 ---------------------------------------------------------------------
      1          6           0        1.180957    1.244236    0.598751
      2          6           0        0.793434    0.129042   -0.028463
      3          7           0        1.683121   -0.848135   -0.497991
      4          6           0       -0.658670   -0.176622   -0.362794
      5          6           0       -1.262750   -1.163372    0.650156
      6          7           0       -1.462875    1.046037   -0.358006
      7          1           0        0.452642    1.990140    0.881740
      8          1           0        2.223571    1.430398    0.834803
      9          1           0        1.304335   -1.785050   -0.520921
     10          1           0        2.583762   -0.839229   -0.039055
     11          1           0       -0.647808   -0.674501   -1.350147
     12          1           0       -0.675402   -2.084649    0.714736
     13          1           0       -2.281564   -1.442238    0.358759
     14          1           0       -1.296996   -0.700352    1.639608
     15          1           0       -1.103804    1.694831   -1.051670
     16          1           0       -2.418289    0.825633   -0.621777
 ---------------------------------------------------------------------

 SCF Done:  E(RHF) =  -266.286579278     A.U. after    8 cycles

 The electronic state is 1-A.
 Alpha  occ. eigenvalues --  -15.55729 -15.53961 -11.26445 -11.26373 -11.21948
 Alpha  occ. eigenvalues --  -11.18791  -1.22054  -1.17695  -1.00790  -0.97594
 Alpha  occ. eigenvalues --   -0.85310  -0.73287  -0.68856  -0.66883  -0.64443
 Alpha  occ. eigenvalues --   -0.59221  -0.58091  -0.54998  -0.52513  -0.51987
 Alpha  occ. eigenvalues --   -0.47955  -0.47304  -0.39557  -0.31191
 Alpha virt. eigenvalues --    0.03365   0.04442   0.04507   0.04980   0.06702
 Alpha virt. eigenvalues --    0.07095   0.07427   0.07645   0.07806   0.09977
 Alpha virt. eigenvalues --    0.10391   0.10716   0.11379   0.12166   0.12785

 Mulliken charges:
               1
     1  C   -0.553561
     2  C    0.240603
     3  N   -0.742078
     4  C    0.074227
     5  C   -0.525655
     6  N   -0.746859
     7  H    0.219331
     8  H    0.155210
     9  H    0.300635
    10  H    0.306863
    11  H    0.180438
    12  H    0.151270
    13  H    0.154621
    14  H    0.187565
    15  H    0.309763
    16  H    0.287626
 Sum of Mulliken charges =  -0.00000

 Dipole moment (field-independent basis, Debye):
    X=             -0.4281    Y=             -1.7887    Z=             -0.6337  Tot=              1.9453
 Quadrupole moment (field-independent basis, Debye-Ang):
   XX=            -35.0578   YY=            -37.4074   ZZ=            -41.5000
   XY=             -1.2657   XZ=              4.2763   YZ=             -1.5677

 Normal termination of Gaussian 09 at Fri Aug 26 02:53:44 2022.
