 Gaussian 09, Revision E.01,
 Gaussian 09:  ES64L-G09RevE.01 30-Nov-2015

 -----
 #P G4
 -----

 ---------
 Frag_1051
 ---------
 Symbolic Z-matrix:
 Charge =  0 Multiplicity = 1

 SCF Done:  E(RB3LYP) =  -324.464550563     A.U. after   12 cycles
 SCF Done:  E(RB3LYP) =  -324.469597671     A.U. after   11 cycles
 SCF Done:  E(RB3LYP) =  -324.470210878     A.U. after   11 cycles
 SCF Done:  E(RB3LYP) =  -324.470270469     A.U. after   10 cycles
 SCF Done:  E(RB3LYP) =  -324.470275233     A.U. after    7 cycles
 SCF Done:  E(RB3LYP) =  -324.470276757     A.U. after    7 cycles
 Optimization completed.
    -- Stationary point found.
 Normal termination of Gaussian 09 at Fri Aug 19 08:51:09 2022.

 ----------------------------------------------------------
 #P Geom=AllCheck Guess=TCheck SCRF=Check B3LYP/GTBas3 Freq
 ----------------------------------------------------------

 Structure from the checkpoint file:  "G4.Frag_1051.chk"
 ---------
 Frag_1051
 ---------
 Charge =  0 Multiplicity = 1

 SCF Done:  E(RB3LYP) =  -324.470276757     A.U. after    1 cycles

  Exact polarizability:  73.474   0.000  67.151   0.696  -0.000  63.604
 Approx polarizability:  97.521  -0.000  94.632   0.538  -0.000  93.117

                      1                      2                      3
                      A                      A                      A
 Frequencies --     81.8815               188.4388               241.6073
 Red. masses --      2.7615                 1.1405                 1.0251
 Frc consts  --      0.0109                 0.0239                 0.0353
 IR Inten    --      0.4511                 0.0004                 0.2319

                      4                      5                      6
                      A                      A                      A
 Frequencies --    242.0294               271.8534               291.3189
 Red. masses --      1.1531                 1.8487                 2.4676
 Frc consts  --      0.0398                 0.0805                 0.1234
 IR Inten    --      1.9152                 9.5319                 0.3461

                      7                      8                      9
                      A                      A                      A
 Frequencies --    321.9090               347.1340               356.7954
 Red. masses --      1.0489                 1.5248                 2.5636
 Frc consts  --      0.0640                 0.1083                 0.1923
 IR Inten    --      4.2440                35.9465                 3.1872

                     10                     11                     12
                      A                      A                      A
 Frequencies --    390.4094               411.8585               504.8428
 Red. masses --      2.3481                 1.8094                 2.3460
 Frc consts  --      0.2109                 0.1808                 0.3523
 IR Inten    --      9.0261                17.7032                 8.6241

                     13                     14                     15
                      A                      A                      A
 Frequencies --    510.2378               547.2602               697.6148
 Red. masses --      3.2929                 2.6068                 3.9218
 Frc consts  --      0.5051                 0.4600                 1.1245
 IR Inten    --     12.2945                 0.1862                 3.7687

                     16                     17                     18
                      A                      A                      A
 Frequencies --    819.9676               873.3284               904.3041
 Red. masses --      3.0291                 1.8106                 2.1641
 Frc consts  --      1.1999                 0.8136                 1.0427
 IR Inten    --      5.1114               189.2300                 3.6164

                     19                     20                     21
                      A                      A                      A
 Frequencies --    918.6233               927.5216               956.7280
 Red. masses --      1.6922                 1.6012                 1.2131
 Frc consts  --      0.8414                 0.8116                 0.6542
 IR Inten    --      1.2087                 0.2928                 0.0593

                     22                     23                     24
                      A                      A                      A
 Frequencies --   1039.0266              1043.0438              1120.9112
 Red. masses --      1.4187                 1.3851                 2.5837
 Frc consts  --      0.9024                 0.8879                 1.9126
 IR Inten    --      1.0038                 7.1967                 7.8010

                     25                     26                     27
                      A                      A                      A
 Frequencies --   1195.4807              1246.0054              1254.4321
 Red. masses --      2.0157                 2.5161                 1.5603
 Frc consts  --      1.6973                 2.3016                 1.4466
 IR Inten    --     30.4272                 8.9944                 6.3066

                     28                     29                     30
                      A                      A                      A
 Frequencies --   1266.0502              1287.7191              1358.7247
 Red. masses --      2.8344                 1.6759                 1.3346
 Frc consts  --      2.6767                 1.6374                 1.4517
 IR Inten    --     18.3726                 0.0158                11.0298

                     31                     32                     33
                      A                      A                      A
 Frequencies --   1386.2418              1393.3897              1421.5335
 Red. masses --      1.2726                 1.2706                 1.2348
 Frc consts  --      1.4408                 1.4534                 1.4701
 IR Inten    --     14.7939                 7.2351                 9.7106

                     34                     35                     36
                      A                      A                      A
 Frequencies --   1468.0285              1486.1834              1491.1958
 Red. masses --      1.0500                 1.0488                 1.0434
 Frc consts  --      1.3333                 1.3648                 1.3670
 IR Inten    --      0.3845                 1.5651                 0.0552

                     37                     38                     39
                      A                      A                      A
 Frequencies --   1495.1274              1500.8860              1522.9220
 Red. masses --      1.0549                 1.0589                 1.0577
 Frc consts  --      1.3893                 1.4054                 1.4453
 IR Inten    --      0.7892                 4.1721                 6.6115

                     40                     41                     42
                      A                      A                      A
 Frequencies --   1646.6036              1689.8753              3032.9248
 Red. masses --      1.0702                 1.0882                 1.0348
 Frc consts  --      1.7096                 1.8310                 5.6085
 IR Inten    --      0.3251                24.9998                23.4960

                     43                     44                     45
                      A                      A                      A
 Frequencies --   3040.3880              3047.6706              3102.8820
 Red. masses --      1.0371                 1.0377                 1.1017
 Frc consts  --      5.6483                 5.6787                 6.2498
 IR Inten    --     11.6070                25.4967                22.3694

                     46                     47                     48
                      A                      A                      A
 Frequencies --   3103.2626              3105.9774              3114.1035
 Red. masses --      1.1002                 1.1018                 1.1008
 Frc consts  --      6.2425                 6.2625                 6.2898
 IR Inten    --     14.1279                 1.2321                61.2236

                     49                     50                     51
                      A                      A                      A
 Frequencies --   3142.4488              3143.7373              3353.5262
 Red. masses --      1.0991                 1.0991                 1.0554
 Frc consts  --      6.3945                 6.3998                 6.9932
 IR Inten    --     18.1563                18.1077                32.2587

                     52                     53                     54
                      A                      A                      A
 Frequencies --   3365.3120              3524.7412              3531.1456
 Red. masses --      1.0585                 1.0814                 1.0841
 Frc consts  --      7.0628                 7.9156                 7.9641
 IR Inten    --      5.9646                 0.1545                 0.0191

 - Thermochemistry -
 -------------------
 Temperature   298.150 Kelvin.  Pressure   1.00000 Atm.
 Atom     1 has atomic number  6 and mass  12.00000

 Molecular mass:   103.11095 amu.
 Principal axes and moments of inertia in atomic units:
                           1         2         3
     Eigenvalues --   571.09667 771.71196 920.06491
           X            0.99986   0.00000   0.01686
           Y           -0.00000   1.00000  -0.00000
           Z           -0.01686   0.00000   0.99986
 This molecule is an asymmetric top.
 Rotational symmetry number  1.
 Warning -- assumption of classical behavior for rotation
           may cause significant error
 Rotational temperatures (Kelvin)      0.15166     0.11224     0.09414
 Rotational constants (GHZ):           3.16013     2.33862     1.96154
 Zero-point vibrational energy     476874.3 (Joules/Mol)
                                  113.97570 (Kcal/Mol)
 Warning -- explicit consideration of  14 degrees of freedom as
           vibrations may cause significant error
 Vibrational temperatures:    117.81   271.12   347.62   348.23   391.14
          (Kelvin)            419.14   463.15   499.45   513.35   561.71
                              592.57   726.36   734.12   787.38  1003.71
                             1179.75  1256.52  1301.09  1321.69  1334.50
                             1376.52  1494.93  1500.71  1612.74  1720.03
                             1792.72  1804.85  1821.56  1852.74  1954.90
                             1994.49  2004.77  2045.27  2112.16  2138.28
                             2145.50  2151.15  2159.44  2191.14  2369.09
                             2431.35  4363.70  4374.43  4384.91  4464.35
                             4464.90  4468.80  4480.49  4521.28  4523.13
                             4824.97  4841.93  5071.31  5080.52

 Zero-point correction=                           0.181632 (Hartree/Particle)
 Thermal correction to Energy=                    0.190717
 Thermal correction to Enthalpy=                  0.191661
 Thermal correction to Gibbs Free Energy=         0.149331
 Sum of electronic and zero-point Energies=           -324.288645
 Sum of electronic and thermal Energies=              -324.279559
 Sum of electronic and thermal Enthalpies=            -324.278615
 Sum of electronic and thermal Free Energies=         -324.320945

                     E (Thermal)             CV                S
                      KCal/Mol        Cal/Mol-Kelvin    Cal/Mol-Kelvin
 Total                  119.677             34.708             89.091
 Electronic               0.000              0.000              0.000
 Translational            0.889              2.981             39.809
 Rotational               0.889              2.981             27.497
 Vibrational            117.899             28.746             21.785
 Vibration     1          0.600              1.962              3.845
 Vibration     2          0.633              1.856              2.243
 Vibration     3          0.658              1.777              1.791
 Vibration     4          0.658              1.776              1.788
 Vibration     5          0.675              1.725              1.584
 Vibration     6          0.687              1.690              1.466
 Vibration     7          0.707              1.632              1.300
 Vibration     8          0.725              1.581              1.179
 Vibration     9          0.732              1.561              1.136
 Vibration    10          0.758              1.491              0.999
 Vibration    11          0.776              1.444              0.920
 Vibration    12          0.860              1.239              0.646
 Vibration    13          0.865              1.227              0.633
 Vibration    14          0.902              1.146              0.550

 Optimization completed.
    -- Stationary point found.
 Normal termination of Gaussian 09 at Fri Aug 19 08:59:52 2022.

 -----------------------------------------------------------------
 #P Geom=AllCheck Guess=TCheck SCRF=Check CCSD(T,E4T,FrzG4)/GTBas1
 -----------------------------------------------------------------

 Structure from the checkpoint file:  "G4.Frag_1051.chk"
 ---------
 Frag_1051
 ---------
 Charge =  0 Multiplicity = 1

 SCF Done:  E(RHF) =  -322.301710668     A.U. after   11 cycles
 E2 =    -0.1029295914D+01 EUMP2 =    -0.32333100658258D+03
 CCSD(T)
 CCSD(T)= -0.32343698034D+03
 CCSD=-323.4042189\CCSD(T)=-323.4369803\RMSD=7.863e-09\PG=C01 [X(C4H13N
 Normal termination of Gaussian 09 at Fri Aug 19 09:22:13 2022.

 ---------------------------------------------------------
 #P Geom=AllCheck Guess=TCheck SCRF=Check MP4=FrzG4/GTBas2
 ---------------------------------------------------------

 Structure from the checkpoint file:  "G4.Frag_1051.chk"
 ---------
 Frag_1051
 ---------
 Charge =  0 Multiplicity = 1

 SCF Done:  E(RHF) =  -322.310538000     A.U. after   11 cycles
 E2 =    -0.1045013311D+01 EUMP2 =    -0.32335555131146D+03
 Normal termination of Gaussian 09 at Fri Aug 19 09:50:47 2022.

 ---------------------------------------------------------
 #P Geom=AllCheck Guess=TCheck SCRF=Check MP4=FrzG4/GTBas3
 ---------------------------------------------------------

 Structure from the checkpoint file:  "G4.Frag_1051.chk"
 ---------
 Frag_1051
 ---------
 Charge =  0 Multiplicity = 1

 SCF Done:  E(RHF) =  -322.347518090     A.U. after   10 cycles
 E2 =    -0.1272827486D+01 EUMP2 =    -0.32362034557618D+03
 Normal termination of Gaussian 09 at Fri Aug 19 16:43:29 2022.

 -----------------------------------------------------------
 #P Geom=AllCheck Guess=TCheck SCRF=Check MP2=Full/GTLargeXP
 -----------------------------------------------------------

 Structure from the checkpoint file:  "G4.Frag_1051.chk"
 ---------
 Frag_1051
 ---------
 Charge =  0 Multiplicity = 1

 SCF Done:  E(RHF) =  -322.424115517     A.U. after   11 cycles
 E2 =    -0.1660601447D+01 EUMP2 =    -0.32408471696370D+03
 Normal termination of Gaussian 09 at Fri Aug 19 17:01:36 2022.
 SCF Done:  E(RHF) =  -322.448942999     A.U. after    9 cycles
 Normal termination of Gaussian 09 at Fri Aug 19 17:15:07 2022.

                         Standard orientation:
 ---------------------------------------------------------------------
 Center     Atomic      Atomic             Coordinates (Angstroms)
 Number     Number       Type             X           Y           Z
 ---------------------------------------------------------------------
      1          6           0       -0.722589   -0.000048    1.539600
      2          6           0       -0.611128   -0.000002    0.001114
      3          6           0       -1.290712   -1.250330   -0.577070
      4          6           0       -1.290656    1.250393   -0.576988
      5          7           0        0.807720   -0.000007   -0.463617
      6          7           0        1.475731    1.194385   -0.065102
      7          7           0        1.475735   -1.194394   -0.065110
      8          1           0       -1.773420   -0.000036    1.845140
      9          1           0       -0.257130   -0.890764    1.974014
     10          1           0       -0.257092    0.890623    1.974067
     11          1           0       -2.360396   -1.230452   -0.345917
     12          1           0       -0.858011   -2.164510   -0.169492
     13          1           0       -1.173008   -1.274458   -1.664575
     14          1           0       -2.360337    1.230561   -0.345816
     15          1           0       -0.857897    2.164527   -0.169368
     16          1           0       -1.172970    1.274574   -1.664493
     17          1           0        1.849711    1.096243    0.884467
     18          1           0        2.273521    1.311618   -0.682811
     19          1           0        1.849704   -1.096267    0.884466
     20          1           0        2.273530   -1.311622   -0.682812
 ---------------------------------------------------------------------

 SCF Done:  E(RHF) =  -322.454356047     A.U. after    8 cycles

 The electronic state is 1-A.
 Alpha  occ. eigenvalues --  -15.59845 -15.56989 -15.56986 -11.25577 -11.20829
 Alpha  occ. eigenvalues --  -11.19633 -11.19632  -1.32189  -1.13812  -1.08827
 Alpha  occ. eigenvalues --   -0.94235  -0.92399  -0.91735  -0.73948  -0.69598
 Alpha  occ. eigenvalues --   -0.66913  -0.63507  -0.63130  -0.58839  -0.57441
 Alpha  occ. eigenvalues --   -0.53789  -0.52030  -0.51186  -0.50385  -0.46848
 Alpha  occ. eigenvalues --   -0.45670  -0.45246  -0.39137  -0.37665
 Alpha virt. eigenvalues --    0.03375   0.04348   0.04611   0.04714   0.06759
 Alpha virt. eigenvalues --    0.06843   0.07219   0.07292   0.07611   0.09785
 Alpha virt. eigenvalues --    0.10066   0.10230   0.10479   0.11257   0.11403

 Mulliken charges:
               1
     1  C   -0.630478
     2  C    0.492714
     3  C   -0.617037
     4  C   -0.617033
     5  N   -0.054747
     6  N   -0.660338
     7  N   -0.660344
     8  H    0.171506
     9  H    0.171612
    10  H    0.171610
    11  H    0.166125
    12  H    0.197138
    13  H    0.170511
    14  H    0.166125
    15  H    0.197142
    16  H    0.170510
    17  H    0.272525
    18  H    0.309966
    19  H    0.272526
    20  H    0.309967
 Sum of Mulliken charges =  -0.00000

 Dipole moment (field-independent basis, Debye):
    X=              1.8515    Y=              0.0000    Z=              1.1252  Tot=              2.1666
 Quadrupole moment (field-independent basis, Debye-Ang):
   XX=            -38.5037   YY=            -50.6633   ZZ=            -45.6388
   XY=              0.0000   XZ=              0.3462   YZ=             -0.0001

 Normal termination of Gaussian 09 at Fri Aug 19 23:11:23 2022.
