 Gaussian 09, Revision E.01,
 Gaussian 09:  ES64L-G09RevE.01 30-Nov-2015

 -----
 #P G4
 -----

 --------
 Frag_462
 --------
 Symbolic Z-matrix:
 Charge =  0 Multiplicity = 1

 SCF Done:  E(RB3LYP) =  -226.279331405     A.U. after   13 cycles
 SCF Done:  E(RB3LYP) =  -226.292856985     A.U. after   13 cycles
 SCF Done:  E(RB3LYP) =  -226.293253861     A.U. after   13 cycles
 SCF Done:  E(RB3LYP) =  -226.293831147     A.U. after   14 cycles
 SCF Done:  E(RB3LYP) =  -226.289439795     A.U. after   15 cycles
 SCF Done:  E(RB3LYP) =  -226.294323540     A.U. after   13 cycles
 SCF Done:  E(RB3LYP) =  -226.294183392     A.U. after   13 cycles
 SCF Done:  E(RB3LYP) =  -226.294529530     A.U. after    8 cycles
 SCF Done:  E(RB3LYP) =  -226.294923302     A.U. after   12 cycles
 SCF Done:  E(RB3LYP) =  -226.295306607     A.U. after   12 cycles
 SCF Done:  E(RB3LYP) =  -226.295683828     A.U. after    9 cycles
 SCF Done:  E(RB3LYP) =  -226.295684294     A.U. after    8 cycles
 SCF Done:  E(RB3LYP) =  -226.295684337     A.U. after    7 cycles
 Optimization completed.
    -- Stationary point found.
 Normal termination of Gaussian 09 at Tue Aug 30 10:41:24 2022.

 ----------------------------------------------------------
 #P Geom=AllCheck Guess=TCheck SCRF=Check B3LYP/GTBas3 Freq
 ----------------------------------------------------------

 Structure from the checkpoint file:  "G4.Frag_462.chk"
 --------
 Frag_462
 --------
 Charge =  0 Multiplicity = 1

 SCF Done:  E(RB3LYP) =  -226.295684337     A.U. after    1 cycles

  Exact polarizability:  46.411   1.989  32.199   0.361   2.006  29.201
 Approx polarizability:  58.377   4.084  48.613  -1.412   3.457  43.031

                      1                      2                      3
                      A                      A                      A
 Frequencies --    112.4724               181.4649               201.5018
 Red. masses --      1.9850                 1.2481                 1.1129
 Frc consts  --      0.0148                 0.0242                 0.0266
 IR Inten    --     17.0596                 6.6187                 7.2840

                      4                      5                      6
                      A                      A                      A
 Frequencies --    390.4238               465.2951               618.1945
 Red. masses --      3.4604                 3.0242                 4.6335
 Frc consts  --      0.3108                 0.3858                 1.0433
 IR Inten    --      5.1146                20.5721                13.3478

                      7                      8                      9
                      A                      A                      A
 Frequencies --    828.1856               999.1875              1024.9212
 Red. masses --      4.4138                 1.9954                 2.1873
 Frc consts  --      1.7837                 1.1738                 1.3538
 IR Inten    --     26.3182                21.5099                51.4730

                     10                     11                     12
                      A                      A                      A
 Frequencies --   1114.1347              1177.2916              1203.7240
 Red. masses --      1.7448                 1.3259                 1.5897
 Frc consts  --      1.2761                 1.0827                 1.3572
 IR Inten    --     11.4562                 5.5290                 2.9504

                     13                     14                     15
                      A                      A                      A
 Frequencies --   1396.7127              1454.9955              1474.6036
 Red. masses --      1.1311                 1.1406                 1.0511
 Frc consts  --      1.3001                 1.4227                 1.3466
 IR Inten    --     15.0917                 5.9641                 2.5568

                     16                     17                     18
                      A                      A                      A
 Frequencies --   1500.5225              1592.6272              1659.0587
 Red. masses --      1.0587                 1.0629                 1.0550
 Frc consts  --      1.4044                 1.5885                 1.7109
 IR Inten    --     13.9048                25.5689                35.1977

                     19                     20                     21
                      A                      A                      A
 Frequencies --   2946.7131              3035.9075              3080.4028
 Red. masses --      1.0506                 1.0786                 1.1039
 Frc consts  --      5.3750                 5.8571                 6.1714
 IR Inten    --     73.7412                77.1336                43.5050

                     22                     23                     24
                      A                      A                      A
 Frequencies --   3177.2232              3271.0587              3519.4930
 Red. masses --      1.0619                 1.0621                 1.0822
 Frc consts  --      6.3160                 6.6955                 7.8977
 IR Inten    --     68.0837                21.9758                36.1940

 - Thermochemistry -
 -------------------
 Temperature   298.150 Kelvin.  Pressure   1.00000 Atm.
 Atom     1 has atomic number  6 and mass  12.00000

 Molecular mass:    62.04801 amu.
 Principal axes and moments of inertia in atomic units:
                           1         2         3
     Eigenvalues --    92.82648 354.79615 381.02806
           X            0.99976   0.00063   0.02169
           Y           -0.00024   0.99984  -0.01801
           Z           -0.02169   0.01800   0.99960
 This molecule is an asymmetric top.
 Rotational symmetry number  1.
 Rotational temperatures (Kelvin)      0.93307     0.24412     0.22732
 Rotational constants (GHZ):          19.44210     5.08670     4.73650
 Zero-point vibrational energy     217876.6 (Joules/Mol)
                                   52.07375 (Kcal/Mol)
 Warning -- explicit consideration of   6 degrees of freedom as
           vibrations may cause significant error
 Vibrational temperatures:    161.82   261.09   289.92   561.73   669.46
          (Kelvin)            889.44  1191.57  1437.61  1474.63  1602.99
                             1693.86  1731.89  2009.56  2093.41  2121.62
                             2158.91  2291.43  2387.01  4239.66  4367.99
                             4432.01  4571.31  4706.32  5063.76

 Zero-point correction=                           0.082985 (Hartree/Particle)
 Thermal correction to Energy=                    0.088626
 Thermal correction to Enthalpy=                  0.089571
 Thermal correction to Gibbs Free Energy=         0.055006
 Sum of electronic and zero-point Energies=           -226.212700
 Sum of electronic and thermal Energies=              -226.207058
 Sum of electronic and thermal Enthalpies=            -226.206114
 Sum of electronic and thermal Free Energies=         -226.240678

                     E (Thermal)             CV                S
                      KCal/Mol        Cal/Mol-Kelvin    Cal/Mol-Kelvin
 Total                   55.614             17.888             72.746
 Electronic               0.000              0.000              0.000
 Translational            0.889              2.981             38.295
 Rotational               0.889              2.981             24.044
 Vibrational             53.836             11.926             10.407
 Vibration     1          0.607              1.939              3.226
 Vibration     2          0.630              1.865              2.313
 Vibration     3          0.638              1.838              2.119
 Vibration     4          0.758              1.491              0.999
 Vibration     5          0.823              1.327              0.751
 Vibration     6          0.978              0.993              0.419

 Optimization completed.
    -- Stationary point found.
 Normal termination of Gaussian 09 at Tue Aug 30 10:41:38 2022.

 -----------------------------------------------------------------
 #P Geom=AllCheck Guess=TCheck SCRF=Check CCSD(T,E4T,FrzG4)/GTBas1
 -----------------------------------------------------------------

 Structure from the checkpoint file:  "G4.Frag_462.chk"
 --------
 Frag_462
 --------
 Charge =  0 Multiplicity = 1

 SCF Done:  E(RHF) =  -224.932405525     A.U. after   14 cycles
 E2 =    -0.6414617923D+00 EUMP2 =    -0.22557386731717D+03
 CCSD(T)
 CCSD(T)= -0.22563057645D+03
 CCSD(T)=-225.6305765\RMSD=7.492e-09\PG=C01 [X(C1H6N2O1)]\\@
 Normal termination of Gaussian 09 at Tue Aug 30 10:42:07 2022.

 ---------------------------------------------------------
 #P Geom=AllCheck Guess=TCheck SCRF=Check MP4=FrzG4/GTBas2
 ---------------------------------------------------------

 Structure from the checkpoint file:  "G4.Frag_462.chk"
 --------
 Frag_462
 --------
 Charge =  0 Multiplicity = 1

 SCF Done:  E(RHF) =  -224.943659188     A.U. after   13 cycles
 E2 =    -0.6541012503D+00 EUMP2 =    -0.22559776043804D+03
 Normal termination of Gaussian 09 at Tue Aug 30 10:42:15 2022.

 ---------------------------------------------------------
 #P Geom=AllCheck Guess=TCheck SCRF=Check MP4=FrzG4/GTBas3
 ---------------------------------------------------------

 Structure from the checkpoint file:  "G4.Frag_462.chk"
 --------
 Frag_462
 --------
 Charge =  0 Multiplicity = 1

 SCF Done:  E(RHF) =  -224.962003814     A.U. after   13 cycles
 E2 =    -0.7906212000D+00 EUMP2 =    -0.22575262501377D+03
 Normal termination of Gaussian 09 at Tue Aug 30 10:42:48 2022.

 -----------------------------------------------------------
 #P Geom=AllCheck Guess=TCheck SCRF=Check MP2=Full/GTLargeXP
 -----------------------------------------------------------

 Structure from the checkpoint file:  "G4.Frag_462.chk"
 --------
 Frag_462
 --------
 Charge =  0 Multiplicity = 1

 SCF Done:  E(RHF) =  -225.028270869     A.U. after   13 cycles
 E2 =    -0.1026082812D+01 EUMP2 =    -0.22605435368123D+03
 Normal termination of Gaussian 09 at Tue Aug 30 10:43:10 2022.
 SCF Done:  E(RHF) =  -225.046584833     A.U. after   10 cycles
 Normal termination of Gaussian 09 at Tue Aug 30 10:43:41 2022.

                         Standard orientation:
 ---------------------------------------------------------------------
 Center     Atomic      Atomic             Coordinates (Angstroms)
 Number     Number       Type             X           Y           Z
 ---------------------------------------------------------------------
      1          6           0        1.556262   -0.357453    0.146294
      2          8           0        0.566766    0.439863   -0.476904
      3          7           0       -0.527272    0.672159    0.416895
      4          7           0       -1.490551   -0.363762   -0.054795
      5          1           0        1.931889    0.116698    1.061288
      6          1           0        2.378902   -0.473481   -0.569561
      7          1           0        1.186179   -1.362554    0.413333
      8          1           0       -1.653241   -0.293624   -1.069978
      9          1           0       -1.226609   -1.347644    0.132550
     10          1           0       -2.364054   -0.172362    0.435134
 ---------------------------------------------------------------------

 SCF Done:  E(RHF) =  -225.050664768     A.U. after    8 cycles

 The electronic state is 1-A.
 Alpha  occ. eigenvalues --  -20.54493 -15.68150 -15.54667 -11.24885  -1.37714
 Alpha  occ. eigenvalues --   -1.26619  -0.97210  -0.85918  -0.74842  -0.73767
 Alpha  occ. eigenvalues --   -0.64151  -0.59358  -0.58481  -0.51428  -0.45526
 Alpha  occ. eigenvalues --   -0.39073  -0.31522
 Alpha virt. eigenvalues --    0.02571   0.05000   0.05691   0.06537   0.07920
 Alpha virt. eigenvalues --    0.08244   0.08532   0.12002   0.13163   0.13980
 Alpha virt. eigenvalues --    0.15389   0.16839   0.17673   0.19316   0.19886

 Mulliken charges:
               1
     1  C   -0.308499
     2  O   -0.296555
     3  N   -0.438945
     4  N   -0.440077
     5  H    0.183643
     6  H    0.165646
     7  H    0.105163
     8  H    0.353121
     9  H    0.324208
    10  H    0.352294
 Sum of Mulliken charges =  -0.00000

 Dipole moment (field-independent basis, Debye):
    X=             -3.2339    Y=             -4.2532    Z=             -0.6914  Tot=              5.3876
 Quadrupole moment (field-independent basis, Debye-Ang):
   XX=            -15.5568   YY=            -26.8487   ZZ=            -26.6726
   XY=              3.0030   XZ=              1.6906   YZ=             -0.3051

 Normal termination of Gaussian 09 at Tue Aug 30 10:46:23 2022.
