 Gaussian 09, Revision E.01,
 Gaussian 09:  ES64L-G09RevE.01 30-Nov-2015

 -----
 #P G4
 -----

 ---------
 Frag_1015
 ---------
 Symbolic Z-matrix:
 Charge =  0 Multiplicity = 1

 SCF Done:  E(RB3LYP) =  -263.214033179     A.U. after   16 cycles
 SCF Done:  E(RB3LYP) =  -263.236862028     A.U. after   13 cycles
 SCF Done:  E(RB3LYP) =  -263.239469752     A.U. after   13 cycles
 SCF Done:  E(RB3LYP) =  -263.239731385     A.U. after   11 cycles
 SCF Done:  E(RB3LYP) =  -263.239770509     A.U. after   10 cycles
 SCF Done:  E(RB3LYP) =  -263.239754295     A.U. after   10 cycles
 SCF Done:  E(RB3LYP) =  -263.239773404     A.U. after    9 cycles
 Optimization completed.
    -- Stationary point found.
 Normal termination of Gaussian 09 at Tue Aug 23 18:00:20 2022.

 ----------------------------------------------------------
 #P Geom=AllCheck Guess=TCheck SCRF=Check B3LYP/GTBas3 Freq
 ----------------------------------------------------------

 Structure from the checkpoint file:  "G4.Frag_1015.chk"
 ---------
 Frag_1015
 ---------
 Charge =  0 Multiplicity = 1

 SCF Done:  E(RB3LYP) =  -263.239773404     A.U. after    1 cycles

  Exact polarizability:  58.337  -8.178  45.274  -0.000   0.000  19.652
 Approx polarizability:  96.190 -27.932  87.789  -0.000  -0.000  29.927

                      1                      2                      3
                      A                      A                      A
 Frequencies --    113.6138               339.5388               522.8578
 Red. masses --      2.6304                 3.2314                 1.7139
 Frc consts  --      0.0200                 0.2195                 0.2761
 IR Inten    --      0.5150                 5.3554                 6.7809

                      4                      5                      6
                      A                      A                      A
 Frequencies --    557.1260               638.7220               786.6974
 Red. masses --      3.8838                 3.5465                 1.2773
 Frc consts  --      0.7103                 0.8524                 0.4658
 IR Inten    --      0.7402                 5.4870                60.9559

                      7                      8                      9
                      A                      A                      A
 Frequencies --    812.2065               866.0780               963.9056
 Red. masses --      2.6548                 4.5729                 1.1776
 Frc consts  --      1.0319                 2.0209                 0.6446
 IR Inten    --      0.0094                10.4992                 1.9974

                     10                     11                     12
                      A                      A                      A
 Frequencies --   1000.4445              1069.1996              1275.7897
 Red. masses --      1.2125                 1.7138                 2.2147
 Frc consts  --      0.7150                 1.1543                 2.1238
 IR Inten    --     45.9416                 2.9074                58.5030

                     13                     14                     15
                      A                      A                      A
 Frequencies --   1317.4484              1394.2706              1454.9045
 Red. masses --      1.2760                 1.1706                 2.8893
 Frc consts  --      1.3049                 1.3407                 3.6035
 IR Inten    --     23.4207                 4.7531               205.1395

                     16                     17                     18
                      A                      A                      A
 Frequencies --   1632.2843              1717.2181              3176.7704
 Red. masses --      4.0997                 4.6745                 1.0578
 Frc consts  --      6.4356                 8.1216                 6.2898
 IR Inten    --     81.9108                 7.4669                 1.9308

                     19                     20                     21
                      A                      A                      A
 Frequencies --   3222.3712              3278.6690              3442.7788
 Red. masses --      1.0981                 1.1169                 1.0735
 Frc consts  --      6.7178                 7.0739                 7.4964
 IR Inten    --      3.0091                 1.1511                 1.4727

 - Thermochemistry -
 -------------------
 Temperature   298.150 Kelvin.  Pressure   1.00000 Atm.
 Atom     1 has atomic number  6 and mass  12.00000

 Molecular mass:    72.03236 amu.
 Principal axes and moments of inertia in atomic units:
                           1         2         3
     Eigenvalues --   156.79841 386.90592 543.70433
           X            0.99973  -0.02315  -0.00000
           Y            0.02315   0.99973   0.00001
           Z           -0.00000  -0.00001   1.00000
 This molecule is an asymmetric top.
 Rotational symmetry number  1.
 Rotational temperatures (Kelvin)      0.55239     0.22386     0.15930
 Rotational constants (GHZ):          11.50995     4.66455     3.31934
 Zero-point vibrational energy     176945.0 (Joules/Mol)
                                   42.29087 (Kcal/Mol)
 Warning -- explicit consideration of   4 degrees of freedom as
           vibrations may cause significant error
 Vibrational temperatures:    163.46   488.52   752.27   801.58   918.98
          (Kelvin)           1131.88  1168.58  1246.09  1386.84  1439.41
                             1538.34  1835.57  1895.51  2006.04  2093.28
                             2348.49  2470.69  4570.66  4636.27  4717.27
                             4953.38

 Zero-point correction=                           0.067395 (Hartree/Particle)
 Thermal correction to Energy=                    0.072209
 Thermal correction to Enthalpy=                  0.073153
 Thermal correction to Gibbs Free Energy=         0.039593
 Sum of electronic and zero-point Energies=           -263.172379
 Sum of electronic and thermal Energies=              -263.167564
 Sum of electronic and thermal Enthalpies=            -263.166620
 Sum of electronic and thermal Free Energies=         -263.200180

                     E (Thermal)             CV                S
                      KCal/Mol        Cal/Mol-Kelvin    Cal/Mol-Kelvin
 Total                   45.312             16.302             70.633
 Electronic               0.000              0.000              0.000
 Translational            0.889              2.981             38.740
 Rotational               0.889              2.981             25.004
 Vibrational             43.534             10.340              6.889
 Vibration     1          0.607              1.938              3.206
 Vibration     2          0.719              1.596              1.214
 Vibration     3          0.878              1.199              0.603
 Vibration     4          0.913              1.124              0.530

 Optimization completed.
    -- Stationary point found.
 Normal termination of Gaussian 09 at Tue Aug 23 18:01:15 2022.

 -----------------------------------------------------------------
 #P Geom=AllCheck Guess=TCheck SCRF=Check CCSD(T,E4T,FrzG4)/GTBas1
 -----------------------------------------------------------------

 Structure from the checkpoint file:  "G4.Frag_1015.chk"
 ---------
 Frag_1015
 ---------
 Charge =  0 Multiplicity = 1

 SCF Done:  E(RHF) =  -261.664893272     A.U. after   14 cycles
 E2 =    -0.7759255035D+00 EUMP2 =    -0.26244081877587D+03
 CCSD(T)
 CCSD(T)= -0.26249583042D+03
 641604\CCSD=-262.4623217\CCSD(T)=-262.4958304\RMSD=9.079e-09\PG=C01 [X
 Normal termination of Gaussian 09 at Tue Aug 23 18:02:32 2022.

 ---------------------------------------------------------
 #P Geom=AllCheck Guess=TCheck SCRF=Check MP4=FrzG4/GTBas2
 ---------------------------------------------------------

 Structure from the checkpoint file:  "G4.Frag_1015.chk"
 ---------
 Frag_1015
 ---------
 Charge =  0 Multiplicity = 1

 SCF Done:  E(RHF) =  -261.675617459     A.U. after   14 cycles
 E2 =    -0.7863356102D+00 EUMP2 =    -0.26246195306965D+03
 Normal termination of Gaussian 09 at Tue Aug 23 18:03:33 2022.

 ---------------------------------------------------------
 #P Geom=AllCheck Guess=TCheck SCRF=Check MP4=FrzG4/GTBas3
 ---------------------------------------------------------

 Structure from the checkpoint file:  "G4.Frag_1015.chk"
 ---------
 Frag_1015
 ---------
 Charge =  0 Multiplicity = 1

 SCF Done:  E(RHF) =  -261.697877991     A.U. after   13 cycles
 E2 =    -0.9285506684D+00 EUMP2 =    -0.26262642865980D+03
 Normal termination of Gaussian 09 at Tue Aug 23 18:30:28 2022.

 -----------------------------------------------------------
 #P Geom=AllCheck Guess=TCheck SCRF=Check MP2=Full/GTLargeXP
 -----------------------------------------------------------

 Structure from the checkpoint file:  "G4.Frag_1015.chk"
 ---------
 Frag_1015
 ---------
 Charge =  0 Multiplicity = 1

 SCF Done:  E(RHF) =  -261.768587398     A.U. after   12 cycles
 E2 =    -0.1208150656D+01 EUMP2 =    -0.26297673805455D+03
 Normal termination of Gaussian 09 at Tue Aug 23 18:32:11 2022.
 SCF Done:  E(RHF) =  -261.789903048     A.U. after   11 cycles
 Normal termination of Gaussian 09 at Tue Aug 23 18:35:08 2022.

                         Standard orientation:
 ---------------------------------------------------------------------
 Center     Atomic      Atomic             Coordinates (Angstroms)
 Number     Number       Type             X           Y           Z
 ---------------------------------------------------------------------
      1          6           0       -1.868391   -0.005767   -0.000020
      2          6           0       -0.721983   -0.663179    0.000021
      3          7           0        0.552719    0.064146    0.000132
      4          7           0        1.652786   -0.578975   -0.000038
      5          8           0        0.497363    1.299355   -0.000050
      6          1           0       -1.868002    1.077096    0.000024
      7          1           0       -2.810363   -0.539878   -0.000096
      8          1           0       -0.614630   -1.740268   -0.000019
      9          1           0        1.417803   -1.574317   -0.000176
 ---------------------------------------------------------------------

 SCF Done:  E(RHF) =  -261.794237356     A.U. after    8 cycles

 The electronic state is 1-A.
 Alpha  occ. eigenvalues --  -20.55654 -15.80296 -15.61465 -11.31109 -11.27965
 Alpha  occ. eigenvalues --   -1.52910  -1.28003  -1.11677  -0.94191  -0.82862
 Alpha  occ. eigenvalues --   -0.76081  -0.68998  -0.67859  -0.66071  -0.58751
 Alpha  occ. eigenvalues --   -0.49807  -0.46184  -0.42940  -0.39290
 Alpha virt. eigenvalues --    0.02824   0.03602   0.04175   0.05780   0.06223
 Alpha virt. eigenvalues --    0.07489   0.07921   0.08288   0.09958   0.11280
 Alpha virt. eigenvalues --    0.12787   0.12980   0.13963   0.14647   0.16391

 Mulliken charges:
               1
     1  C   -0.318818
     2  C   -0.186669
     3  N    0.469968
     4  N   -0.448429
     5  O   -0.497789
     6  H    0.259192
     7  H    0.224575
     8  H    0.211084
     9  H    0.286887
 Sum of Mulliken charges =  -0.00000

 Dipole moment (field-independent basis, Debye):
    X=             -3.6303    Y=             -3.7927    Z=              0.0000  Tot=              5.2501
 Quadrupole moment (field-independent basis, Debye-Ang):
   XX=            -29.5521   YY=            -28.3028   ZZ=            -31.1831
   XY=             -2.6577   XZ=              0.0001   YZ=              0.0007

 Normal termination of Gaussian 09 at Tue Aug 23 19:42:36 2022.
