 Gaussian 09, Revision E.01,
 Gaussian 09:  ES64L-G09RevE.01 30-Nov-2015

 -----
 #P G4
 -----

 --------
 Frag_443
 --------
 Symbolic Z-matrix:
 Charge =  0 Multiplicity = 1

 SCF Done:  E(RB3LYP) =  -267.928263190     A.U. after   13 cycles
 SCF Done:  E(RB3LYP) =  -267.951205874     A.U. after   12 cycles
 SCF Done:  E(RB3LYP) =  -267.955435878     A.U. after   11 cycles
 SCF Done:  E(RB3LYP) =  -267.956724221     A.U. after   11 cycles
 SCF Done:  E(RB3LYP) =  -267.957250290     A.U. after   11 cycles
 SCF Done:  E(RB3LYP) =  -267.957488741     A.U. after   11 cycles
 SCF Done:  E(RB3LYP) =  -267.957680145     A.U. after   11 cycles
 SCF Done:  E(RB3LYP) =  -267.957726312     A.U. after   11 cycles
 SCF Done:  E(RB3LYP) =  -267.958041640     A.U. after   10 cycles
 SCF Done:  E(RB3LYP) =  -267.957835659     A.U. after   11 cycles
 SCF Done:  E(RB3LYP) =  -267.960159548     A.U. after    9 cycles
 SCF Done:  E(RB3LYP) =  -267.960164146     A.U. after    8 cycles
 SCF Done:  E(RB3LYP) =  -267.960164644     A.U. after    7 cycles
 Optimization completed.
    -- Stationary point found.
 Normal termination of Gaussian 09 at Tue Aug 30 09:28:39 2022.

 ----------------------------------------------------------
 #P Geom=AllCheck Guess=TCheck SCRF=Check B3LYP/GTBas3 Freq
 ----------------------------------------------------------

 Structure from the checkpoint file:  "G4.Frag_443.chk"
 --------
 Frag_443
 --------
 Charge =  0 Multiplicity = 1

 SCF Done:  E(RB3LYP) =  -267.960164644     A.U. after    1 cycles

  Exact polarizability:  81.326   0.001  62.862  -0.001  -0.198  40.878
 Approx polarizability: 120.864   0.003  84.011  -0.001  -1.654  61.665

                      1                      2                      3
                      A                      A                      A
 Frequencies --    140.6378               155.0746               166.3921
 Red. masses --      1.1397                 2.0617                 1.1418
 Frc consts  --      0.0133                 0.0292                 0.0186
 IR Inten    --      0.1857                 0.2100                 0.0822

                      4                      5                      6
                      A                      A                      A
 Frequencies --    288.3260               309.7562               368.5901
 Red. masses --      1.5953                 2.3793                 1.4719
 Frc consts  --      0.0781                 0.1345                 0.1178
 IR Inten    --      0.0882                 6.7972                14.8673

                      7                      8                      9
                      A                      A                      A
 Frequencies --    371.1804               387.8336               476.8013
 Red. masses --      1.4384                 1.5649                 2.6483
 Frc consts  --      0.1168                 0.1387                 0.3547
 IR Inten    --     15.7479                24.7519                 0.4426

                     10                     11                     12
                      A                      A                      A
 Frequencies --    525.5753               591.7316               712.1433
 Red. masses --      3.5137                 2.0932                 2.8755
 Frc consts  --      0.5719                 0.4318                 0.8592
 IR Inten    --      0.0997                56.5601               116.2651

                     13                     14                     15
                      A                      A                      A
 Frequencies --    758.2682               770.2962               955.6175
 Red. masses --      1.8710                 1.4256                 2.1882
 Frc consts  --      0.6338                 0.4984                 1.1773
 IR Inten    --    178.7989               213.2709                 1.7693

                     16                     17                     18
                      A                      A                      A
 Frequencies --    983.3613              1008.9030              1091.2601
 Red. masses --      1.3444                 1.2440                 1.5072
 Frc consts  --      0.7660                 0.7460                 1.0575
 IR Inten    --      0.5748                 4.6509                24.3011

                     19                     20                     21
                      A                      A                      A
 Frequencies --   1091.9833              1148.2621              1219.9902
 Red. masses --      1.5448                 1.3581                 4.4355
 Frc consts  --      1.0853                 1.0550                 3.8896
 IR Inten    --      0.7203                 5.6848                 5.7151

                     22                     23                     24
                      A                      A                      A
 Frequencies --   1275.7691              1365.5565              1418.0639
 Red. masses --      1.8676                 2.6846                 1.4553
 Frc consts  --      1.7909                 2.9495                 1.7243
 IR Inten    --     25.2991                39.8133                 5.4117

                     25                     26                     27
                      A                      A                      A
 Frequencies --   1423.8904              1478.4978              1489.8700
 Red. masses --      1.2437                 1.0472                 1.0525
 Frc consts  --      1.4857                 1.3487                 1.3765
 IR Inten    --      5.5384                 0.0026                 6.2443

                     28                     29                     30
                      A                      A                      A
 Frequencies --   1497.6520              1505.9741              1629.0744
 Red. masses --      1.0502                 1.0638                 1.1551
 Frc consts  --      1.3879                 1.4214                 1.8061
 IR Inten    --      5.1293                 0.9655                 0.9006

                     31                     32                     33
                      A                      A                      A
 Frequencies --   1629.7215              1758.9155              2990.0324
 Red. masses --      1.1430                 5.4510                 1.0423
 Frc consts  --      1.7887                 9.9361                 5.4903
 IR Inten    --     88.7803               141.4766                52.8120

                     34                     35                     36
                      A                      A                      A
 Frequencies --   2995.4945              3032.3814              3035.6627
 Red. masses --      1.0440                 1.0949                 1.0942
 Frc consts  --      5.5196                 5.9321                 5.9412
 IR Inten    --     72.1349                62.6712                 7.5836

                     37                     38                     39
                      A                      A                      A
 Frequencies --   3080.4833              3083.0156              3523.9008
 Red. masses --      1.0965                 1.0957                 1.0516
 Frc consts  --      6.1302                 6.1363                 7.6943
 IR Inten    --     39.4550                35.0467                 3.8753

                     40                     41                     42
                      A                      A                      A
 Frequencies --   3527.3990              3651.1512              3652.4723
 Red. masses --      1.0518                 1.0907                 1.0906
 Frc consts  --      7.7105                 8.5667                 8.5725
 IR Inten    --      0.1811                 3.5915                 7.8450

 - Thermochemistry -
 -------------------
 Temperature   298.150 Kelvin.  Pressure   1.00000 Atm.
 Atom     1 has atomic number  6 and mass  12.00000

 Molecular mass:    86.08440 amu.
 Principal axes and moments of inertia in atomic units:
                           1         2         3
     Eigenvalues --   382.35538 580.71777 929.26267
           X            1.00000  -0.00000  -0.00000
           Y            0.00000   0.99991   0.01340
           Z            0.00000  -0.01340   0.99991
 This molecule is an asymmetric top.
 Rotational symmetry number  1.
 Rotational temperatures (Kelvin)      0.22653     0.14915     0.09321
 Rotational constants (GHZ):           4.72006     3.10778     1.94212
 Zero-point vibrational energy     374233.5 (Joules/Mol)
                                   89.44396 (Kcal/Mol)
 Warning -- explicit consideration of  11 degrees of freedom as
           vibrations may cause significant error
 Vibrational temperatures:    202.35   223.12   239.40   414.84   445.67
          (Kelvin)            530.32   534.05   558.01   686.01   756.18
                              851.37  1024.61  1090.98  1108.28  1374.92
                             1414.84  1451.58  1570.08  1571.12  1652.09
                             1755.29  1835.54  1964.73  2040.28  2048.66
                             2127.23  2143.59  2154.78  2166.76  2343.87
                             2344.80  2530.68  4301.98  4309.84  4362.91
                             4367.64  4432.12  4435.77  5070.10  5075.13
                             5253.19  5255.09

 Zero-point correction=                           0.142538 (Hartree/Particle)
 Thermal correction to Energy=                    0.150292
 Thermal correction to Enthalpy=                  0.151236
 Thermal correction to Gibbs Free Energy=         0.111699
 Sum of electronic and zero-point Energies=           -267.817627
 Sum of electronic and thermal Energies=              -267.809873
 Sum of electronic and thermal Enthalpies=            -267.808929
 Sum of electronic and thermal Free Energies=         -267.848466

                     E (Thermal)             CV                S
                      KCal/Mol        Cal/Mol-Kelvin    Cal/Mol-Kelvin
 Total                   94.309             28.452             83.213
 Electronic               0.000              0.000              0.000
 Translational            0.889              2.981             39.271
 Rotational               0.889              2.981             26.825
 Vibrational             92.532             22.490             17.116
 Vibration     1          0.615              1.913              2.795
 Vibration     2          0.620              1.897              2.609
 Vibration     3          0.624              1.884              2.476
 Vibration     4          0.685              1.695              1.484
 Vibration     5          0.699              1.655              1.364
 Vibration     6          0.741              1.537              1.086
 Vibration     7          0.743              1.531              1.075
 Vibration     8          0.756              1.496              1.008
 Vibration     9          0.833              1.302              0.719
 Vibration    10          0.881              1.193              0.597
 Vibration    11          0.949              1.049              0.464

 Optimization completed.
    -- Stationary point found.
 Normal termination of Gaussian 09 at Tue Aug 30 09:29:17 2022.

 -----------------------------------------------------------------
 #P Geom=AllCheck Guess=TCheck SCRF=Check CCSD(T,E4T,FrzG4)/GTBas1
 -----------------------------------------------------------------

 Structure from the checkpoint file:  "G4.Frag_443.chk"
 --------
 Frag_443
 --------
 Charge =  0 Multiplicity = 1

 SCF Done:  E(RHF) =  -266.163369389     A.U. after   12 cycles
 E2 =    -0.8482951355D+00 EUMP2 =    -0.26701166452445D+03
 CCSD(T)
 CCSD(T)= -0.26709767443D+03
 =-267.096518\MP4SDQ=-267.0683833\CCSD=-267.0694106\CCSD(T)=-267.097674
 Normal termination of Gaussian 09 at Tue Aug 30 09:31:28 2022.

 ---------------------------------------------------------
 #P Geom=AllCheck Guess=TCheck SCRF=Check MP4=FrzG4/GTBas2
 ---------------------------------------------------------

 Structure from the checkpoint file:  "G4.Frag_443.chk"
 --------
 Frag_443
 --------
 Charge =  0 Multiplicity = 1

 SCF Done:  E(RHF) =  -266.171804270     A.U. after   13 cycles
 E2 =    -0.8608019468D+00 EUMP2 =    -0.26703260621714D+03
 Normal termination of Gaussian 09 at Tue Aug 30 09:32:08 2022.

 ---------------------------------------------------------
 #P Geom=AllCheck Guess=TCheck SCRF=Check MP4=FrzG4/GTBas3
 ---------------------------------------------------------

 Structure from the checkpoint file:  "G4.Frag_443.chk"
 --------
 Frag_443
 --------
 Charge =  0 Multiplicity = 1

 SCF Done:  E(RHF) =  -266.203959933     A.U. after   11 cycles
 E2 =    -0.1042787510D+01 EUMP2 =    -0.26724674744330D+03
 Normal termination of Gaussian 09 at Tue Aug 30 09:36:17 2022.

 -----------------------------------------------------------
 #P Geom=AllCheck Guess=TCheck SCRF=Check MP2=Full/GTLargeXP
 -----------------------------------------------------------

 Structure from the checkpoint file:  "G4.Frag_443.chk"
 --------
 Frag_443
 --------
 Charge =  0 Multiplicity = 1

 SCF Done:  E(RHF) =  -266.268364225     A.U. after   12 cycles
 E2 =    -0.1370433450D+01 EUMP2 =    -0.26763879767558D+03
 Normal termination of Gaussian 09 at Tue Aug 30 09:38:41 2022.
 SCF Done:  E(RHF) =  -266.289517748     A.U. after    9 cycles
 Normal termination of Gaussian 09 at Tue Aug 30 09:41:16 2022.

                         Standard orientation:
 ---------------------------------------------------------------------
 Center     Atomic      Atomic             Coordinates (Angstroms)
 Number     Number       Type             X           Y           Z
 ---------------------------------------------------------------------
      1          6           0        1.467497   -1.266601   -0.078134
      2          6           0        0.652093   -0.000010   -0.000016
      3          6           0        1.467353    1.266652    0.078163
      4          6           0       -0.696557   -0.000058   -0.000036
      5          7           0       -1.508971    1.137952   -0.157198
      6          7           0       -1.508983   -1.138006    0.157210
      7          1           0        0.893243   -2.126985   -0.436798
      8          1           0        1.910602   -1.546577    0.889041
      9          1           0        2.307393   -1.140991   -0.774788
     10          1           0        0.892844    2.127087    0.436307
     11          1           0        2.306944    1.141317    0.775239
     12          1           0        1.910880    1.546393   -0.888885
     13          1           0       -0.993068    2.002517   -0.223624
     14          1           0       -2.225918    1.199384    0.556811
     15          1           0       -2.226298   -1.199081   -0.556407
     16          1           0       -0.993254   -2.002584    0.223161
 ---------------------------------------------------------------------

 SCF Done:  E(RHF) =  -266.293965894     A.U. after    8 cycles

 The electronic state is 1-A.
 Alpha  occ. eigenvalues --  -15.55278 -15.55276 -11.28697 -11.21367 -11.21367
 Alpha  occ. eigenvalues --  -11.20069  -1.24757  -1.14186  -1.05224  -0.92816
 Alpha  occ. eigenvalues --   -0.88412  -0.75007  -0.67972  -0.67452  -0.60155
 Alpha  occ. eigenvalues --   -0.59617  -0.58403  -0.55062  -0.52895  -0.51538
 Alpha  occ. eigenvalues --   -0.49489  -0.47712  -0.41582  -0.28551
 Alpha virt. eigenvalues --    0.03922   0.04198   0.04611   0.05293   0.06312
 Alpha virt. eigenvalues --    0.07184   0.07888   0.07918   0.08318   0.09632
 Alpha virt. eigenvalues --    0.11142   0.11463   0.11780   0.11952   0.12351

 Mulliken charges:
               1
     1  C   -0.546660
     2  C    0.094390
     3  C   -0.546630
     4  C    0.257466
     5  N   -0.738979
     6  N   -0.738954
     7  H    0.147634
     8  H    0.166290
     9  H    0.168043
    10  H    0.147619
    11  H    0.168047
    12  H    0.166286
    13  H    0.307974
    14  H    0.319735
    15  H    0.319753
    16  H    0.307985
 Sum of Mulliken charges =  -0.00000

 Dipole moment (field-independent basis, Debye):
    X=             -0.1242    Y=              0.0001    Z=             -0.0000  Tot=              0.1242
 Quadrupole moment (field-independent basis, Debye-Ang):
   XX=            -38.4407   YY=            -34.0900   ZZ=            -41.4236
   XY=              0.0004   XZ=             -0.0005   YZ=              2.2563

 Normal termination of Gaussian 09 at Tue Aug 30 09:49:42 2022.
