 Gaussian 09, Revision E.01,
 Gaussian 09:  ES64L-G09RevE.01 30-Nov-2015

 -----
 #P G4
 -----

 --------
 Frag_559
 --------
 Symbolic Z-matrix:
 Charge =  0 Multiplicity = 1

 SCF Done:  E(RB3LYP) =  -228.616809006     A.U. after   13 cycles
 SCF Done:  E(RB3LYP) =  -228.624961121     A.U. after   12 cycles
 SCF Done:  E(RB3LYP) =  -228.625406219     A.U. after   11 cycles
 SCF Done:  E(RB3LYP) =  -228.625900436     A.U. after   12 cycles
 SCF Done:  E(RB3LYP) =  -228.578810701     A.U. after   13 cycles
 SCF Done:  E(RB3LYP) =  -228.625975685     A.U. after    8 cycles
 SCF Done:  E(RB3LYP) =  -228.586529301     A.U. after   12 cycles
 SCF Done:  E(RB3LYP) =  -228.625978845     A.U. after    7 cycles
 SCF Done:  E(RB3LYP) =  -228.628828137     A.U. after   13 cycles
 SCF Done:  E(RB3LYP) =  -228.623760111     A.U. after   13 cycles
 SCF Done:  E(RB3LYP) =  -228.633668945     A.U. after    9 cycles
 SCF Done:  E(RB3LYP) =  -228.633669689     A.U. after    8 cycles
 SCF Done:  E(RB3LYP) =  -228.633669633     A.U. after    7 cycles
 Optimization completed.
    -- Stationary point found.
 Normal termination of Gaussian 09 at Fri Aug 19 09:37:17 2022.

 ----------------------------------------------------------
 #P Geom=AllCheck Guess=TCheck SCRF=Check B3LYP/GTBas3 Freq
 ----------------------------------------------------------

 Structure from the checkpoint file:  "G4.Frag_559.chk"
 --------
 Frag_559
 --------
 Charge =  0 Multiplicity = 1

 SCF Done:  E(RB3LYP) =  -228.633669633     A.U. after    1 cycles

  Exact polarizability:  56.335   2.801  49.040  -2.186  -1.291  35.422
 Approx polarizability:  75.443   8.994  70.932  -3.656  -3.403  53.023

                      1                      2                      3
                      A                      A                      A
 Frequencies --     82.8911               150.7347               198.4384
 Red. masses --      2.4672                 1.0586                 1.0688
 Frc consts  --      0.0100                 0.0142                 0.0248
 IR Inten    --      1.3891                22.6262                21.9347

                      4                      5                      6
                      A                      A                      A
 Frequencies --    268.3405               403.3554               487.3927
 Red. masses --      3.0161                 2.2614                 3.0469
 Frc consts  --      0.1280                 0.2168                 0.4265
 IR Inten    --      7.9166                 1.1554                15.4301

                      7                      8                      9
                      A                      A                      A
 Frequencies --    560.8636               770.5399               830.6136
 Red. masses --      2.7862                 2.7189                 1.2848
 Frc consts  --      0.5164                 0.9511                 0.5223
 IR Inten    --      5.3804                12.2945                51.1659

                     10                     11                     12
                      A                      A                      A
 Frequencies --    856.7231               987.2806              1011.1076
 Red. masses --      1.3001                 1.6282                 1.4321
 Frc consts  --      0.5622                 0.9350                 0.8626
 IR Inten    --     45.0347                 4.3024                75.1958

                     13                     14                     15
                      A                      A                      A
 Frequencies --   1064.0956              1078.4896              1130.7590
 Red. masses --      2.0921                 1.6296                 1.7331
 Frc consts  --      1.3957                 1.1168                 1.3056
 IR Inten    --     28.3692                 5.9681                16.6725

                     16                     17                     18
                      A                      A                      A
 Frequencies --   1187.9552              1320.6379              1360.9046
 Red. masses --      1.2703                 1.2105                 1.3894
 Frc consts  --      1.0563                 1.2439                 1.5161
 IR Inten    --      8.1165                 9.9698                23.6195

                     19                     20                     21
                      A                      A                      A
 Frequencies --   1397.4747              1413.6335              1470.7251
 Red. masses --      1.3244                 1.8147                 1.0542
 Frc consts  --      1.5239                 2.1367                 1.3435
 IR Inten    --     22.1258                45.7341                 6.2311

                     22                     23                     24
                      A                      A                      A
 Frequencies --   1483.7096              1489.4975              1660.1177
 Red. masses --      1.0710                 1.0691                 1.0878
 Frc consts  --      1.3891                 1.3975                 1.7663
 IR Inten    --      4.9080                22.2494                19.1366

                     25                     26                     27
                      A                      A                      A
 Frequencies --   1734.0638              2935.2567              3025.1309
 Red. masses --      8.1164                 1.0723                 1.0390
 Frc consts  --     14.3795                 5.4433                 5.6024
 IR Inten    --     61.0042                55.9712                11.4352

                     28                     29                     30
                      A                      A                      A
 Frequencies --   3090.0643              3110.9737              3122.6030
 Red. masses --      1.0943                 1.0886                 1.1026
 Frc consts  --      6.1561                 6.2075                 6.3344
 IR Inten    --     11.2228                10.5510                15.0652

                     31                     32                     33
                      A                      A                      A
 Frequencies --   3416.4533              3501.1475              3578.1890
 Red. masses --      1.0740                 1.0501                 1.0919
 Frc consts  --      7.3861                 7.5840                 8.2371
 IR Inten    --      7.7520                 0.2780                 0.7018

 - Thermochemistry -
 -------------------
 Temperature   298.150 Kelvin.  Pressure   1.00000 Atm.
 Atom     1 has atomic number  6 and mass  12.00000

 Molecular mass:    72.06875 amu.
 Principal axes and moments of inertia in atomic units:
                           1         2         3
     Eigenvalues --   225.33501 460.77481 631.49217
           X            0.99831  -0.05697  -0.01168
           Y            0.05700   0.99837   0.00184
           Z            0.01156  -0.00250   0.99993
 This molecule is an asymmetric top.
 Rotational symmetry number  1.
 Rotational temperatures (Kelvin)      0.38438     0.18797     0.13716
 Rotational constants (GHZ):           8.00915     3.91675     2.85790
 Zero-point vibrational energy     300144.0 (Joules/Mol)
                                   71.73614 (Kcal/Mol)
 Warning -- explicit consideration of   7 degrees of freedom as
           vibrations may cause significant error
 Vibrational temperatures:    119.26   216.87   285.51   386.08   580.34
          (Kelvin)            701.25   806.96  1108.63  1195.07  1232.63
                             1420.47  1454.76  1530.99  1551.70  1626.91
                             1709.20  1900.10  1958.04  2010.65  2033.90
                             2116.04  2134.72  2143.05  2388.54  2494.93
                             4223.17  4352.48  4445.91  4475.99  4492.72
                             4915.51  5037.36  5148.21

 Zero-point correction=                           0.114319 (Hartree/Particle)
 Thermal correction to Energy=                    0.120753
 Thermal correction to Enthalpy=                  0.121697
 Thermal correction to Gibbs Free Energy=         0.084652
 Sum of electronic and zero-point Energies=           -228.519351
 Sum of electronic and thermal Energies=              -228.512917
 Sum of electronic and thermal Enthalpies=            -228.511973
 Sum of electronic and thermal Free Energies=         -228.549018

                     E (Thermal)             CV                S
                      KCal/Mol        Cal/Mol-Kelvin    Cal/Mol-Kelvin
 Total                   75.773             21.736             77.968
 Electronic               0.000              0.000              0.000
 Translational            0.889              2.981             38.742
 Rotational               0.889              2.981             25.686
 Vibrational             73.996             15.775             13.540
 Vibration     1          0.600              1.961              3.821
 Vibration     2          0.618              1.902              2.663
 Vibration     3          0.637              1.842              2.148
 Vibration     4          0.673              1.731              1.607
 Vibration     5          0.769              1.463              0.950
 Vibration     6          0.843              1.278              0.690
 Vibration     7          0.917              1.116              0.522

 Optimization completed.
    -- Stationary point found.
 Normal termination of Gaussian 09 at Fri Aug 19 09:38:57 2022.

 -----------------------------------------------------------------
 #P Geom=AllCheck Guess=TCheck SCRF=Check CCSD(T,E4T,FrzG4)/GTBas1
 -----------------------------------------------------------------

 Structure from the checkpoint file:  "G4.Frag_559.chk"
 --------
 Frag_559
 --------
 Charge =  0 Multiplicity = 1

 SCF Done:  E(RHF) =  -227.129806698     A.U. after   13 cycles
 E2 =    -0.7122941387D+00 EUMP2 =    -0.22784210083658D+03
 CCSD(T)
 CCSD(T)= -0.22791514219D+03
 P4SDTQ=-227.9140559\MP4SDQ=-227.8908669\CCSD=-227.891715\CCSD(T)=-227.
 Normal termination of Gaussian 09 at Fri Aug 19 09:40:56 2022.

 ---------------------------------------------------------
 #P Geom=AllCheck Guess=TCheck SCRF=Check MP4=FrzG4/GTBas2
 ---------------------------------------------------------

 Structure from the checkpoint file:  "G4.Frag_559.chk"
 --------
 Frag_559
 --------
 Charge =  0 Multiplicity = 1

 SCF Done:  E(RHF) =  -227.138398165     A.U. after   13 cycles
 E2 =    -0.7226449902D+00 EUMP2 =    -0.22786104315516D+03
 Normal termination of Gaussian 09 at Fri Aug 19 09:43:11 2022.

 ---------------------------------------------------------
 #P Geom=AllCheck Guess=TCheck SCRF=Check MP4=FrzG4/GTBas3
 ---------------------------------------------------------

 Structure from the checkpoint file:  "G4.Frag_559.chk"
 --------
 Frag_559
 --------
 Charge =  0 Multiplicity = 1

 SCF Done:  E(RHF) =  -227.162576970     A.U. after   11 cycles
 E2 =    -0.8720903682D+00 EUMP2 =    -0.22803466733831D+03
 Normal termination of Gaussian 09 at Fri Aug 19 10:28:55 2022.

 -----------------------------------------------------------
 #P Geom=AllCheck Guess=TCheck SCRF=Check MP2=Full/GTLargeXP
 -----------------------------------------------------------

 Structure from the checkpoint file:  "G4.Frag_559.chk"
 --------
 Frag_559
 --------
 Charge =  0 Multiplicity = 1

 SCF Done:  E(RHF) =  -227.219653737     A.U. after   12 cycles
 E2 =    -0.1145369042D+01 EUMP2 =    -0.22836502277934D+03
 Normal termination of Gaussian 09 at Fri Aug 19 10:31:57 2022.
 SCF Done:  E(RHF) =  -227.237269461     A.U. after    8 cycles
 Normal termination of Gaussian 09 at Fri Aug 19 10:35:17 2022.

                         Standard orientation:
 ---------------------------------------------------------------------
 Center     Atomic      Atomic             Coordinates (Angstroms)
 Number     Number       Type             X           Y           Z
 ---------------------------------------------------------------------
      1          6           0        0.826561   -1.336058    0.060069
      2          6           0        0.607276    0.158327    0.040177
      3          7           0        1.498111    1.038214   -0.186782
      4          6           0       -0.803123    0.636592    0.344374
      5          7           0       -1.823896   -0.161765   -0.350888
      6          1           0        1.871483   -1.589071   -0.136107
      7          1           0        0.195475   -1.814403   -0.696053
      8          1           0        0.542163   -1.760662    1.031448
      9          1           0        2.408799    0.596511   -0.341851
     10          1           0       -0.869858    1.674075    0.010830
     11          1           0       -0.925785    0.644542    1.442839
     12          1           0       -2.035615   -1.003262    0.176224
     13          1           0       -2.690457    0.363952   -0.391359
 ---------------------------------------------------------------------

 SCF Done:  E(RHF) =  -227.241042476     A.U. after    8 cycles

 The electronic state is 1-A.
 Alpha  occ. eigenvalues --  -15.55048 -15.53696 -11.28158 -11.25715 -11.23209
 Alpha  occ. eigenvalues --   -1.21704  -1.17407  -0.99163  -0.92607  -0.73838
 Alpha  occ. eigenvalues --   -0.67938  -0.64072  -0.62604  -0.59222  -0.57129
 Alpha  occ. eigenvalues --   -0.53996  -0.51154  -0.43180  -0.41336  -0.39218
 Alpha virt. eigenvalues --    0.03279   0.04029   0.05292   0.05494   0.06774
 Alpha virt. eigenvalues --    0.07421   0.07582   0.09092   0.09130   0.10315
 Alpha virt. eigenvalues --    0.11404   0.12026   0.12986   0.14002   0.14214

 Mulliken charges:
               1
     1  C   -0.588108
     2  C    0.318659
     3  N   -0.631123
     4  C   -0.192083
     5  N   -0.674933
     6  H    0.164158
     7  H    0.218949
     8  H    0.183647
     9  H    0.269919
    10  H    0.196059
    11  H    0.155538
    12  H    0.284641
    13  H    0.294676
 Sum of Mulliken charges =  -0.00000

 Dipole moment (field-independent basis, Debye):
    X=             -1.2872    Y=             -2.2412    Z=              1.4492  Tot=              2.9631
 Quadrupole moment (field-independent basis, Debye-Ang):
   XX=            -27.3333   YY=            -34.2688   ZZ=            -34.0964
   XY=             -4.2518   XZ=             -2.1925   YZ=             -0.5815

 Normal termination of Gaussian 09 at Fri Aug 19 12:15:19 2022.
