 Gaussian 09, Revision E.01,
 Gaussian 09:  ES64L-G09RevE.01 30-Nov-2015

 -----
 #P G4
 -----

 --------
 Frag_548
 --------
 Symbolic Z-matrix:
 Charge =  0 Multiplicity = 1

 SCF Done:  E(RB3LYP) =  -284.429627093     A.U. after   14 cycles
 SCF Done:  E(RB3LYP) =  -284.441961977     A.U. after   12 cycles
 SCF Done:  E(RB3LYP) =  -284.442510557     A.U. after   11 cycles
 SCF Done:  E(RB3LYP) =  -284.442541054     A.U. after   12 cycles
 SCF Done:  E(RB3LYP) =  -284.443198369     A.U. after   11 cycles
 SCF Done:  E(RB3LYP) =  -284.444346048     A.U. after   12 cycles
 SCF Done:  E(RB3LYP) =  -284.444987159     A.U. after   12 cycles
 SCF Done:  E(RB3LYP) =  -284.445697096     A.U. after   12 cycles
 SCF Done:  E(RB3LYP) =  -284.446868779     A.U. after   11 cycles
 SCF Done:  E(RB3LYP) =  -284.447991563     A.U. after   12 cycles
 SCF Done:  E(RB3LYP) =  -284.448801856     A.U. after    9 cycles
 SCF Done:  E(RB3LYP) =  -284.448810575     A.U. after   10 cycles
 SCF Done:  E(RB3LYP) =  -284.448811275     A.U. after    8 cycles
 Optimization completed.
    -- Stationary point found.
 Normal termination of Gaussian 09 at Fri Aug 26 14:49:34 2022.

 ----------------------------------------------------------
 #P Geom=AllCheck Guess=TCheck SCRF=Check B3LYP/GTBas3 Freq
 ----------------------------------------------------------

 Structure from the checkpoint file:  "G4.Frag_548.chk"
 --------
 Frag_548
 --------
 Charge =  0 Multiplicity = 1

 SCF Done:  E(RB3LYP) =  -284.448811275     A.U. after    1 cycles

  Exact polarizability:  38.864  -1.194  40.709  -0.317   0.069  26.325
 Approx polarizability:  55.511  -8.491  60.268   0.538  -0.200  38.888

                      1                      2                      3
                      A                      A                      A
 Frequencies --    105.8225               268.4107               292.1549
 Red. masses --      2.7957                 1.2010                 4.0450
 Frc consts  --      0.0184                 0.0510                 0.2034
 IR Inten    --      4.6238               113.5935                49.3150

                      4                      5                      6
                      A                      A                      A
 Frequencies --    404.3028               487.9393               522.1884
 Red. masses --      1.1054                 6.4575                 2.0773
 Frc consts  --      0.1065                 0.9058                 0.3337
 IR Inten    --    153.3896                 2.3195                37.0276

                      7                      8                      9
                      A                      A                      A
 Frequencies --    577.8296               684.6126               856.8293
 Red. masses --      2.4640                 1.2505                 3.7477
 Frc consts  --      0.4847                 0.3453                 1.6211
 IR Inten    --      8.1391                 2.1930                 5.4347

                     10                     11                     12
                      A                      A                      A
 Frequencies --    978.2055              1075.2662              1094.9447
 Red. masses --      1.8138                 4.3423                 2.0353
 Frc consts  --      1.0226                 2.9580                 1.4377
 IR Inten    --     20.1696                81.2365                 1.3361

                     13                     14                     15
                      A                      A                      A
 Frequencies --   1196.3316              1354.1838              1365.4360
 Red. masses --      1.1247                 1.7764                 1.9630
 Frc consts  --      0.9484                 1.9193                 2.1563
 IR Inten    --     22.1072                47.4535                46.7533

                     16                     17                     18
                      A                      A                      A
 Frequencies --   1393.6855              1472.6594              1591.8919
 Red. masses --      1.2000                 1.0788                 1.2975
 Frc consts  --      1.3733                 1.3785                 1.9372
 IR Inten    --     35.9042                 3.1349               129.0999

                     19                     20                     21
                      A                      A                      A
 Frequencies --   1812.4782              3041.6738              3091.9366
 Red. masses --     10.1572                 1.0601                 1.1039
 Frc consts  --     19.6594                 5.7785                 6.2178
 IR Inten    --    289.0138                21.6670                12.1895

                     22                     23                     24
                      A                      A                      A
 Frequencies --   3593.0172              3731.7672              3824.0523
 Red. masses --      1.0434                 1.1049                 1.0665
 Frc consts  --      7.9361                 9.0654                 9.1887
 IR Inten    --     34.6235                59.7601                31.3845

 - Thermochemistry -
 -------------------
 Temperature   298.150 Kelvin.  Pressure   1.00000 Atm.
 Atom     1 has atomic number  7 and mass  14.00307

 Molecular mass:    75.03203 amu.
 Principal axes and moments of inertia in atomic units:
                           1         2         3
     Eigenvalues --   184.67905 445.44540 610.01416
           X            0.99869   0.04971  -0.01230
           Y           -0.04969   0.99876   0.00200
           Z            0.01238  -0.00139   0.99992
 This molecule is an asymmetric top.
 Rotational symmetry number  1.
 Rotational temperatures (Kelvin)      0.46900     0.19444     0.14199
 Rotational constants (GHZ):           9.77231     4.05154     2.95852
 Zero-point vibrational energy     208255.6 (Joules/Mol)
                                   49.77429 (Kcal/Mol)
 Warning -- explicit consideration of   7 degrees of freedom as
           vibrations may cause significant error
 Vibrational temperatures:    152.25   386.18   420.35   581.70   702.03
          (Kelvin)            751.31   831.37   985.00  1232.78  1407.42
                             1547.07  1575.38  1721.25  1948.37  1964.56
                             2005.20  2118.83  2290.37  2607.75  4376.28
                             4448.60  5169.54  5369.17  5501.95

 Zero-point correction=                           0.079320 (Hartree/Particle)
 Thermal correction to Energy=                    0.085015
 Thermal correction to Enthalpy=                  0.085959
 Thermal correction to Gibbs Free Energy=         0.050667
 Sum of electronic and zero-point Energies=           -284.369491
 Sum of electronic and thermal Energies=              -284.363797
 Sum of electronic and thermal Enthalpies=            -284.362852
 Sum of electronic and thermal Free Energies=         -284.398144

                     E (Thermal)             CV                S
                      KCal/Mol        Cal/Mol-Kelvin    Cal/Mol-Kelvin
 Total                   53.348             19.471             74.277
 Electronic               0.000              0.000              0.000
 Translational            0.889              2.981             38.862
 Rotational               0.889              2.981             25.421
 Vibrational             51.570             13.509              9.995
 Vibration     1          0.605              1.945              3.344
 Vibration     2          0.673              1.731              1.606
 Vibration     3          0.688              1.688              1.461
 Vibration     4          0.769              1.461              0.947
 Vibration     5          0.844              1.277              0.689
 Vibration     6          0.877              1.201              0.605
 Vibration     7          0.934              1.079              0.489

 Optimization completed.
    -- Stationary point found.
 Normal termination of Gaussian 09 at Fri Aug 26 14:49:52 2022.

 -----------------------------------------------------------------
 #P Geom=AllCheck Guess=TCheck SCRF=Check CCSD(T,E4T,FrzG4)/GTBas1
 -----------------------------------------------------------------

 Structure from the checkpoint file:  "G4.Frag_548.chk"
 --------
 Frag_548
 --------
 Charge =  0 Multiplicity = 1

 SCF Done:  E(RHF) =  -282.822391740     A.U. after   13 cycles
 E2 =    -0.7707163152D+00 EUMP2 =    -0.28359310805487D+03
 CCSD(T)
 CCSD(T)= -0.28364489418D+03
 Normal termination of Gaussian 09 at Fri Aug 26 14:50:44 2022.

 ---------------------------------------------------------
 #P Geom=AllCheck Guess=TCheck SCRF=Check MP4=FrzG4/GTBas2
 ---------------------------------------------------------

 Structure from the checkpoint file:  "G4.Frag_548.chk"
 --------
 Frag_548
 --------
 Charge =  0 Multiplicity = 1

 SCF Done:  E(RHF) =  -282.833986119     A.U. after   12 cycles
 E2 =    -0.7841916969D+00 EUMP2 =    -0.28361817781626D+03
 Normal termination of Gaussian 09 at Fri Aug 26 14:50:58 2022.

 ---------------------------------------------------------
 #P Geom=AllCheck Guess=TCheck SCRF=Check MP4=FrzG4/GTBas3
 ---------------------------------------------------------

 Structure from the checkpoint file:  "G4.Frag_548.chk"
 --------
 Frag_548
 --------
 Charge =  0 Multiplicity = 1

 SCF Done:  E(RHF) =  -282.859562403     A.U. after   12 cycles
 E2 =    -0.9462997701D+00 EUMP2 =    -0.28380586217301D+03
 Normal termination of Gaussian 09 at Fri Aug 26 14:52:07 2022.

 -----------------------------------------------------------
 #P Geom=AllCheck Guess=TCheck SCRF=Check MP2=Full/GTLargeXP
 -----------------------------------------------------------

 Structure from the checkpoint file:  "G4.Frag_548.chk"
 --------
 Frag_548
 --------
 Charge =  0 Multiplicity = 1

 SCF Done:  E(RHF) =  -282.941050733     A.U. after   12 cycles
 E2 =    -0.1236900705D+01 EUMP2 =    -0.28417795143818D+03
 Normal termination of Gaussian 09 at Fri Aug 26 14:52:45 2022.
 SCF Done:  E(RHF) =  -282.963700474     A.U. after    9 cycles
 Normal termination of Gaussian 09 at Fri Aug 26 14:53:33 2022.

                         Standard orientation:
 ---------------------------------------------------------------------
 Center     Atomic      Atomic             Coordinates (Angstroms)
 Number     Number       Type             X           Y           Z
 ---------------------------------------------------------------------
      1          7           0       -0.604721   -1.270163    0.017189
      2          6           0       -0.646012    0.089357    0.003846
      3          8           0       -1.660341    0.751808   -0.082958
      4          6           0        0.733536    0.752659    0.113064
      5          8           0        1.832778   -0.139827   -0.002343
      6          1           0        0.264738   -1.728098    0.235655
      7          1           0       -1.471408   -1.778877    0.072638
      8          1           0        0.799157    1.207139    1.107188
      9          1           0        0.770756    1.569057   -0.617652
     10          1           0        1.965176   -0.326028   -0.937205
 ---------------------------------------------------------------------

 SCF Done:  E(RHF) =  -282.968610018     A.U. after    8 cycles

 The electronic state is 1-A.
 Alpha  occ. eigenvalues --  -20.58662 -20.52187 -15.58670 -11.35510 -11.30193
 Alpha  occ. eigenvalues --   -1.39896  -1.37861  -1.21619  -0.98283  -0.80698
 Alpha  occ. eigenvalues --   -0.74382  -0.72798  -0.66185  -0.62627  -0.60820
 Alpha  occ. eigenvalues --   -0.57440  -0.52859  -0.50747  -0.42502  -0.41770
 Alpha virt. eigenvalues --    0.03606   0.04378   0.05290   0.05969   0.07498
 Alpha virt. eigenvalues --    0.07636   0.07988   0.09739   0.10933   0.11946
 Alpha virt. eigenvalues --    0.13375   0.14371   0.15754   0.15959   0.16832

 Mulliken charges:
               1
     1  N   -0.717040
     2  C    0.528390
     3  O   -0.608387
     4  C   -0.104631
     5  O   -0.575465
     6  H    0.356704
     7  H    0.355416
     8  H    0.194332
     9  H    0.195636
    10  H    0.375046
 Sum of Mulliken charges =  -0.00000

 Dipole moment (field-independent basis, Debye):
    X=              2.2891    Y=             -2.1975    Z=             -0.6418  Tot=              3.2374
 Quadrupole moment (field-independent basis, Debye-Ang):
   XX=            -36.5196   YY=            -26.4624   ZZ=            -27.9791
   XY=              5.2829   XZ=             -3.5809   YZ=              0.1174

 Normal termination of Gaussian 09 at Fri Aug 26 14:58:11 2022.
