 Gaussian 09, Revision E.01,
 Gaussian 09:  ES64L-G09RevE.01 30-Nov-2015

 -----
 #P G4
 -----

 --------
 Frag_657
 --------
 Symbolic Z-matrix:
 Charge =  0 Multiplicity = 1

 SCF Done:  E(RB3LYP) =  -398.982784936     A.U. after   14 cycles
 SCF Done:  E(RB3LYP) =  -398.998404470     A.U. after   13 cycles
 SCF Done:  E(RB3LYP) =  -399.002518005     A.U. after   13 cycles
 SCF Done:  E(RB3LYP) =  -399.005515933     A.U. after   13 cycles
 SCF Done:  E(RB3LYP) =  -399.006318763     A.U. after   12 cycles
 SCF Done:  E(RB3LYP) =  -399.006704419     A.U. after   12 cycles
 SCF Done:  E(RB3LYP) =  -399.007149890     A.U. after   11 cycles
 SCF Done:  E(RB3LYP) =  -399.007270203     A.U. after   11 cycles
 SCF Done:  E(RB3LYP) =  -399.007329980     A.U. after   10 cycles
 SCF Done:  E(RB3LYP) =  -399.007345429     A.U. after    9 cycles
 SCF Done:  E(RB3LYP) =  -399.007351808     A.U. after    7 cycles
 SCF Done:  E(RB3LYP) =  -399.007351962     A.U. after    7 cycles
 SCF Done:  E(RB3LYP) =  -399.007352022     A.U. after    7 cycles
 Optimization completed.
    -- Stationary point found.
 Normal termination of Gaussian 09 at Thu Aug 25 22:08:23 2022.

 ----------------------------------------------------------
 #P Geom=AllCheck Guess=TCheck SCRF=Check B3LYP/GTBas3 Freq
 ----------------------------------------------------------

 Structure from the checkpoint file:  "G4.Frag_657.chk"
 --------
 Frag_657
 --------
 Charge =  0 Multiplicity = 1

 SCF Done:  E(RB3LYP) =  -399.007352022     A.U. after    1 cycles

  Exact polarizability:  52.241   1.199  53.793   0.254  -0.041  42.493
 Approx polarizability:  70.002  -1.113  87.901  -2.251   0.335  59.037

                      1                      2                      3
                      A                      A                      A
 Frequencies --     66.8586               221.4314               231.5319
 Red. masses --      6.5905                 1.1482                 2.4748
 Frc consts  --      0.0174                 0.0332                 0.0782
 IR Inten    --      2.3950                 0.0480                 0.3808

                      4                      5                      6
                      A                      A                      A
 Frequencies --    281.6172               310.1178               366.1262
 Red. masses --      3.3951                 1.2692                 2.7293
 Frc consts  --      0.1586                 0.0719                 0.2156
 IR Inten    --     10.5009               122.1034                11.3677

                      7                      8                      9
                      A                      A                      A
 Frequencies --    387.6059               426.4268               465.0230
 Red. masses --      4.7323                 1.2927                 3.0620
 Frc consts  --      0.4189                 0.1385                 0.3901
 IR Inten    --      7.0097                94.8408               100.6749

                     10                     11                     12
                      A                      A                      A
 Frequencies --    522.1747               557.6332               607.5741
 Red. masses --      2.4881                 1.4202                 3.0849
 Frc consts  --      0.3997                 0.2602                 0.6710
 IR Inten    --      2.3343                28.4152                28.7277

                     13                     14                     15
                      A                      A                      A
 Frequencies --    626.7983               730.5592               773.0106
 Red. masses --      1.1277                 3.6058                 4.4802
 Frc consts  --      0.2610                 1.1339                 1.5773
 IR Inten    --     10.7855                 5.7458                 8.6554

                     16                     17                     18
                      A                      A                      A
 Frequencies --    926.5941               974.4747              1072.2000
 Red. masses --      2.4533                 1.8626                 2.3393
 Frc consts  --      1.2410                 1.0421                 1.5845
 IR Inten    --     15.1658                44.1615                78.7268

                     19                     20                     21
                      A                      A                      A
 Frequencies --   1106.0573              1142.0994              1201.1659
 Red. masses --      1.8666                 2.0342                 3.4470
 Frc consts  --      1.3454                 1.5633                 2.9302
 IR Inten    --      6.0714                54.7911               106.3077

                     22                     23                     24
                      A                      A                      A
 Frequencies --   1348.7536              1365.1473              1408.8505
 Red. masses --      2.2150                 1.5266                 1.4178
 Frc consts  --      2.3740                 1.6762                 1.6581
 IR Inten    --    171.7472                93.6407                19.4824

                     25                     26                     27
                      A                      A                      A
 Frequencies --   1441.2167              1482.3315              1493.2743
 Red. masses --      1.4797                 1.0546                 1.1854
 Frc consts  --      1.8108                 1.3653                 1.5574
 IR Inten    --     50.4876                 2.0276                10.9536

                     28                     29                     30
                      A                      A                      A
 Frequencies --   1607.7392              1789.0500              3053.0951
 Red. masses --      1.2837                 9.4873                 1.0336
 Frc consts  --      1.9550                17.8911                 5.6766
 IR Inten    --    102.9990               260.2099                 8.0342

                     31                     32                     33
                      A                      A                      A
 Frequencies --   3134.2224              3139.7722              3591.3657
 Red. masses --      1.1026                 1.1031                 1.0437
 Frc consts  --      6.3816                 6.4069                 7.9311
 IR Inten    --     15.3827                10.9160                42.0964

                     34                     35                     36
                      A                      A                      A
 Frequencies --   3642.8067              3724.4583              3794.9470
 Red. masses --      1.0646                 1.1046                 1.0651
 Frc consts  --      8.3232                 9.0280                 9.0380
 IR Inten    --    109.0721                60.3960                35.7371

 - Thermochemistry -
 -------------------
 Temperature   298.150 Kelvin.  Pressure   1.00000 Atm.
 Atom     1 has atomic number  6 and mass  12.00000

 Molecular mass:   105.04259 amu.
 Principal axes and moments of inertia in atomic units:
                           1         2         3
     Eigenvalues --   514.38564 730.13209 877.88944
           X            0.99759   0.05389   0.04376
           Y           -0.05304   0.99838  -0.02048
           Z           -0.04479   0.01811   0.99883
 This molecule is an asymmetric top.
 Rotational symmetry number  1.
 Warning -- assumption of classical behavior for rotation
           may cause significant error
 Rotational temperatures (Kelvin)      0.16838     0.11863     0.09866
 Rotational constants (GHZ):           3.50854     2.47180     2.05577
 Zero-point vibrational energy     293169.5 (Joules/Mol)
                                   70.06919 (Kcal/Mol)
 Warning -- explicit consideration of  12 degrees of freedom as
           vibrations may cause significant error
 Vibrational temperatures:     96.19   318.59   333.12   405.18   446.19
          (Kelvin)            526.77   557.68   613.53   669.06   751.29
                              802.31   874.16   901.82  1051.11  1112.19
                             1333.16  1402.05  1542.65  1591.37  1643.22
                             1728.21  1940.55  1964.14  2027.02  2073.59
                             2132.74  2148.49  2313.18  2574.04  4392.72
                             4509.44  4517.43  5167.17  5241.18  5358.66
                             5460.08

 Zero-point correction=                           0.111662 (Hartree/Particle)
 Thermal correction to Energy=                    0.119496
 Thermal correction to Enthalpy=                  0.120440
 Thermal correction to Gibbs Free Energy=         0.080116
 Sum of electronic and zero-point Energies=           -398.895690
 Sum of electronic and thermal Energies=              -398.887856
 Sum of electronic and thermal Enthalpies=            -398.886912
 Sum of electronic and thermal Free Energies=         -398.927236

                     E (Thermal)             CV                S
                      KCal/Mol        Cal/Mol-Kelvin    Cal/Mol-Kelvin
 Total                   74.985             29.031             84.870
 Electronic               0.000              0.000              0.000
 Translational            0.889              2.981             39.865
 Rotational               0.889              2.981             27.291
 Vibrational             73.207             23.070             17.714
 Vibration     1          0.598              1.970              4.244
 Vibration     2          0.648              1.808              1.947
 Vibration     3          0.653              1.793              1.867
 Vibration     4          0.681              1.708              1.524
 Vibration     5          0.699              1.654              1.362
 Vibration     6          0.739              1.542              1.096
 Vibration     7          0.756              1.497              1.009
 Vibration     8          0.788              1.413              0.870
 Vibration     9          0.822              1.328              0.752
 Vibration    10          0.877              1.201              0.605
 Vibration    11          0.913              1.123              0.529
 Vibration    12          0.966              1.016              0.437

 Optimization completed.
    -- Stationary point found.
 Normal termination of Gaussian 09 at Thu Aug 25 22:11:50 2022.

 -----------------------------------------------------------------
 #P Geom=AllCheck Guess=TCheck SCRF=Check CCSD(T,E4T,FrzG4)/GTBas1
 -----------------------------------------------------------------

 Structure from the checkpoint file:  "G4.Frag_657.chk"
 --------
 Frag_657
 --------
 Charge =  0 Multiplicity = 1

 SCF Done:  E(RHF) =  -396.728405290     A.U. after   13 cycles
 E2 =    -0.1084761624D+01 EUMP2 =    -0.39781316691387D+03
 CCSD(T)
 CCSD(T)= -0.39788473735D+03
 DQ=-397.8540149\CCSD=-397.8520971\CCSD(T)=-397.8847373\RMSD=6.705e-09\
 Normal termination of Gaussian 09 at Thu Aug 25 22:23:32 2022.

 ---------------------------------------------------------
 #P Geom=AllCheck Guess=TCheck SCRF=Check MP4=FrzG4/GTBas2
 ---------------------------------------------------------

 Structure from the checkpoint file:  "G4.Frag_657.chk"
 --------
 Frag_657
 --------
 Charge =  0 Multiplicity = 1

 SCF Done:  E(RHF) =  -396.742391618     A.U. after   12 cycles
 E2 =    -0.1104249740D+01 EUMP2 =    -0.39784664135793D+03
 Normal termination of Gaussian 09 at Thu Aug 25 22:40:40 2022.

 ---------------------------------------------------------
 #P Geom=AllCheck Guess=TCheck SCRF=Check MP4=FrzG4/GTBas3
 ---------------------------------------------------------

 Structure from the checkpoint file:  "G4.Frag_657.chk"
 --------
 Frag_657
 --------
 Charge =  0 Multiplicity = 1

 SCF Done:  E(RHF) =  -396.781156494     A.U. after   12 cycles
 E2 =    -0.1333644507D+01 EUMP2 =    -0.39811480100071D+03
 Normal termination of Gaussian 09 at Fri Aug 26 02:20:28 2022.

 -----------------------------------------------------------
 #P Geom=AllCheck Guess=TCheck SCRF=Check MP2=Full/GTLargeXP
 -----------------------------------------------------------

 Structure from the checkpoint file:  "G4.Frag_657.chk"
 --------
 Frag_657
 --------
 Charge =  0 Multiplicity = 1

 SCF Done:  E(RHF) =  -396.892247083     A.U. after   12 cycles
 E2 =    -0.1740687566D+01 EUMP2 =    -0.39863293464951D+03
 Normal termination of Gaussian 09 at Fri Aug 26 02:30:00 2022.
 SCF Done:  E(RHF) =  -396.923792247     A.U. after    9 cycles
 Normal termination of Gaussian 09 at Fri Aug 26 02:38:10 2022.

                         Standard orientation:
 ---------------------------------------------------------------------
 Center     Atomic      Atomic             Coordinates (Angstroms)
 Number     Number       Type             X           Y           Z
 ---------------------------------------------------------------------
      1          6           0        1.198999   -0.340630    1.318620
      2          6           0        0.601046    0.007678   -0.043959
      3          8           0        0.958677   -1.035413   -0.934126
      4          8           0        1.084047    1.227865   -0.520335
      5          6           0       -0.946592    0.134590    0.043001
      6          7           0       -1.614077   -1.039960    0.038772
      7          8           0       -1.467407    1.236149    0.126428
      8          1           0        0.875183   -1.329774    1.652014
      9          1           0        2.287703   -0.330679    1.229577
     10          1           0        0.893696    0.403433    2.058345
     11          1           0        0.926643   -0.649687   -1.818232
     12          1           0        0.334188    1.842995   -0.434703
     13          1           0       -1.121267   -1.867767   -0.254627
     14          1           0       -2.620867   -1.027433    0.014515
 ---------------------------------------------------------------------

 SCF Done:  E(RHF) =  -396.930669814     A.U. after    8 cycles

 The electronic state is 1-A.
 Alpha  occ. eigenvalues --  -20.58041 -20.56746 -20.54289 -15.59881 -11.36605
 Alpha  occ. eigenvalues --  -11.36201 -11.22841  -1.44017  -1.39422  -1.34748
 Alpha  occ. eigenvalues --   -1.23147  -1.02689  -0.89654  -0.80106  -0.77208
 Alpha  occ. eigenvalues --   -0.73219  -0.70777  -0.65146  -0.64415  -0.59675
 Alpha  occ. eigenvalues --   -0.56976  -0.55904  -0.55088  -0.54061  -0.52637
 Alpha  occ. eigenvalues --   -0.48278  -0.43689  -0.42551
 Alpha virt. eigenvalues --    0.03165   0.04131   0.04786   0.05296   0.06937
 Alpha virt. eigenvalues --    0.07058   0.07332   0.07510   0.08213   0.09855
 Alpha virt. eigenvalues --    0.11670   0.11700   0.12342   0.13368   0.14492

 Mulliken charges:
               1
     1  C   -0.534492
     2  C    0.509625
     3  O   -0.605340
     4  O   -0.640790
     5  C    0.557169
     6  N   -0.734671
     7  O   -0.641743
     8  H    0.178398
     9  H    0.188197
    10  H    0.193029
    11  H    0.387514
    12  H    0.419453
    13  H    0.365132
    14  H    0.358519
 Sum of Mulliken charges =  -0.00000

 Dipole moment (field-independent basis, Debye):
    X=             -1.0560    Y=             -2.7335    Z=             -0.3695  Tot=              2.9536
 Quadrupole moment (field-independent basis, Debye-Ang):
   XX=            -43.0247   YY=            -43.1924   ZZ=            -38.6335
   XY=              5.5976   XZ=              2.3437   YZ=              0.1323

 Normal termination of Gaussian 09 at Fri Aug 26 06:22:15 2022.
