 Gaussian 09, Revision E.01,
 Gaussian 09:  ES64L-G09RevE.01 30-Nov-2015

 -----
 #P G4
 -----

 ---------
 Frag_1067
 ---------
 Symbolic Z-matrix:
 Charge =  0 Multiplicity = 1

 SCF Done:  E(RB3LYP) =  -263.239903666     A.U. after   17 cycles
 SCF Done:  E(RB3LYP) =  -263.254027917     A.U. after   15 cycles
 SCF Done:  E(RB3LYP) =  -263.254671949     A.U. after   13 cycles
 SCF Done:  E(RB3LYP) =  -263.254748513     A.U. after   13 cycles
 SCF Done:  E(RB3LYP) =  -263.254761275     A.U. after   11 cycles
 SCF Done:  E(RB3LYP) =  -263.254768048     A.U. after   10 cycles
 SCF Done:  E(RB3LYP) =  -263.254769834     A.U. after   10 cycles
 Optimization completed.
    -- Stationary point found.
 Normal termination of Gaussian 09 at Tue Aug 30 09:24:16 2022.

 ----------------------------------------------------------
 #P Geom=AllCheck Guess=TCheck SCRF=Check B3LYP/GTBas3 Freq
 ----------------------------------------------------------

 Structure from the checkpoint file:  "G4.Frag_1067.chk"
 ---------
 Frag_1067
 ---------
 Charge =  0 Multiplicity = 1

 SCF Done:  E(RB3LYP) =  -263.254769834     A.U. after    1 cycles

  Exact polarizability:  48.937  -0.726  52.967  -0.456   0.056  20.696
 Approx polarizability:  78.757  -2.887  93.268  -0.477   1.509  31.740

                      1                      2                      3
                      A                      A                      A
 Frequencies --    116.4057               317.2334               341.9072
 Red. masses --      9.3446                 1.0647                 3.9979
 Frc consts  --      0.0746                 0.0631                 0.2754
 IR Inten    --      0.9911                18.8451                 0.9207

                      4                      5                      6
                      A                      A                      A
 Frequencies --    408.4667               503.2154               603.4841
 Red. masses --      2.4224                 2.0592                 1.9281
 Frc consts  --      0.2381                 0.3072                 0.4137
 IR Inten    --      9.4247                64.8405               166.8001

                      7                      8                      9
                      A                      A                      A
 Frequencies --    630.3648               701.6905               841.6708
 Red. masses --      2.9629                 1.1825                 7.0257
 Frc consts  --      0.6937                 0.3431                 2.9324
 IR Inten    --     29.1113                 2.7498                66.4923

                     10                     11                     12
                      A                      A                      A
 Frequencies --    867.8743               974.3051              1102.8359
 Red. masses --      1.3903                 1.7453                 1.6009
 Frc consts  --      0.6170                 0.9762                 1.1472
 IR Inten    --     49.9759                14.2050                 8.6022

                     13                     14                     15
                      A                      A                      A
 Frequencies --   1319.8974              1425.6733              1601.9170
 Red. masses --      2.2964                 1.2175                 3.1650
 Frc consts  --      2.3571                 1.4580                 4.7852
 IR Inten    --     55.8494                 7.1917                96.4014

                     16                     17                     18
                      A                      A                      A
 Frequencies --   1637.7406              1733.7655              3176.1391
 Red. masses --      1.5256                 7.7477                 1.0580
 Frc consts  --      2.4108                13.7215                 6.2880
 IR Inten    --    145.3418                58.2697                 8.4715

                     19                     20                     21
                      A                      A                      A
 Frequencies --   3272.8759              3566.2476              3679.2553
 Red. masses --      1.1165                 1.0474                 1.0979
 Frc consts  --      7.0464                 7.8486                 8.7563
 IR Inten    --      0.2701                27.1750                28.2731

 - Thermochemistry -
 -------------------
 Temperature   298.150 Kelvin.  Pressure   1.00000 Atm.
 Atom     1 has atomic number  6 and mass  12.00000

 Molecular mass:    72.03236 amu.
 Principal axes and moments of inertia in atomic units:
                           1         2         3
     Eigenvalues --   182.21903 387.41794 567.99951
           X            0.99962   0.02621  -0.00879
           Y           -0.02627   0.99963  -0.00749
           Z            0.00859   0.00772   0.99993
 This molecule is an asymmetric top.
 Rotational symmetry number  1.
 Rotational temperatures (Kelvin)      0.47533     0.22357     0.15249
 Rotational constants (GHZ):           9.90424     4.65838     3.17736
 Zero-point vibrational energy     172399.6 (Joules/Mol)
                                   41.20450 (Kcal/Mol)
 Warning -- explicit consideration of   6 degrees of freedom as
           vibrations may cause significant error
 Vibrational temperatures:    167.48   456.43   491.93   587.69   724.01
          (Kelvin)            868.28   906.95  1009.57  1210.97  1248.68
                             1401.81  1586.73  1899.04  2051.22  2304.80
                             2356.34  2494.50  4569.75  4708.93  5131.03
                             5293.62

 Zero-point correction=                           0.065664 (Hartree/Particle)
 Thermal correction to Energy=                    0.071124
 Thermal correction to Enthalpy=                  0.072069
 Thermal correction to Gibbs Free Energy=         0.037425
 Sum of electronic and zero-point Energies=           -263.189106
 Sum of electronic and thermal Energies=              -263.183645
 Sum of electronic and thermal Enthalpies=            -263.182701
 Sum of electronic and thermal Free Energies=         -263.217345

                     E (Thermal)             CV                S
                      KCal/Mol        Cal/Mol-Kelvin    Cal/Mol-Kelvin
 Total                   44.631             18.823             72.915
 Electronic               0.000              0.000              0.000
 Translational            0.889              2.981             38.740
 Rotational               0.889              2.981             25.198
 Vibrational             42.854             12.861              8.977
 Vibration     1          0.608              1.936              3.159
 Vibration     2          0.704              1.641              1.324
 Vibration     3          0.721              1.592              1.203
 Vibration     4          0.773              1.452              0.932
 Vibration     5          0.859              1.243              0.650
 Vibration     6          0.962              1.024              0.444

 Normal termination of Gaussian 09 at Tue Aug 30 09:25:10 2022.

 -----------------------------------------------------------------
 #P Geom=AllCheck Guess=TCheck SCRF=Check CCSD(T,E4T,FrzG4)/GTBas1
 -----------------------------------------------------------------

 Structure from the checkpoint file:  "G4.Frag_1067.chk"
 ---------
 Frag_1067
 ---------
 Charge =  0 Multiplicity = 1

 SCF Done:  E(RHF) =  -261.698064872     A.U. after   16 cycles
 E2 =    -0.7565979784D+00 EUMP2 =    -0.26245466285072D+03
 CCSD(T)
 CCSD(T)= -0.26251339574D+03
 853299\CCSD=-262.4839988\CCSD(T)=-262.5133957\RMSD=5.707e-09\PG=C01 [X
 Normal termination of Gaussian 09 at Tue Aug 30 09:26:35 2022.

 ---------------------------------------------------------
 #P Geom=AllCheck Guess=TCheck SCRF=Check MP4=FrzG4/GTBas2
 ---------------------------------------------------------

 Structure from the checkpoint file:  "G4.Frag_1067.chk"
 ---------
 Frag_1067
 ---------
 Charge =  0 Multiplicity = 1

 SCF Done:  E(RHF) =  -261.707804824     A.U. after   15 cycles
 E2 =    -0.7676438250D+00 EUMP2 =    -0.26247544864919D+03
 Normal termination of Gaussian 09 at Tue Aug 30 09:27:36 2022.

 ---------------------------------------------------------
 #P Geom=AllCheck Guess=TCheck SCRF=Check MP4=FrzG4/GTBas3
 ---------------------------------------------------------

 Structure from the checkpoint file:  "G4.Frag_1067.chk"
 ---------
 Frag_1067
 ---------
 Charge =  0 Multiplicity = 1

 SCF Done:  E(RHF) =  -261.729944858     A.U. after   16 cycles
 E2 =    -0.9095166615D+00 EUMP2 =    -0.26263946151905D+03
 Normal termination of Gaussian 09 at Tue Aug 30 09:54:59 2022.

 -----------------------------------------------------------
 #P Geom=AllCheck Guess=TCheck SCRF=Check MP2=Full/GTLargeXP
 -----------------------------------------------------------

 Structure from the checkpoint file:  "G4.Frag_1067.chk"
 ---------
 Frag_1067
 ---------
 Charge =  0 Multiplicity = 1

 SCF Done:  E(RHF) =  -261.799542968     A.U. after   15 cycles
 E2 =    -0.1189872943D+01 EUMP2 =    -0.26298941591099D+03
 Normal termination of Gaussian 09 at Tue Aug 30 09:57:01 2022.
 SCF Done:  E(RHF) =  -261.820644007     A.U. after   13 cycles
 Normal termination of Gaussian 09 at Tue Aug 30 10:00:25 2022.

                         Standard orientation:
 ---------------------------------------------------------------------
 Center     Atomic      Atomic             Coordinates (Angstroms)
 Number     Number       Type             X           Y           Z
 ---------------------------------------------------------------------
      1          6           0       -0.372734    1.440330    0.010187
      2          6           0       -0.431985    0.102702   -0.010234
      3          7           0       -1.540142   -0.720265   -0.087887
      4          7           0        0.775188   -0.727879    0.030949
      5          8           0        1.825224   -0.135230   -0.014046
      6          1           0        0.601751    1.909493    0.027699
      7          1           0       -1.257289    2.064271    0.006534
      8          1           0       -2.408139   -0.346456    0.262262
      9          1           0       -1.355123   -1.666647    0.214722
 ---------------------------------------------------------------------

 SCF Done:  E(RHF) =  -261.824879966     A.U. after    8 cycles

 The electronic state is 1-A.
 Alpha  occ. eigenvalues --  -20.63590 -15.70944 -15.58115 -11.31516 -11.23410
 Alpha  occ. eigenvalues --   -1.52337  -1.24839  -1.05664  -0.97195  -0.78501
 Alpha  occ. eigenvalues --   -0.73393  -0.70944  -0.64117  -0.62534  -0.60943
 Alpha  occ. eigenvalues --   -0.57188  -0.51133  -0.41604  -0.34064
 Alpha virt. eigenvalues --    0.03425   0.04245   0.04294   0.05881   0.06645
 Alpha virt. eigenvalues --    0.07264   0.08526   0.08819   0.10931   0.11117
 Alpha virt. eigenvalues --    0.12369   0.12990   0.14199   0.14557   0.15384

 Mulliken charges:
               1
     1  C   -0.424137
     2  C    0.308428
     3  N   -0.699387
     4  N    0.019920
     5  O   -0.256765
     6  H    0.222922
     7  H    0.185395
     8  H    0.315513
     9  H    0.328111
 Sum of Mulliken charges =  -0.00000

 Dipole moment (field-independent basis, Debye):
    X=             -2.8283    Y=              0.3141    Z=              0.9489  Tot=              2.9997
 Quadrupole moment (field-independent basis, Debye-Ang):
   XX=            -28.8990   YY=            -27.3416   ZZ=            -31.3000
   XY=              1.2154   XZ=             -2.1609   YZ=             -0.9822

 Normal termination of Gaussian 09 at Tue Aug 30 11:06:19 2022.
