 Gaussian 09, Revision E.01,
 Gaussian 09:  ES64L-G09RevE.01 30-Nov-2015

 -----
 #P G4
 -----

 --------
 Frag_744
 --------
 Symbolic Z-matrix:
 Charge =  0 Multiplicity = 1

 SCF Done:  E(RB3LYP) =  -288.947631883     A.U. after   13 cycles
 SCF Done:  E(RB3LYP) =  -288.954831874     A.U. after   11 cycles
 SCF Done:  E(RB3LYP) =  -288.955579567     A.U. after   11 cycles
 SCF Done:  E(RB3LYP) =  -288.955781495     A.U. after   11 cycles
 SCF Done:  E(RB3LYP) =  -288.955829889     A.U. after   11 cycles
 SCF Done:  E(RB3LYP) =  -288.955839114     A.U. after   10 cycles
 SCF Done:  E(RB3LYP) =  -288.955840714     A.U. after    7 cycles
 SCF Done:  E(RB3LYP) =  -288.955841270     A.U. after    7 cycles
 SCF Done:  E(RB3LYP) =  -288.955841345     A.U. after    7 cycles
 Optimization completed.
    -- Stationary point found.
 Normal termination of Gaussian 09 at Fri Aug 26 07:56:38 2022.

 ----------------------------------------------------------
 #P Geom=AllCheck Guess=TCheck SCRF=Check B3LYP/GTBas3 Freq
 ----------------------------------------------------------

 Structure from the checkpoint file:  "G4.Frag_744.chk"
 --------
 Frag_744
 --------
 Charge =  0 Multiplicity = 1

 SCF Done:  E(RB3LYP) =  -288.955841345     A.U. after    1 cycles

  Exact polarizability:  63.212  -0.063  55.154   0.672  -0.075  55.181
 Approx polarizability:  79.823  -0.509  76.282  -0.000   0.075  89.706

                      1                      2                      3
                      A                      A                      A
 Frequencies --    115.8422               208.4451               240.7244
 Red. masses --      1.8357                 1.0384                 1.1579
 Frc consts  --      0.0145                 0.0266                 0.0395
 IR Inten    --      1.8663                 0.9273                 3.3378

                      4                      5                      6
                      A                      A                      A
 Frequencies --    273.2242               285.5801               368.7992
 Red. masses --      1.1360                 2.3293                 2.6708
 Frc consts  --      0.0500                 0.1119                 0.2140
 IR Inten    --      0.5215                 3.5644                11.5600

                      7                      8                      9
                      A                      A                      A
 Frequencies --    397.5114               434.2218               482.4239
 Red. masses --      2.7469                 2.4909                 3.2945
 Frc consts  --      0.2557                 0.2767                 0.4517
 IR Inten    --      6.8167                 9.0267                12.6243

                     10                     11                     12
                      A                      A                      A
 Frequencies --    539.4699               701.4785               790.7793
 Red. masses --      3.2181                 3.2921                 1.2554
 Frc consts  --      0.5518                 0.9544                 0.4625
 IR Inten    --      7.3559                 0.9951                 1.5096

                     13                     14                     15
                      A                      A                      A
 Frequencies --    885.7202               919.3750               973.8186
 Red. masses --      2.1611                 1.9353                 4.4440
 Frc consts  --      0.9989                 0.9638                 2.4830
 IR Inten    --      1.3525                 0.9125                35.3678

                     16                     17                     18
                      A                      A                      A
 Frequencies --   1004.0868              1071.0225              1108.8311
 Red. masses --      1.8176                 1.4099                 1.7310
 Frc consts  --      1.0797                 0.9529                 1.2539
 IR Inten    --      4.8304                 1.2788                 2.2804

                     19                     20                     21
                      A                      A                      A
 Frequencies --   1129.4949              1203.4977              1232.2387
 Red. masses --      1.4664                 1.8534                 2.1298
 Frc consts  --      1.1022                 1.5816                 1.9053
 IR Inten    --      1.5922                 9.8203                 0.5187

                     22                     23                     24
                      A                      A                      A
 Frequencies --   1260.3064              1321.6267              1374.0153
 Red. masses --      1.9056                 1.2982                 1.2255
 Frc consts  --      1.7834                 1.3360                 1.3632
 IR Inten    --      2.3284                 3.5419                 2.7332

                     25                     26                     27
                      A                      A                      A
 Frequencies --   1397.0655              1405.9745              1438.5846
 Red. masses --      1.2772                 1.1852                 1.2184
 Frc consts  --      1.4688                 1.3804                 1.4857
 IR Inten    --     13.0920                 3.1326                 2.7808

                     28                     29                     30
                      A                      A                      A
 Frequencies --   1455.6667              1471.0181              1476.5145
 Red. masses --      1.0637                 1.0607                 1.0539
 Frc consts  --      1.3279                 1.3523                 1.3537
 IR Inten    --      1.0340                 0.6237                 5.5612

                     31                     32                     33
                      A                      A                      A
 Frequencies --   1481.8639              1494.0373              1505.8943
 Red. masses --      1.0720                 1.0534                 1.0503
 Frc consts  --      1.3870                 1.3854                 1.4033
 IR Inten    --      8.3057                 9.3062                10.9699

                     34                     35                     36
                      A                      A                      A
 Frequencies --   1513.4750              3034.6334              3037.3865
 Red. masses --      1.0526                 1.0503                 1.0473
 Frc consts  --      1.4205                 5.6988                 5.6925
 IR Inten    --      1.8363                 2.2916                19.3672

                     37                     38                     39
                      A                      A                      A
 Frequencies --   3047.7278              3051.5463              3106.4601
 Red. masses --      1.0370                 1.0449                 1.0998
 Frc consts  --      5.6754                 5.7327                 6.2528
 IR Inten    --     33.3759                51.3200                 5.4484

                     40                     41                     42
                      A                      A                      A
 Frequencies --   3124.5853              3145.0972              3147.2895
 Red. masses --      1.1004                 1.0962                 1.0995
 Frc consts  --      6.3299                 6.3887                 6.4169
 IR Inten    --     26.7593                 1.4420                 7.4829

                     43                     44                     45
                      A                      A                      A
 Frequencies --   3154.5964              3177.9473              3189.7864
 Red. masses --      1.0945                 1.1057                 1.1042
 Frc consts  --      6.4172                 6.5793                 6.6195
 IR Inten    --     17.4699                 7.9387                 7.0087

 - Thermochemistry -
 -------------------
 Temperature   298.150 Kelvin.  Pressure   1.00000 Atm.
 Atom     1 has atomic number  6 and mass  12.00000

 Molecular mass:    89.08406 amu.
 Principal axes and moments of inertia in atomic units:
                           1         2         3
     Eigenvalues --   365.68360 649.90202 673.21078
           X            0.99971   0.00834   0.02269
           Y           -0.00762   0.99947  -0.03178
           Z           -0.02294   0.03159   0.99924
 This molecule is an asymmetric top.
 Rotational symmetry number  1.
 Rotational temperatures (Kelvin)      0.23685     0.13327     0.12866
 Rotational constants (GHZ):           4.93525     2.77694     2.68080
 Zero-point vibrational energy     401823.7 (Joules/Mol)
                                   96.03818 (Kcal/Mol)
 Warning -- explicit consideration of  10 degrees of freedom as
           vibrations may cause significant error
 Vibrational temperatures:    166.67   299.91   346.35   393.11   410.89
          (Kelvin)            530.62   571.93   624.75   694.10   776.18
                             1009.27  1137.75  1274.35  1322.77  1401.11
                             1444.66  1540.96  1595.36  1625.09  1731.56
                             1772.91  1813.30  1901.52  1976.90  2010.06
                             2022.88  2069.80  2094.38  2116.46  2124.37
                             2132.07  2149.58  2166.64  2177.55  4366.16
                             4370.12  4385.00  4390.49  4469.50  4495.58
                             4525.09  4528.24  4538.75  4572.35  4589.39

 Zero-point correction=                           0.153047 (Hartree/Particle)
 Thermal correction to Energy=                    0.160461
 Thermal correction to Enthalpy=                  0.161405
 Thermal correction to Gibbs Free Energy=         0.122593
 Sum of electronic and zero-point Energies=           -288.802795
 Sum of electronic and thermal Energies=              -288.795380
 Sum of electronic and thermal Enthalpies=            -288.794436
 Sum of electronic and thermal Free Energies=         -288.833249

                     E (Thermal)             CV                S
                      KCal/Mol        Cal/Mol-Kelvin    Cal/Mol-Kelvin
 Total                  100.691             27.553             81.688
 Electronic               0.000              0.000              0.000
 Translational            0.889              2.981             39.374
 Rotational               0.889              2.981             26.573
 Vibrational             98.913             21.591             15.742
 Vibration     1          0.608              1.936              3.169
 Vibration     2          0.642              1.828              2.057
 Vibration     3          0.658              1.778              1.798
 Vibration     4          0.676              1.723              1.576
 Vibration     5          0.683              1.700              1.500
 Vibration     6          0.741              1.536              1.085
 Vibration     7          0.764              1.475              0.972
 Vibration     8          0.795              1.396              0.845
 Vibration     9          0.839              1.289              0.704
 Vibration    10          0.895              1.163              0.566

 Optimization completed.
    -- Stationary point found.
 Normal termination of Gaussian 09 at Fri Aug 26 07:57:19 2022.

 -----------------------------------------------------------------
 #P Geom=AllCheck Guess=TCheck SCRF=Check CCSD(T,E4T,FrzG4)/GTBas1
 -----------------------------------------------------------------

 Structure from the checkpoint file:  "G4.Frag_744.chk"
 --------
 Frag_744
 --------
 Charge =  0 Multiplicity = 1

 SCF Done:  E(RHF) =  -287.079477549     A.U. after   12 cycles
 E2 =    -0.8792952014D+00 EUMP2 =    -0.28795877274998D+03
 CCSD(T)
 CCSD(T)= -0.28804808123D+03
 .0191866\CCSD=-288.0197186\CCSD(T)=-288.0480812\RMSD=5.487e-09\PG=C01
 Normal termination of Gaussian 09 at Fri Aug 26 08:00:02 2022.

 ---------------------------------------------------------
 #P Geom=AllCheck Guess=TCheck SCRF=Check MP4=FrzG4/GTBas2
 ---------------------------------------------------------

 Structure from the checkpoint file:  "G4.Frag_744.chk"
 --------
 Frag_744
 --------
 Charge =  0 Multiplicity = 1

 SCF Done:  E(RHF) =  -287.090083275     A.U. after   12 cycles
 E2 =    -0.8940149040D+00 EUMP2 =    -0.28798409817869D+03
 Normal termination of Gaussian 09 at Fri Aug 26 08:00:49 2022.

 ---------------------------------------------------------
 #P Geom=AllCheck Guess=TCheck SCRF=Check MP4=FrzG4/GTBas3
 ---------------------------------------------------------

 Structure from the checkpoint file:  "G4.Frag_744.chk"
 --------
 Frag_744
 --------
 Charge =  0 Multiplicity = 1

 SCF Done:  E(RHF) =  -287.113632800     A.U. after   11 cycles
 E2 =    -0.1094538230D+01 EUMP2 =    -0.28820817103020D+03
 Normal termination of Gaussian 09 at Fri Aug 26 08:05:54 2022.

 -----------------------------------------------------------
 #P Geom=AllCheck Guess=TCheck SCRF=Check MP2=Full/GTLargeXP
 -----------------------------------------------------------

 Structure from the checkpoint file:  "G4.Frag_744.chk"
 --------
 Frag_744
 --------
 Charge =  0 Multiplicity = 1

 SCF Done:  E(RHF) =  -287.187260330     A.U. after   12 cycles
 E2 =    -0.1430516787D+01 EUMP2 =    -0.28861777711671D+03
 Normal termination of Gaussian 09 at Fri Aug 26 08:08:24 2022.
 SCF Done:  E(RHF) =  -287.209966256     A.U. after    8 cycles
 Normal termination of Gaussian 09 at Fri Aug 26 08:11:03 2022.

                         Standard orientation:
 ---------------------------------------------------------------------
 Center     Atomic      Atomic             Coordinates (Angstroms)
 Number     Number       Type             X           Y           Z
 ---------------------------------------------------------------------
      1          6           0        2.100534   -0.020225   -0.005409
      2          6           0        0.822421   -0.664467   -0.511694
      3          7           0       -0.418507    0.000824    0.082943
      4          6           0       -0.563017    1.400277   -0.444360
      5          6           0       -1.617280   -0.797201   -0.336139
      6          8           0       -0.347686    0.025736    1.429832
      7          1           0        2.307571    0.940156   -0.486302
      8          1           0        2.948746   -0.680646   -0.205391
      9          1           0        1.994436    0.125733    1.071608
     10          1           0        0.742751   -0.652092   -1.604894
     11          1           0        0.758861   -1.696455   -0.161534
     12          1           0       -1.471040    1.805338    0.000153
     13          1           0       -0.619370    1.420589   -1.537844
     14          1           0        0.291051    1.971021   -0.086951
     15          1           0       -1.705176   -0.859800   -1.426186
     16          1           0       -1.503792   -1.786292    0.105191
     17          1           0       -2.488953   -0.309509    0.098508
 ---------------------------------------------------------------------

 SCF Done:  E(RHF) =  -287.214923391     A.U. after    8 cycles

 The electronic state is 1-A.
 Alpha  occ. eigenvalues --  -20.45437 -15.69373 -11.27216 -11.26516 -11.26510
 Alpha  occ. eigenvalues --  -11.21679  -1.38149  -1.11516  -1.03297  -0.98356
 Alpha  occ. eigenvalues --   -0.89752  -0.80515  -0.68506  -0.67184  -0.64776
 Alpha  occ. eigenvalues --   -0.61397  -0.58412  -0.56314  -0.54303  -0.54058
 Alpha  occ. eigenvalues --   -0.51698  -0.50846  -0.49899  -0.36784  -0.36763
 Alpha virt. eigenvalues --    0.02990   0.03648   0.03889   0.04958   0.05879
 Alpha virt. eigenvalues --    0.06374   0.07088   0.07401   0.08493   0.09174
 Alpha virt. eigenvalues --    0.09521   0.10557   0.11035   0.13265   0.13805

 Mulliken charges:
               1
     1  C   -0.573170
     2  C   -0.247609
     3  N    0.525755
     4  C   -0.537379
     5  C   -0.504177
     6  O   -0.740293
     7  H    0.154976
     8  H    0.173004
     9  H    0.247432
    10  H    0.163879
    11  H    0.179470
    12  H    0.203990
    13  H    0.170750
    14  H    0.210521
    15  H    0.170557
    16  H    0.201986
    17  H    0.200309
 Sum of Mulliken charges =  -0.00000

 Dipole moment (field-independent basis, Debye):
    X=             -0.1195    Y=             -0.0975    Z=             -4.8735  Tot=              4.8760
 Quadrupole moment (field-independent basis, Debye-Ang):
   XX=            -35.9969   YY=            -36.2065   ZZ=            -45.8621
   XY=             -0.1707   XZ=              2.0065   YZ=             -0.2165

 Normal termination of Gaussian 09 at Fri Aug 26 08:20:49 2022.
