 Gaussian 09, Revision E.01,
 Gaussian 09:  ES64L-G09RevE.01 30-Nov-2015

 -----
 #P G4
 -----

 --------
 Frag_781
 --------
 Symbolic Z-matrix:
 Charge =  0 Multiplicity = 1

 SCF Done:  E(RB3LYP) =  -188.003009607     A.U. after   15 cycles
 SCF Done:  E(RB3LYP) =  -188.039749011     A.U. after   13 cycles
 SCF Done:  E(RB3LYP) =  -188.047714135     A.U. after   14 cycles
 SCF Done:  E(RB3LYP) =  -188.048455598     A.U. after   14 cycles
 SCF Done:  E(RB3LYP) =  -188.048599942     A.U. after   13 cycles
 SCF Done:  E(RB3LYP) =  -188.048627074     A.U. after   10 cycles
 SCF Done:  E(RB3LYP) =  -188.048628838     A.U. after    9 cycles
 SCF Done:  E(RB3LYP) =  -188.048629023     A.U. after    9 cycles
 Optimization completed.
    -- Stationary point found.
 Normal termination of Gaussian 09 at Tue Aug 30 10:12:39 2022.

 ----------------------------------------------------------
 #P Geom=AllCheck Guess=TCheck SCRF=Check B3LYP/GTBas3 Freq
 ----------------------------------------------------------

 Structure from the checkpoint file:  "G4.Frag_781.chk"
 --------
 Frag_781
 --------
 Charge =  0 Multiplicity = 1

 SCF Done:  E(RB3LYP) =  -188.048629023     A.U. after    1 cycles

  Exact polarizability:  54.208   0.515  35.021   0.699  -0.998  18.806
 Approx polarizability:  80.193   2.038  58.680  -1.005  -0.233  29.074

                      1                      2                      3
                      A                      A                      A
 Frequencies --    205.2759               341.4976               539.5023
 Red. masses --      3.3727                 2.7057                 1.5792
 Frc consts  --      0.0837                 0.1859                 0.2708
 IR Inten    --      3.2759                 0.8370                15.7719

                      4                      5                      6
                      A                      A                      A
 Frequencies --    746.9468               886.3599               950.6356
 Red. masses --      1.8491                 2.4860                 1.2736
 Frc consts  --      0.6078                 1.1507                 0.6781
 IR Inten    --     13.7319                22.0694                 6.7601

                      7                      8                      9
                      A                      A                      A
 Frequencies --    969.2778              1018.4471              1122.0798
 Red. masses --      1.3867                 1.1931                 1.8306
 Frc consts  --      0.7676                 0.7291                 1.3580
 IR Inten    --     55.0290                 8.0093                 6.0328

                     10                     11                     12
                      A                      A                      A
 Frequencies --   1320.0258              1417.6331              1492.3654
 Red. masses --      1.2452                 1.2047                 1.2973
 Frc consts  --      1.2784                 1.4264                 1.7024
 IR Inten    --      0.2685                 8.3918                37.5059

                     13                     14                     15
                      A                      A                      A
 Frequencies --   1602.6749              1679.4504              3163.8032
 Red. masses --      6.5245                 4.6101                 1.0573
 Frc consts  --      9.8739                 7.6612                 6.2353
 IR Inten    --      7.6450                 6.7527                 1.5295

                     16                     17                     18
                      A                      A                      A
 Frequencies --   3189.8890              3258.3231              3266.7211
 Red. masses --      1.0934                 1.1162                 1.0743
 Frc consts  --      6.5549                 6.9822                 6.7545
 IR Inten    --      6.9645                 3.8141                13.4229

 - Thermochemistry -
 -------------------
 Temperature   298.150 Kelvin.  Pressure   1.00000 Atm.
 Atom     1 has atomic number  6 and mass  12.00000

 Molecular mass:    56.03745 amu.
 Principal axes and moments of inertia in atomic units:
                           1         2         3
     Eigenvalues --    72.79322 279.58158 343.89824
           X            0.99997   0.00009   0.00732
           Y            0.00028   0.99869  -0.05123
           Z           -0.00731   0.05123   0.99866
 This molecule is an asymmetric top.
 Rotational symmetry number  1.
 Rotational temperatures (Kelvin)      1.18986     0.30980     0.25186
 Rotational constants (GHZ):          24.79271     6.45515     5.24789
 Zero-point vibrational energy     162518.1 (Joules/Mol)
                                   38.84276 (Kcal/Mol)
 Warning -- explicit consideration of   3 degrees of freedom as
           vibrations may cause significant error
 Vibrational temperatures:    295.35   491.34   776.22  1074.69  1275.27
          (Kelvin)           1367.75  1394.57  1465.32  1614.42  1899.22
                             2039.66  2147.18  2305.89  2416.35  4552.00
                             4589.53  4687.99  4700.08

 Zero-point correction=                           0.061900 (Hartree/Particle)
 Thermal correction to Energy=                    0.066175
 Thermal correction to Enthalpy=                  0.067119
 Thermal correction to Gibbs Free Energy=         0.035692
 Sum of electronic and zero-point Energies=           -187.986729
 Sum of electronic and thermal Energies=              -187.982454
 Sum of electronic and thermal Enthalpies=            -187.981510
 Sum of electronic and thermal Free Energies=         -188.012937

                     E (Thermal)             CV                S
                      KCal/Mol        Cal/Mol-Kelvin    Cal/Mol-Kelvin
 Total                   41.526             13.683             66.145
 Electronic               0.000              0.000              0.000
 Translational            0.889              2.981             37.992
 Rotational               0.889              2.981             23.463
 Vibrational             39.748              7.721              4.690
 Vibration     1          0.640              1.832              2.085
 Vibration     2          0.721              1.593              1.205
 Vibration     3          0.895              1.163              0.566

 Optimization completed.
    -- Stationary point found.
 Normal termination of Gaussian 09 at Tue Aug 30 10:12:51 2022.

 -----------------------------------------------------------------
 #P Geom=AllCheck Guess=TCheck SCRF=Check CCSD(T,E4T,FrzG4)/GTBas1
 -----------------------------------------------------------------

 Structure from the checkpoint file:  "G4.Frag_781.chk"
 --------
 Frag_781
 --------
 Charge =  0 Multiplicity = 1

 SCF Done:  E(RHF) =  -186.871006262     A.U. after   15 cycles
 E2 =    -0.5727675597D+00 EUMP2 =    -0.18744377382156D+03
 CCSD(T)
 CCSD(T)= -0.18749950740D+03
 987268\MP4SDQ=-187.4755218\CCSD=-187.4762077\CCSD(T)=-187.4995074\RMSD
 Normal termination of Gaussian 09 at Tue Aug 30 10:13:13 2022.

 ---------------------------------------------------------
 #P Geom=AllCheck Guess=TCheck SCRF=Check MP4=FrzG4/GTBas2
 ---------------------------------------------------------

 Structure from the checkpoint file:  "G4.Frag_781.chk"
 --------
 Frag_781
 --------
 Charge =  0 Multiplicity = 1

 SCF Done:  E(RHF) =  -186.878820765     A.U. after   14 cycles
 E2 =    -0.5804382169D+00 EUMP2 =    -0.18745925898176D+03
 Normal termination of Gaussian 09 at Tue Aug 30 10:13:19 2022.

 ---------------------------------------------------------
 #P Geom=AllCheck Guess=TCheck SCRF=Check MP4=FrzG4/GTBas3
 ---------------------------------------------------------

 Structure from the checkpoint file:  "G4.Frag_781.chk"
 --------
 Frag_781
 --------
 Charge =  0 Multiplicity = 1

 SCF Done:  E(RHF) =  -186.892382453     A.U. after   14 cycles
 E2 =    -0.6842806594D+00 EUMP2 =    -0.18757666311265D+03
 Normal termination of Gaussian 09 at Tue Aug 30 10:13:42 2022.

 -----------------------------------------------------------
 #P Geom=AllCheck Guess=TCheck SCRF=Check MP2=Full/GTLargeXP
 -----------------------------------------------------------

 Structure from the checkpoint file:  "G4.Frag_781.chk"
 --------
 Frag_781
 --------
 Charge =  0 Multiplicity = 1

 SCF Done:  E(RHF) =  -186.940116205     A.U. after   14 cycles
 E2 =    -0.9001141540D+00 EUMP2 =    -0.18784023035907D+03
 Normal termination of Gaussian 09 at Tue Aug 30 10:14:00 2022.
 SCF Done:  E(RHF) =  -186.954891033     A.U. after   11 cycles
 Normal termination of Gaussian 09 at Tue Aug 30 10:14:23 2022.

                         Standard orientation:
 ---------------------------------------------------------------------
 Center     Atomic      Atomic             Coordinates (Angstroms)
 Number     Number       Type             X           Y           Z
 ---------------------------------------------------------------------
      1          6           0       -1.448076   -0.477914    0.039761
      2          6           0       -0.630825    0.566183   -0.083621
      3          7           0        0.762024    0.532796    0.194667
      4          7           0        1.341075   -0.511336   -0.167417
      5          1           0       -1.060387   -1.454199    0.307129
      6          1           0       -2.517648   -0.373429   -0.098584
      7          1           0       -0.990415    1.569652   -0.288625
      8          1           0        2.320162   -0.421853    0.152498
 ---------------------------------------------------------------------

 SCF Done:  E(RHF) =  -186.957740232     A.U. after    8 cycles

 The electronic state is 1-A.
 Alpha  occ. eigenvalues --  -15.63747 -15.62484 -11.26774 -11.24263  -1.36513
 Alpha  occ. eigenvalues --   -1.07699  -0.93848  -0.77214  -0.68056  -0.66185
 Alpha  occ. eigenvalues --   -0.61084  -0.54608  -0.52135  -0.41009  -0.37178
 Alpha virt. eigenvalues --    0.04221   0.04620   0.05248   0.06022   0.07220
 Alpha virt. eigenvalues --    0.07636   0.08242   0.09013   0.09898   0.11516
 Alpha virt. eigenvalues --    0.13256   0.14291   0.15051   0.15830   0.16335

 Mulliken charges:
               1
     1  C   -0.353416
     2  C   -0.071179
     3  N   -0.121931
     4  N   -0.382916
     5  H    0.201416
     6  H    0.204876
     7  H    0.205453
     8  H    0.317697
 Sum of Mulliken charges =  -0.00000

 Dipole moment (field-independent basis, Debye):
    X=             -0.4154    Y=             -0.0141    Z=              0.2028  Tot=              0.4625
 Quadrupole moment (field-independent basis, Debye-Ang):
   XX=            -19.0021   YY=            -24.4976   ZZ=            -26.5108
   XY=             -0.8232   XZ=              0.7950   YZ=             -2.0422

 Normal termination of Gaussian 09 at Tue Aug 30 10:16:27 2022.
