 Gaussian 09, Revision E.01,
 Gaussian 09:  ES64L-G09RevE.01 30-Nov-2015

 -----
 #P G4
 -----

 --------
 Frag_521
 --------
 Symbolic Z-matrix:
 Charge =  0 Multiplicity = 1

 SCF Done:  E(RB3LYP) =  -189.282034529     A.U. after   11 cycles
 SCF Done:  E(RB3LYP) =  -189.284761977     A.U. after   12 cycles
 SCF Done:  E(RB3LYP) =  -189.286497228     A.U. after   11 cycles
 SCF Done:  E(RB3LYP) =  -189.287692734     A.U. after   12 cycles
 SCF Done:  E(RB3LYP) =  -189.287823019     A.U. after   11 cycles
 SCF Done:  E(RB3LYP) =  -189.287832764     A.U. after    8 cycles
 SCF Done:  E(RB3LYP) =  -189.287835411     A.U. after    7 cycles
 Optimization completed.
    -- Stationary point found.
 Normal termination of Gaussian 09 at Tue Aug 30 09:26:06 2022.

 ----------------------------------------------------------
 #P Geom=AllCheck Guess=TCheck SCRF=Check B3LYP/GTBas3 Freq
 ----------------------------------------------------------

 Structure from the checkpoint file:  "G4.Frag_521.chk"
 --------
 Frag_521
 --------
 Charge =  0 Multiplicity = 1

 SCF Done:  E(RB3LYP) =  -189.287835411     A.U. after    1 cycles

  Exact polarizability:  55.873  -1.693  31.181  -3.150   1.776  30.211
 Approx polarizability:  70.170  -6.844  47.228  -6.809   4.637  44.850

                      1                      2                      3
                     AU                     AG                     AU
 Frequencies --    165.0441               226.5905               290.5633
 Red. masses --      1.0388                 1.6766                 2.3661
 Frc consts  --      0.0167                 0.0507                 0.1177
 IR Inten    --      2.3200                 0.0000                 6.2238

                      4                      5                      6
                     AU                     AG                     AG
 Frequencies --    349.6928               594.7983               922.1098
 Red. masses --      2.5448                 3.1094                 2.2279
 Frc consts  --      0.1834                 0.6481                 1.1161
 IR Inten    --     14.9192                 0.0000                 0.0000

                      7                      8                      9
                     AU                     AG                     AU
 Frequencies --   1019.0547              1038.1929              1137.7640
 Red. masses --      5.9909                 1.2864                 1.4320
 Frc consts  --      3.6656                 0.8169                 1.0922
 IR Inten    --      8.8400                 0.0000                 0.8153

                     10                     11                     12
                     AU                     AG                     AG
 Frequencies --   1138.1024              1212.1090              1408.0465
 Red. masses --      1.4304                 2.3666                 1.2063
 Frc consts  --      1.0916                 2.0486                 1.4091
 IR Inten    --      0.7652                 0.0000                 0.0000

                     13                     14                     15
                     AU                     AG                     AG
 Frequencies --   1410.3671              1469.3746              1472.9883
 Red. masses --      1.1959                 1.0753                 1.0487
 Frc consts  --      1.4015                 1.3679                 1.3407
 IR Inten    --      1.3307                 0.0000                 0.0000

                     16                     17                     18
                     AU                     AU                     AG
 Frequencies --   1473.9196              1476.2886              1674.0242
 Red. masses --      1.0433                 1.0448                 8.0733
 Frc consts  --      1.3354                 1.3416                13.3299
 IR Inten    --     11.0070                21.5790                 0.0000

                     19                     20                     21
                     AU                     AG                     AU
 Frequencies --   3020.6446              3022.0532              3097.9913
 Red. masses --      1.0307                 1.0305                 1.1007
 Frc consts  --      5.5408                 5.5452                 6.2242
 IR Inten    --     46.5386                 0.0000                26.5523

                     22                     23                     24
                     AG                     AU                     AG
 Frequencies --   3098.0810              3113.8437              3114.3499
 Red. masses --      1.1002                 1.1057                 1.1066
 Frc consts  --      6.2218                 6.3167                 6.3236
 IR Inten    --      0.0000                35.5010                 0.0000

 - Thermochemistry -
 -------------------
 Temperature   298.150 Kelvin.  Pressure   1.00000 Atm.
 Atom     1 has atomic number  6 and mass  12.00000

 Molecular mass:    58.05310 amu.
 Principal axes and moments of inertia in atomic units:
                           1         2         3
     Eigenvalues --    43.09179 406.30030 427.05088
           X            0.99695   0.04919   0.06055
           Y           -0.00656   0.82626  -0.56326
           Z           -0.07773   0.56114   0.82406
 This molecule is an asymmetric top.
 Rotational symmetry number  1.
 Rotational temperatures (Kelvin)      2.00998     0.21318     0.20282
 Rotational constants (GHZ):          41.88132     4.44189     4.22606
 Zero-point vibrational energy     220986.1 (Joules/Mol)
                                   52.81695 (Kcal/Mol)
 Warning -- explicit consideration of   5 degrees of freedom as
           vibrations may cause significant error
 Vibrational temperatures:    237.46   326.01   418.06   503.13   855.78
          (Kelvin)           1326.71  1466.19  1493.73  1636.99  1637.47
                             1743.95  2025.86  2029.20  2114.10  2119.30
                             2120.64  2124.05  2408.54  4346.03  4348.06
                             4457.31  4457.44  4480.12  4480.85

 Zero-point correction=                           0.084169 (Hartree/Particle)
 Thermal correction to Energy=                    0.089309
 Thermal correction to Enthalpy=                  0.090253
 Thermal correction to Gibbs Free Energy=         0.057159
 Sum of electronic and zero-point Energies=           -189.203666
 Sum of electronic and thermal Energies=              -189.198526
 Sum of electronic and thermal Enthalpies=            -189.197582
 Sum of electronic and thermal Free Energies=         -189.230677

                     E (Thermal)             CV                S
                      KCal/Mol        Cal/Mol-Kelvin    Cal/Mol-Kelvin
 Total                   56.042             16.393             69.654
 Electronic               0.000              0.000              0.000
 Translational            0.889              2.981             38.097
 Rotational               0.889              2.981             23.529
 Vibrational             54.265             10.431              8.028
 Vibration     1          0.623              1.885              2.491
 Vibration     2          0.650              1.801              1.906
 Vibration     3          0.687              1.691              1.471
 Vibration     4          0.727              1.576              1.168
 Vibration     5          0.952              1.043              0.459

 Optimization completed.
    -- Stationary point found.
 Normal termination of Gaussian 09 at Tue Aug 30 09:26:18 2022.

 -----------------------------------------------------------------
 #P Geom=AllCheck Guess=TCheck SCRF=Check CCSD(T,E4T,FrzG4)/GTBas1
 -----------------------------------------------------------------

 Structure from the checkpoint file:  "G4.Frag_521.chk"
 --------
 Frag_521
 --------
 Charge =  0 Multiplicity = 1

 SCF Done:  E(RHF) =  -188.067040613     A.U. after   10 cycles
 E2 =    -0.5832434095D+00 EUMP2 =    -0.18865028402229D+03
 CCSD(T)
 CCSD(T)= -0.18870989286D+03
 Normal termination of Gaussian 09 at Tue Aug 30 09:26:36 2022.

 ---------------------------------------------------------
 #P Geom=AllCheck Guess=TCheck SCRF=Check MP4=FrzG4/GTBas2
 ---------------------------------------------------------

 Structure from the checkpoint file:  "G4.Frag_521.chk"
 --------
 Frag_521
 --------
 Charge =  0 Multiplicity = 1

 SCF Done:  E(RHF) =  -188.073523820     A.U. after   10 cycles
 E2 =    -0.5913026795D+00 EUMP2 =    -0.18866482649971D+03
 Normal termination of Gaussian 09 at Tue Aug 30 09:26:46 2022.

 ---------------------------------------------------------
 #P Geom=AllCheck Guess=TCheck SCRF=Check MP4=FrzG4/GTBas3
 ---------------------------------------------------------

 Structure from the checkpoint file:  "G4.Frag_521.chk"
 --------
 Frag_521
 --------
 Charge =  0 Multiplicity = 1

 SCF Done:  E(RHF) =  -188.088635477     A.U. after   10 cycles
 E2 =    -0.7088711877D+00 EUMP2 =    -0.18879750666503D+03
 Normal termination of Gaussian 09 at Tue Aug 30 09:27:36 2022.

 -----------------------------------------------------------
 #P Geom=AllCheck Guess=TCheck SCRF=Check MP2=Full/GTLargeXP
 -----------------------------------------------------------

 Structure from the checkpoint file:  "G4.Frag_521.chk"
 --------
 Frag_521
 --------
 Charge =  0 Multiplicity = 1

 SCF Done:  E(RHF) =  -188.135212228     A.U. after   10 cycles
 E2 =    -0.9286314082D+00 EUMP2 =    -0.18906384363670D+03
 Normal termination of Gaussian 09 at Tue Aug 30 09:27:51 2022.
 SCF Done:  E(RHF) =  -188.149947939     A.U. after    8 cycles
 Normal termination of Gaussian 09 at Tue Aug 30 09:28:05 2022.

                         Standard orientation:
 ---------------------------------------------------------------------
 Center     Atomic      Atomic             Coordinates (Angstroms)
 Number     Number       Type             X           Y           Z
 ---------------------------------------------------------------------
      1          6           0       -1.793093   -0.062535    0.089004
      2          7           0       -0.407808    0.370492    0.283201
      3          7           0        0.407808   -0.370492   -0.283201
      4          6           0        1.793093    0.062535   -0.089004
      5          1           0       -2.237690   -0.230851    1.075861
      6          1           0       -1.865119   -0.966675   -0.524215
      7          1           0       -2.344638    0.762088   -0.375495
      8          1           0        2.344638   -0.762088    0.375495
      9          1           0        2.237690    0.230851   -1.075861
     10          1           0        1.865119    0.966675    0.524215
 ---------------------------------------------------------------------

 SCF Done:  E(RHF) =  -188.152984430     A.U. after    7 cycles

 The electronic state is 1-AG.
 Alpha  occ. eigenvalues --  -15.61844 -15.61703 -11.24873 -11.24873  -1.35930
 Alpha  occ. eigenvalues --   -1.06111  -0.93465  -0.77825  -0.65374  -0.64678
 Alpha  occ. eigenvalues --   -0.62141  -0.57502  -0.54178  -0.51603  -0.44772
 Alpha  occ. eigenvalues --   -0.38271
 Alpha virt. eigenvalues --    0.03883   0.05113   0.05261   0.05405   0.07062
 Alpha virt. eigenvalues --    0.07387   0.07506   0.11123   0.11881   0.12210
 Alpha virt. eigenvalues --    0.13436   0.14912   0.14912   0.15106   0.19012

 Mulliken charges:
               1
     1  C   -0.415859
     2  N   -0.142174
     3  N   -0.142174
     4  C   -0.415859
     5  H    0.185527
     6  H    0.186985
     7  H    0.185520
     8  H    0.185520
     9  H    0.185527
    10  H    0.186985
 Sum of Mulliken charges =  -0.00000

 Dipole moment (field-independent basis, Debye):
    X=             -0.0000    Y=             -0.0000    Z=             -0.0000  Tot=              0.0000
 Quadrupole moment (field-independent basis, Debye-Ang):
   XX=            -20.2886   YY=            -27.1840   ZZ=            -25.9944
   XY=              0.1811   XZ=             -0.2201   YZ=             -1.5306

 Normal termination of Gaussian 09 at Tue Aug 30 09:29:21 2022.
