 Gaussian 09, Revision E.01,
 Gaussian 09:  ES64L-G09RevE.01 30-Nov-2015

 -----
 #P G4
 -----

 --------
 Frag_721
 --------
 Symbolic Z-matrix:
 Charge =  0 Multiplicity = 1

 SCF Done:  E(RB3LYP) =  -359.116258250     A.U. after   14 cycles
 SCF Done:  E(RB3LYP) =  -359.148871364     A.U. after   13 cycles
 SCF Done:  E(RB3LYP) =  -359.155903924     A.U. after   14 cycles
 SCF Done:  E(RB3LYP) =  -359.157844057     A.U. after   14 cycles
 SCF Done:  E(RB3LYP) =  -359.158765288     A.U. after   15 cycles
 SCF Done:  E(RB3LYP) =  -359.160037988     A.U. after   14 cycles
 SCF Done:  E(RB3LYP) =  -359.160611438     A.U. after   13 cycles
 SCF Done:  E(RB3LYP) =  -359.160933899     A.U. after   14 cycles
 SCF Done:  E(RB3LYP) =  -359.160937593     A.U. after   13 cycles
 SCF Done:  E(RB3LYP) =  -359.161112387     A.U. after   13 cycles
 SCF Done:  E(RB3LYP) =  -359.161135753     A.U. after    8 cycles
 SCF Done:  E(RB3LYP) =  -359.161135885     A.U. after    8 cycles
 SCF Done:  E(RB3LYP) =  -359.161135494     A.U. after    9 cycles
 Optimization completed.
    -- Stationary point found.
 Normal termination of Gaussian 09 at Fri Aug 26 09:56:12 2022.

 ----------------------------------------------------------
 #P Geom=AllCheck Guess=TCheck SCRF=Check B3LYP/GTBas3 Freq
 ----------------------------------------------------------

 Structure from the checkpoint file:  "G4.Frag_721.chk"
 --------
 Frag_721
 --------
 Charge =  0 Multiplicity = 1

 SCF Done:  E(RB3LYP) =  -359.161135494     A.U. after    1 cycles

  Exact polarizability:  65.483  -3.022  63.969  -0.155  -0.565  48.517
 Approx polarizability:  89.920  -4.195 118.500  -0.441  -3.842  67.599

                      1                      2                      3
                      A                      A                      A
 Frequencies --     47.3348               166.7661               224.5286
 Red. masses --      6.3078                 1.0485                 1.0789
 Frc consts  --      0.0083                 0.0172                 0.0320
 IR Inten    --      0.2859                18.2326                25.7814

                      4                      5                      6
                      A                      A                      A
 Frequencies --    259.3126               272.7255               311.4109
 Red. masses --      1.0506                 2.5972                 2.7786
 Frc consts  --      0.0416                 0.1138                 0.1588
 IR Inten    --      4.1966                 0.7947                 7.5851

                      7                      8                      9
                      A                      A                      A
 Frequencies --    360.0896               402.8206               429.9056
 Red. masses --      3.0145                 3.5957                 2.7522
 Frc consts  --      0.2303                 0.3438                 0.2997
 IR Inten    --      0.5462                 3.3040                 3.4195

                     10                     11                     12
                      A                      A                      A
 Frequencies --    528.9806               578.2693               698.3979
 Red. masses --      4.4760                 2.9559                 3.1534
 Frc consts  --      0.7379                 0.5824                 0.9062
 IR Inten    --      5.2956                26.1969                 3.2668

                     13                     14                     15
                      A                      A                      A
 Frequencies --    770.6098               822.6389               891.9611
 Red. masses --      3.6669                 2.4965                 1.4061
 Frc consts  --      1.2830                 0.9954                 0.6591
 IR Inten    --     26.7514                60.2721               105.0257

                     16                     17                     18
                      A                      A                      A
 Frequencies --    920.6048               938.2743               990.3975
 Red. masses --      1.4533                 1.5072                 1.6319
 Frc consts  --      0.7257                 0.7817                 0.9431
 IR Inten    --     46.8852                 4.6020                 1.9334

                     19                     20                     21
                      A                      A                      A
 Frequencies --   1023.5759              1101.6846              1200.3836
 Red. masses --      1.3687                 1.4319                 2.7634
 Frc consts  --      0.8449                 1.0239                 2.3460
 IR Inten    --      5.0011                 6.1902                40.0318

                     22                     23                     24
                      A                      A                      A
 Frequencies --   1262.0550              1282.1727              1340.7797
 Red. masses --      3.1105                 3.1160                 1.8407
 Frc consts  --      2.9191                 3.0182                 1.9496
 IR Inten    --     19.1079                58.7013                15.8242

                     25                     26                     27
                      A                      A                      A
 Frequencies --   1393.3322              1410.4040              1472.6390
 Red. masses --      1.2678                 1.2430                 1.0478
 Frc consts  --      1.4501                 1.4568                 1.3388
 IR Inten    --     12.9598                24.2550                 0.4709

                     28                     29                     30
                      A                      A                      A
 Frequencies --   1483.2616              1492.9488              1504.2404
 Red. masses --      1.0522                 1.0784                 1.1989
 Frc consts  --      1.3639                 1.4162                 1.5983
 IR Inten    --      2.9637                 3.8334                10.1832

                     31                     32                     33
                      A                      A                      A
 Frequencies --   1519.2912              1599.2465              1634.5259
 Red. masses --      1.5365                 5.7551                 1.2306
 Frc consts  --      2.0895                 8.6722                 1.9372
 IR Inten    --     11.4816               248.2675                24.1076

                     34                     35                     36
                      A                      A                      A
 Frequencies --   3043.0045              3057.3755              3120.8664
 Red. masses --      1.0339                 1.0392                 1.1023
 Frc consts  --      5.6405                 5.7231                 6.3254
 IR Inten    --     11.1390                13.0869                13.5524

                     37                     38                     39
                      A                      A                      A
 Frequencies --   3128.3540              3130.5737              3170.1634
 Red. masses --      1.1013                 1.1002                 1.1014
 Frc consts  --      6.3504                 6.3531                 6.5214
 IR Inten    --      9.5640                17.0022                 5.9250

                     40                     41                     42
                      A                      A                      A
 Frequencies --   3406.8569              3504.8647              3592.7220
 Red. masses --      1.0713                 1.0486                 1.0930
 Frc consts  --      7.3260                 7.5893                 8.3122
 IR Inten    --      2.2528                 2.7363                 4.4324

 - Thermochemistry -
 -------------------
 Temperature   298.150 Kelvin.  Pressure   1.00000 Atm.
 Atom     1 has atomic number  6 and mass  12.00000

 Molecular mass:   103.07456 amu.
 Principal axes and moments of inertia in atomic units:
                           1         2         3
     Eigenvalues --   525.24339 718.43999 848.29372
           X            0.99808  -0.06175   0.00539
           Y            0.06136   0.99659   0.05518
           Z           -0.00878  -0.05474   0.99846
 This molecule is an asymmetric top.
 Rotational symmetry number  1.
 Warning -- assumption of classical behavior for rotation
           may cause significant error
 Rotational temperatures (Kelvin)      0.16490     0.12056     0.10210
 Rotational constants (GHZ):           3.43601     2.51203     2.12750
 Zero-point vibrational energy     355831.3 (Joules/Mol)
                                   85.04573 (Kcal/Mol)
 Warning -- explicit consideration of  11 degrees of freedom as
           vibrations may cause significant error
 Vibrational temperatures:     68.10   239.94   323.05   373.09   392.39
          (Kelvin)            448.05   518.09   579.57   618.54   761.08
                              832.00  1004.84  1108.73  1183.59  1283.33
                             1324.54  1349.97  1424.96  1472.70  1585.08
                             1727.08  1815.81  1844.76  1929.08  2004.69
                             2029.25  2118.80  2134.08  2148.02  2164.26
                             2185.92  2300.96  2351.72  4378.20  4398.88
                             4490.23  4501.00  4504.19  4561.15  4901.70
                             5042.71  5169.12

 Zero-point correction=                           0.135529 (Hartree/Particle)
 Thermal correction to Energy=                    0.143608
 Thermal correction to Enthalpy=                  0.144552
 Thermal correction to Gibbs Free Energy=         0.103404
 Sum of electronic and zero-point Energies=           -359.025607
 Sum of electronic and thermal Energies=              -359.017527
 Sum of electronic and thermal Enthalpies=            -359.016583
 Sum of electronic and thermal Free Energies=         -359.057732

                     E (Thermal)             CV                S
                      KCal/Mol        Cal/Mol-Kelvin    Cal/Mol-Kelvin
 Total                   90.115             29.388             86.604
 Electronic               0.000              0.000              0.000
 Translational            0.889              2.981             39.808
 Rotational               0.889              2.981             27.262
 Vibrational             88.338             23.426             19.534
 Vibration     1          0.595              1.979              4.926
 Vibration     2          0.624              1.883              2.472
 Vibration     3          0.649              1.804              1.922
 Vibration     4          0.668              1.747              1.666
 Vibration     5          0.676              1.724              1.579
 Vibration     6          0.700              1.652              1.355
 Vibration     7          0.735              1.554              1.122
 Vibration     8          0.768              1.464              0.952
 Vibration     9          0.791              1.405              0.859
 Vibration    10          0.884              1.186              0.589
 Vibration    11          0.935              1.078              0.489

 Normal termination of Gaussian 09 at Fri Aug 26 09:57:00 2022.

 -----------------------------------------------------------------
 #P Geom=AllCheck Guess=TCheck SCRF=Check CCSD(T,E4T,FrzG4)/GTBas1
 -----------------------------------------------------------------

 Structure from the checkpoint file:  "G4.Frag_721.chk"
 --------
 Frag_721
 --------
 Charge =  0 Multiplicity = 1

 SCF Done:  E(RHF) =  -356.934822456     A.U. after   14 cycles
 E2 =    -0.1088956693D+01 EUMP2 =    -0.35802377914823D+03
 CCSD(T)
 CCSD(T)= -0.35810744116D+03
 =-358.1134613\MP4SDQ=-358.0686974\CCSD=-358.0666594\CCSD(T)=-358.10744
 Normal termination of Gaussian 09 at Fri Aug 26 10:01:36 2022.

 ---------------------------------------------------------
 #P Geom=AllCheck Guess=TCheck SCRF=Check MP4=FrzG4/GTBas2
 ---------------------------------------------------------

 Structure from the checkpoint file:  "G4.Frag_721.chk"
 --------
 Frag_721
 --------
 Charge =  0 Multiplicity = 1

 SCF Done:  E(RHF) =  -356.946336229     A.U. after   13 cycles
 E2 =    -0.1105189142D+01 EUMP2 =    -0.35805152537097D+03
 Normal termination of Gaussian 09 at Fri Aug 26 10:02:54 2022.

 ---------------------------------------------------------
 #P Geom=AllCheck Guess=TCheck SCRF=Check MP4=FrzG4/GTBas3
 ---------------------------------------------------------

 Structure from the checkpoint file:  "G4.Frag_721.chk"
 --------
 Frag_721
 --------
 Charge =  0 Multiplicity = 1

 SCF Done:  E(RHF) =  -356.980648417     A.U. after   12 cycles
 E2 =    -0.1322910703D+01 EUMP2 =    -0.35830355912021D+03
 Normal termination of Gaussian 09 at Fri Aug 26 10:13:26 2022.

 -----------------------------------------------------------
 #P Geom=AllCheck Guess=TCheck SCRF=Check MP2=Full/GTLargeXP
 -----------------------------------------------------------

 Structure from the checkpoint file:  "G4.Frag_721.chk"
 --------
 Frag_721
 --------
 Charge =  0 Multiplicity = 1

 SCF Done:  E(RHF) =  -357.071674707     A.U. after   13 cycles
 E2 =    -0.1716754194D+01 EUMP2 =    -0.35878842890163D+03
 Normal termination of Gaussian 09 at Fri Aug 26 10:17:05 2022.
 SCF Done:  E(RHF) =  -357.099991560     A.U. after   11 cycles
 Normal termination of Gaussian 09 at Fri Aug 26 10:21:16 2022.

                         Standard orientation:
 ---------------------------------------------------------------------
 Center     Atomic      Atomic             Coordinates (Angstroms)
 Number     Number       Type             X           Y           Z
 ---------------------------------------------------------------------
      1          6           0       -1.151882    1.104729    0.823306
      2          6           0       -0.574337   -0.057216    0.017515
      3          6           0       -0.921761    0.053937   -1.478882
      4          7           0       -0.948910   -1.310550    0.645186
      5          7           0        0.957313    0.046844    0.062187
      6          7           0        1.588640   -1.047250    0.111699
      7          8           0        1.442767    1.186576   -0.031856
      8          1           0       -0.853932    1.020780    1.870244
      9          1           0       -0.814301    2.060442    0.425335
     10          1           0       -2.244074    1.061152    0.770684
     11          1           0       -0.532319    0.982240   -1.904723
     12          1           0       -0.502787   -0.793039   -2.029509
     13          1           0       -2.009102    0.043413   -1.596925
     14          1           0       -1.954725   -1.425509    0.569529
     15          1           0       -0.503366   -2.088347    0.169663
     16          1           0        2.581046   -0.785745    0.075409
 ---------------------------------------------------------------------

 SCF Done:  E(RHF) =  -357.105869108     A.U. after    8 cycles

 The electronic state is 1-A.
 Alpha  occ. eigenvalues --  -20.55393 -15.78200 -15.60393 -15.55794 -11.33409
 Alpha  occ. eigenvalues --  -11.23812 -11.22833  -1.51902  -1.27502  -1.21643
 Alpha  occ. eigenvalues --   -1.05791  -0.96074  -0.93862  -0.77411  -0.72472
 Alpha  occ. eigenvalues --   -0.71626  -0.67843  -0.64730  -0.62388  -0.58943
 Alpha  occ. eigenvalues --   -0.57264  -0.55367  -0.53560  -0.51259  -0.49123
 Alpha  occ. eigenvalues --   -0.45008  -0.41551  -0.39302
 Alpha virt. eigenvalues --    0.03011   0.04120   0.04898   0.05260   0.06838
 Alpha virt. eigenvalues --    0.06885   0.07365   0.07461   0.08514   0.09772
 Alpha virt. eigenvalues --    0.10621   0.10959   0.11424   0.12329   0.13322

 Mulliken charges:
               1
     1  C   -0.577506
     2  C    0.439178
     3  C   -0.591940
     4  N   -0.723269
     5  N    0.449544
     6  N   -0.543691
     7  O   -0.559882
     8  H    0.195622
     9  H    0.217253
    10  H    0.170205
    11  H    0.207437
    12  H    0.188350
    13  H    0.178352
    14  H    0.296463
    15  H    0.328057
    16  H    0.325826
 Sum of Mulliken charges =  -0.00000

 Dipole moment (field-independent basis, Debye):
    X=             -2.5625    Y=             -1.1056    Z=             -1.2850  Tot=              3.0724
 Quadrupole moment (field-independent basis, Debye-Ang):
   XX=            -39.1662   YY=            -46.4230   ZZ=            -44.8106
   XY=             -2.3697   XZ=              0.6252   YZ=              2.2872

 Normal termination of Gaussian 09 at Fri Aug 26 10:33:15 2022.
