 Gaussian 09, Revision E.01,
 Gaussian 09:  ES64L-G09RevE.01 30-Nov-2015

 -----
 #P G4
 -----

 --------
 Frag_735
 --------
 Symbolic Z-matrix:
 Charge =  0 Multiplicity = 1

 SCF Done:  E(RB3LYP) =  -344.334901942     A.U. after   12 cycles
 SCF Done:  E(RB3LYP) =  -344.343494024     A.U. after   11 cycles
 SCF Done:  E(RB3LYP) =  -344.344532969     A.U. after   11 cycles
 SCF Done:  E(RB3LYP) =  -344.344778152     A.U. after   10 cycles
 SCF Done:  E(RB3LYP) =  -344.344792357     A.U. after   10 cycles
 SCF Done:  E(RB3LYP) =  -344.344850680     A.U. after   10 cycles
 SCF Done:  E(RB3LYP) =  -344.344854491     A.U. after    7 cycles
 SCF Done:  E(RB3LYP) =  -344.344855173     A.U. after    7 cycles
 SCF Done:  E(RB3LYP) =  -344.344855414     A.U. after    7 cycles
 Optimization completed.
    -- Stationary point found.
 Normal termination of Gaussian 09 at Fri Aug 26 06:10:35 2022.

 ----------------------------------------------------------
 #P Geom=AllCheck Guess=TCheck SCRF=Check B3LYP/GTBas3 Freq
 ----------------------------------------------------------

 Structure from the checkpoint file:  "G4.Frag_735.chk"
 --------
 Frag_735
 --------
 Charge =  0 Multiplicity = 1

 SCF Done:  E(RB3LYP) =  -344.344855414     A.U. after    1 cycles

  Exact polarizability:  68.554  -0.418  65.947  -0.566   0.180  58.374
 Approx polarizability:  90.771  -4.239  92.047  -1.188  -0.629  86.574

                      1                      2                      3
                      A                      A                      A
 Frequencies --    115.9229               205.2335               230.9132
 Red. masses --      2.9951                 1.0378                 1.2595
 Frc consts  --      0.0237                 0.0258                 0.0396
 IR Inten    --      0.7452                 2.6536                 2.9830

                      4                      5                      6
                      A                      A                      A
 Frequencies --    245.5470               258.3967               295.5290
 Red. masses --      1.2071                 1.1899                 2.7669
 Frc consts  --      0.0429                 0.0468                 0.1424
 IR Inten    --      9.7409                12.1428                 6.6800

                      7                      8                      9
                      A                      A                      A
 Frequencies --    309.9925               339.1778               377.5265
 Red. masses --      1.6380                 1.2067                 2.3250
 Frc consts  --      0.0927                 0.0818                 0.1952
 IR Inten    --      3.6281               108.3501                 1.0410

                     10                     11                     12
                      A                      A                      A
 Frequencies --    387.3158               398.4745               479.1855
 Red. masses --      2.6853                 2.1893                 2.5916
 Frc consts  --      0.2373                 0.2048                 0.3506
 IR Inten    --      2.5021                 1.8682                 6.7776

                     13                     14                     15
                      A                      A                      A
 Frequencies --    517.4472               576.2045               722.3863
 Red. masses --      3.1121                 3.2202                 4.0778
 Frc consts  --      0.4909                 0.6299                 1.2538
 IR Inten    --      2.6716                12.4776                 2.6278

                     16                     17                     18
                      A                      A                      A
 Frequencies --    821.7072               898.7258               926.6034
 Red. masses --      2.9520                 1.9385                 1.6978
 Frc consts  --      1.1744                 0.9225                 0.8589
 IR Inten    --     53.4724                66.3800                22.8189

                     19                     20                     21
                      A                      A                      A
 Frequencies --    936.8353               959.9995              1008.9084
 Red. masses --      1.6369                 1.8060                 1.4239
 Frc consts  --      0.8464                 0.9807                 0.8539
 IR Inten    --     24.1742                 1.2871                13.1100

                     22                     23                     24
                      A                      A                      A
 Frequencies --   1072.9406              1102.5446              1148.8864
 Red. masses --      1.8347                 2.1321                 1.3919
 Frc consts  --      1.2444                 1.5270                 1.0824
 IR Inten    --     13.8754                 3.0108                 4.9214

                     25                     26                     27
                      A                      A                      A
 Frequencies --   1197.6959              1225.0758              1264.3632
 Red. masses --      1.7858                 2.5833                 3.2529
 Frc consts  --      1.5093                 2.2843                 3.0638
 IR Inten    --      6.8560                43.5971                40.5019

                     28                     29                     30
                      A                      A                      A
 Frequencies --   1334.8433              1357.0547              1390.0260
 Red. masses --      1.7074                 1.2819                 1.3100
 Frc consts  --      1.7925                 1.3909                 1.4913
 IR Inten    --     31.3712                25.9997                11.2572

                     31                     32                     33
                      A                      A                      A
 Frequencies --   1409.5759              1436.9507              1478.3777
 Red. masses --      1.2656                 1.1792                 1.0565
 Frc consts  --      1.4815                 1.4346                 1.3605
 IR Inten    --      8.5924                 1.2604                 1.8775

                     34                     35                     36
                      A                      A                      A
 Frequencies --   1481.8186              1489.5023              1500.4947
 Red. masses --      1.0477                 1.0516                 1.0520
 Frc consts  --      1.3554                 1.3746                 1.3956
 IR Inten    --      3.6224                 2.3012                 0.6186

                     37                     38                     39
                      A                      A                      A
 Frequencies --   1505.2351              1517.8361              1636.0176
 Red. masses --      1.0494                 1.0587                 1.0980
 Frc consts  --      1.4009                 1.4371                 1.7315
 IR Inten    --      5.2600                 1.4633                36.8574

                     40                     41                     42
                      A                      A                      A
 Frequencies --   3030.7042              3036.2022              3047.5820
 Red. masses --      1.0377                 1.0361                 1.0369
 Frc consts  --      5.6159                 5.6274                 5.6741
 IR Inten    --     33.5166                19.4738                15.7902

                     43                     44                     45
                      A                      A                      A
 Frequencies --   3102.9940              3109.3215              3115.1666
 Red. masses --      1.1016                 1.0972                 1.0991
 Frc consts  --      6.2494                 6.2498                 6.2842
 IR Inten    --     14.3823                 8.9991                49.0474

                     46                     47                     48
                      A                      A                      A
 Frequencies --   3129.0489              3131.6754              3140.6161
 Red. masses --      1.1002                 1.1026                 1.1014
 Frc consts  --      6.3469                 6.3713                 6.4005
 IR Inten    --     11.7910                27.8805                17.1828

                     49                     50                     51
                      A                      A                      A
 Frequencies --   3490.9755              3572.7748              3810.9183
 Red. masses --      1.0485                 1.0922                 1.0682
 Frc consts  --      7.5284                 8.2144                 9.1407
 IR Inten    --      1.3622                 0.9023                38.6366

 - Thermochemistry -
 -------------------
 Temperature   298.150 Kelvin.  Pressure   1.00000 Atm.
 Atom     1 has atomic number  6 and mass  12.00000

 Molecular mass:   104.09496 amu.
 Principal axes and moments of inertia in atomic units:
                           1         2         3
     Eigenvalues --   558.93740 751.17296 914.37514
           X            0.99747   0.07045   0.00908
           Y           -0.07046   0.99751   0.00116
           Z           -0.00897  -0.00179   0.99996
 This molecule is an asymmetric top.
 Rotational symmetry number  1.
 Warning -- assumption of classical behavior for rotation
           may cause significant error
 Rotational temperatures (Kelvin)      0.15496     0.11530     0.09472
 Rotational constants (GHZ):           3.22888     2.40256     1.97374
 Zero-point vibrational energy     444288.6 (Joules/Mol)
                                  106.18752 (Kcal/Mol)
 Warning -- explicit consideration of  14 degrees of freedom as
           vibrations may cause significant error
 Vibrational temperatures:    166.79   295.28   332.23   353.29   371.77
          (Kelvin)            425.20   446.01   488.00   543.18   557.26
                              573.32   689.44   744.49   829.03  1039.35
                             1182.25  1293.06  1333.17  1347.90  1381.22
                             1451.59  1543.72  1586.31  1652.99  1723.22
                             1762.61  1819.13  1920.54  1952.50  1999.93
                             2028.06  2067.45  2127.05  2132.00  2143.06
                             2158.87  2165.69  2183.82  2353.86  4360.50
                             4368.41  4384.79  4464.51  4473.61  4482.02
                             4502.00  4505.78  4518.64  5022.73  5140.42
                             5483.05

 Zero-point correction=                           0.169221 (Hartree/Particle)
 Thermal correction to Energy=                    0.178184
 Thermal correction to Enthalpy=                  0.179128
 Thermal correction to Gibbs Free Energy=         0.137205
 Sum of electronic and zero-point Energies=           -344.175635
 Sum of electronic and thermal Energies=              -344.166671
 Sum of electronic and thermal Enthalpies=            -344.165727
 Sum of electronic and thermal Free Energies=         -344.207650

                     E (Thermal)             CV                S
                      KCal/Mol        Cal/Mol-Kelvin    Cal/Mol-Kelvin
 Total                  111.812             34.115             88.235
 Electronic               0.000              0.000              0.000
 Translational            0.889              2.981             39.838
 Rotational               0.889              2.981             27.442
 Vibrational            110.035             28.154             20.954
 Vibration     1          0.608              1.936              3.167
 Vibration     2          0.640              1.832              2.086
 Vibration     3          0.653              1.794              1.872
 Vibration     4          0.660              1.770              1.762
 Vibration     5          0.667              1.749              1.673
 Vibration     6          0.690              1.682              1.442
 Vibration     7          0.699              1.655              1.362
 Vibration     8          0.719              1.597              1.216
 Vibration     9          0.748              1.518              1.049
 Vibration    10          0.756              1.497              1.010
 Vibration    11          0.765              1.473              0.968
 Vibration    12          0.836              1.296              0.712
 Vibration    13          0.872              1.211              0.616
 Vibration    14          0.933              1.083              0.492

 Optimization completed.
    -- Stationary point found.
 Normal termination of Gaussian 09 at Fri Aug 26 06:11:35 2022.

 -----------------------------------------------------------------
 #P Geom=AllCheck Guess=TCheck SCRF=Check CCSD(T,E4T,FrzG4)/GTBas1
 -----------------------------------------------------------------

 Structure from the checkpoint file:  "G4.Frag_735.chk"
 --------
 Frag_735
 --------
 Charge =  0 Multiplicity = 1

 SCF Done:  E(RHF) =  -342.138237485     A.U. after   12 cycles
 E2 =    -0.1043783521D+01 EUMP2 =    -0.34318202100560D+03
 CCSD(T)
 CCSD(T)= -0.34328214153D+03
 81221\MP4SDQ=-343.2488174\CCSD=-343.2497872\CCSD(T)=-343.2821415\RMSD=
 Normal termination of Gaussian 09 at Fri Aug 26 06:16:49 2022.

 ---------------------------------------------------------
 #P Geom=AllCheck Guess=TCheck SCRF=Check MP4=FrzG4/GTBas2
 ---------------------------------------------------------

 Structure from the checkpoint file:  "G4.Frag_735.chk"
 --------
 Frag_735
 --------
 Charge =  0 Multiplicity = 1

 SCF Done:  E(RHF) =  -342.148223735     A.U. after   13 cycles
 E2 =    -0.1061046722D+01 EUMP2 =    -0.34320927045741D+03
 Normal termination of Gaussian 09 at Fri Aug 26 06:18:23 2022.

 ---------------------------------------------------------
 #P Geom=AllCheck Guess=TCheck SCRF=Check MP4=FrzG4/GTBas3
 ---------------------------------------------------------

 Structure from the checkpoint file:  "G4.Frag_735.chk"
 --------
 Frag_735
 --------
 Charge =  0 Multiplicity = 1

 SCF Done:  E(RHF) =  -342.184781373     A.U. after   11 cycles
 E2 =    -0.1293202080D+01 EUMP2 =    -0.34347798345290D+03
 Normal termination of Gaussian 09 at Fri Aug 26 06:32:08 2022.

 -----------------------------------------------------------
 #P Geom=AllCheck Guess=TCheck SCRF=Check MP2=Full/GTLargeXP
 -----------------------------------------------------------

 Structure from the checkpoint file:  "G4.Frag_735.chk"
 --------
 Frag_735
 --------
 Charge =  0 Multiplicity = 1

 SCF Done:  E(RHF) =  -342.270416712     A.U. after   12 cycles
 E2 =    -0.1687225242D+01 EUMP2 =    -0.34395764195389D+03
 Normal termination of Gaussian 09 at Fri Aug 26 06:36:41 2022.
 SCF Done:  E(RHF) =  -342.297338602     A.U. after    9 cycles
 Normal termination of Gaussian 09 at Fri Aug 26 06:41:30 2022.

                         Standard orientation:
 ---------------------------------------------------------------------
 Center     Atomic      Atomic             Coordinates (Angstroms)
 Number     Number       Type             X           Y           Z
 ---------------------------------------------------------------------
      1          6           0        1.660158    1.066775   -0.057581
      2          7           0        0.791012   -0.021563   -0.505559
      3          8           0        1.388619   -1.226348    0.042878
      4          6           0       -0.594186    0.033653    0.020247
      5          6           0       -1.246330    1.341568   -0.448524
      6          6           0       -1.359099   -1.161633   -0.579141
      7          7           0       -0.572517    0.023557    1.492058
      8          1           0        2.668543    0.857945   -0.420330
      9          1           0        1.676418    1.176639    1.033291
     10          1           0        1.322856    2.001770   -0.510777
     11          1           0        1.567589   -1.747470   -0.746668
     12          1           0       -0.836598    2.202367    0.082936
     13          1           0       -2.322315    1.307125   -0.250950
     14          1           0       -1.103127    1.477407   -1.523700
     15          1           0       -1.356845   -1.122755   -1.673354
     16          1           0       -0.904972   -2.103296   -0.264057
     17          1           0       -2.398605   -1.149755   -0.236318
     18          1           0       -0.193668   -0.867422    1.800918
     19          1           0       -1.520954    0.082090    1.850489
 ---------------------------------------------------------------------

 SCF Done:  E(RHF) =  -342.303236617     A.U. after    8 cycles

 The electronic state is 1-A.
 Alpha  occ. eigenvalues --  -20.57642 -15.60112 -15.53237 -11.29016 -11.23325
 Alpha  occ. eigenvalues --  -11.21508 -11.21067  -1.39456  -1.20270  -1.10736
 Alpha  occ. eigenvalues --   -1.00916  -0.93837  -0.88895  -0.75380  -0.69688
 Alpha  occ. eigenvalues --   -0.67497  -0.63136  -0.60944  -0.60538  -0.57153
 Alpha  occ. eigenvalues --   -0.55632  -0.54199  -0.53514  -0.51661  -0.50814
 Alpha  occ. eigenvalues --   -0.47912  -0.46322  -0.39492  -0.38339
 Alpha virt. eigenvalues --    0.03214   0.04084   0.04519   0.05205   0.06471
 Alpha virt. eigenvalues --    0.06731   0.07056   0.07347   0.07764   0.09519
 Alpha virt. eigenvalues --    0.09720   0.10063   0.10814   0.11435   0.12559

 Mulliken charges:
               1
     1  C   -0.481244
     2  N   -0.029599
     3  O   -0.597232
     4  C    0.536427
     5  C   -0.621143
     6  C   -0.613918
     7  N   -0.796914
     8  H    0.169205
     9  H    0.197403
    10  H    0.169778
    11  H    0.400723
    12  H    0.185217
    13  H    0.172432
    14  H    0.184583
    15  H    0.177182
    16  H    0.180386
    17  H    0.162214
    18  H    0.316632
    19  H    0.287868
 Sum of Mulliken charges =  -0.00000

 Dipole moment (field-independent basis, Debye):
    X=             -1.1307    Y=             -0.3880    Z=             -0.8518  Tot=              1.4679
 Quadrupole moment (field-independent basis, Debye-Ang):
   XX=            -43.0736   YY=            -43.0570   ZZ=            -46.4093
   XY=             -0.0808   XZ=             -3.1270   YZ=              0.0872

 Normal termination of Gaussian 09 at Fri Aug 26 06:56:05 2022.
