 Gaussian 09, Revision E.01,
 Gaussian 09:  ES64L-G09RevE.01 30-Nov-2015

 -----
 #P G4
 -----

 ---------
 Frag_1104
 ---------
 Symbolic Z-matrix:
 Charge =  0 Multiplicity = 1

 SCF Done:  E(RB3LYP) =  -207.902255172     A.U. after   14 cycles
 SCF Done:  E(RB3LYP) =  -207.915306507     A.U. after   13 cycles
 SCF Done:  E(RB3LYP) =  -207.916514538     A.U. after   13 cycles
 SCF Done:  E(RB3LYP) =  -207.916653050     A.U. after    9 cycles
 SCF Done:  E(RB3LYP) =  -207.916641664     A.U. after    9 cycles
 SCF Done:  E(RB3LYP) =  -207.916644006     A.U. after    9 cycles
 SCF Done:  E(RB3LYP) =  -207.916660599     A.U. after    8 cycles
 Optimization completed.
    -- Stationary point found.
 Normal termination of Gaussian 09 at Sun Aug 21 18:45:26 2022.

 ----------------------------------------------------------
 #P Geom=AllCheck Guess=TCheck SCRF=Check B3LYP/GTBas3 Freq
 ----------------------------------------------------------

 Structure from the checkpoint file:  "G4.Frag_1104.chk"
 ---------
 Frag_1104
 ---------
 Charge =  0 Multiplicity = 1

 SCF Done:  E(RB3LYP) =  -207.916660599     A.U. after    1 cycles

  Exact polarizability:  56.730  -0.000  21.133  -0.000   0.000  21.132
 Approx polarizability: 113.832  -0.000  29.344   0.001  -0.000  29.343

                      1                      2                      3
                      A                      A                      A
 Frequencies --    137.4913               137.9476               516.4869
 Red. masses --      4.1141                 4.1151                13.5437
 Frc consts  --      0.0458                 0.0461                 2.1287
 IR Inten    --      1.1585                 1.1572                 4.4684

                      4                      5                      6
                      A                      A                      A
 Frequencies --    516.4929               800.4142              1049.0749
 Red. masses --     13.5433                 5.1513                 1.3155
 Frc consts  --      2.1287                 1.9445                 0.8530
 IR Inten    --      4.4688                19.4915                 1.2660

                      7                      8                      9
                      A                      A                      A
 Frequencies --   1049.0847              1404.5480              1435.7978
 Red. masses --      1.3157                 1.5883                 3.4203
 Frc consts  --      0.8531                 1.8461                 4.1543
 IR Inten    --      1.2688               103.3848                77.3616

                     10                     11                     12
                      A                      A                      A
 Frequencies --   1474.9463              1475.1787              2484.0551
 Red. masses --      1.0389                 1.0389                12.7543
 Frc consts  --      1.3316                 1.3320                46.3693
 IR Inten    --      7.3650                 7.3652               379.4146

                     13                     14                     15
                      A                      A                      A
 Frequencies --   3033.0878              3100.3978              3100.4267
 Red. masses --      1.0333                 1.1015                 1.1015
 Frc consts  --      5.6006                 6.2382                 6.2384
 IR Inten    --     18.3188                 4.4535                 4.4514

 - Thermochemistry -
 -------------------
 Temperature   298.150 Kelvin.  Pressure   1.00000 Atm.
 Atom     1 has atomic number  6 and mass  12.00000

 Molecular mass:    57.02146 amu.
 Principal axes and moments of inertia in atomic units:
                           1         2         3
     Eigenvalues --    11.30900 461.01216 461.01277
           X            1.00000  -0.00000   0.00000
           Y            0.00000   1.00000   0.00011
           Z           -0.00000  -0.00011   1.00000
 This molecule is an asymmetric top.
 Rotational symmetry number  1.
 Rotational temperatures (Kelvin)      7.65884     0.18788     0.18788
 Rotational constants (GHZ):         159.58451     3.91474     3.91473
 Zero-point vibrational energy     129887.1 (Joules/Mol)
                                   31.04377 (Kcal/Mol)
 Warning -- explicit consideration of   4 degrees of freedom as
           vibrations may cause significant error
 Vibrational temperatures:    197.82   198.48   743.11   743.12  1151.62
          (Kelvin)           1509.38  1509.40  2020.83  2065.79  2122.12
                             2122.45  3574.00  4363.93  4460.78  4460.82

 Zero-point correction=                           0.049471 (Hartree/Particle)
 Thermal correction to Energy=                    0.054222
 Thermal correction to Enthalpy=                  0.055166
 Thermal correction to Gibbs Free Energy=         0.022966
 Sum of electronic and zero-point Energies=           -207.867189
 Sum of electronic and thermal Energies=              -207.862439
 Sum of electronic and thermal Enthalpies=            -207.861494
 Sum of electronic and thermal Free Energies=         -207.893695

                     E (Thermal)             CV                S
                      KCal/Mol        Cal/Mol-Kelvin    Cal/Mol-Kelvin
 Total                   34.025             13.886             67.772
 Electronic               0.000              0.000              0.000
 Translational            0.889              2.981             38.044
 Rotational               0.889              2.981             22.401
 Vibrational             32.247              7.925              7.327
 Vibration     1          0.614              1.916              2.838
 Vibration     2          0.614              1.915              2.832
 Vibration     3          0.872              1.213              0.618
 Vibration     4          0.872              1.213              0.618

 Optimization completed.
    -- Stationary point found.
 Normal termination of Gaussian 09 at Sun Aug 21 18:45:47 2022.

 -----------------------------------------------------------------
 #P Geom=AllCheck Guess=TCheck SCRF=Check CCSD(T,E4T,FrzG4)/GTBas1
 -----------------------------------------------------------------

 Structure from the checkpoint file:  "G4.Frag_1104.chk"
 ---------
 Frag_1104
 ---------
 Charge =  0 Multiplicity = 1

 SCF Done:  E(RHF) =  -206.677042937     A.U. after   12 cycles
 E2 =    -0.6113391399D+00 EUMP2 =    -0.20728838207691D+03
 CCSD(T)
 CCSD(T)= -0.20732335780D+03
 207.2975905\CCSD(T)=-207.3233578\RMSD=2.820e-09\PG=C01 [X(C2H3N1O1)]\\
 Normal termination of Gaussian 09 at Sun Aug 21 18:46:08 2022.

 ---------------------------------------------------------
 #P Geom=AllCheck Guess=TCheck SCRF=Check MP4=FrzG4/GTBas2
 ---------------------------------------------------------

 Structure from the checkpoint file:  "G4.Frag_1104.chk"
 ---------
 Frag_1104
 ---------
 Charge =  0 Multiplicity = 1

 SCF Done:  E(RHF) =  -206.683608589     A.U. after   11 cycles
 E2 =    -0.6179391214D+00 EUMP2 =    -0.20730154771015D+03
 Normal termination of Gaussian 09 at Sun Aug 21 18:46:15 2022.

 ---------------------------------------------------------
 #P Geom=AllCheck Guess=TCheck SCRF=Check MP4=FrzG4/GTBas3
 ---------------------------------------------------------

 Structure from the checkpoint file:  "G4.Frag_1104.chk"
 ---------
 Frag_1104
 ---------
 Charge =  0 Multiplicity = 1

 SCF Done:  E(RHF) =  -206.700877787     A.U. after   10 cycles
 E2 =    -0.7324079389D+00 EUMP2 =    -0.20743328572637D+03
 Normal termination of Gaussian 09 at Sun Aug 21 18:47:37 2022.

 -----------------------------------------------------------
 #P Geom=AllCheck Guess=TCheck SCRF=Check MP2=Full/GTLargeXP
 -----------------------------------------------------------

 Structure from the checkpoint file:  "G4.Frag_1104.chk"
 ---------
 Frag_1104
 ---------
 Charge =  0 Multiplicity = 1

 SCF Done:  E(RHF) =  -206.754507370     A.U. after   10 cycles
 E2 =    -0.9548305067D+00 EUMP2 =    -0.20770933787676D+03
 Normal termination of Gaussian 09 at Sun Aug 21 18:48:06 2022.
 SCF Done:  E(RHF) =  -206.771233691     A.U. after    8 cycles
 Normal termination of Gaussian 09 at Sun Aug 21 18:48:58 2022.

                         Standard orientation:
 ---------------------------------------------------------------------
 Center     Atomic      Atomic             Coordinates (Angstroms)
 Number     Number       Type             X           Y           Z
 ---------------------------------------------------------------------
      1          6           0        1.883855   -0.000005    0.000015
      2          6           0        0.426360    0.000001   -0.000002
      3          7           0       -0.733471    0.000026   -0.000071
      4          8           0       -1.943160   -0.000019    0.000041
      5          1           0        2.272837   -0.456234   -0.916068
      6          1           0        2.272753   -0.565292    0.853166
      7          1           0        2.272694    1.021522    0.062991
 ---------------------------------------------------------------------

 SCF Done:  E(RHF) =  -206.774502951     A.U. after    8 cycles

 The electronic state is 1-A.
 Alpha  occ. eigenvalues --  -20.55733 -15.73035 -11.30802 -11.29710  -1.48246
 Alpha  occ. eigenvalues --   -1.21509  -1.04498  -0.73163  -0.68516  -0.67305
 Alpha  occ. eigenvalues --   -0.67305  -0.61150  -0.61149  -0.38387  -0.38387
 Alpha virt. eigenvalues --    0.02273   0.04843   0.04843   0.05161   0.07250
 Alpha virt. eigenvalues --    0.07250   0.07909   0.12079   0.13148   0.15184
 Alpha virt. eigenvalues --    0.15184   0.16496   0.16496   0.17322   0.18582

 Mulliken charges:
               1
     1  C   -0.514387
     2  C    0.234695
     3  N    0.172450
     4  O   -0.538291
     5  H    0.215175
     6  H    0.215177
     7  H    0.215181
 Sum of Mulliken charges =  -0.00000

 Dipole moment (field-independent basis, Debye):
    X=              5.5552    Y=              0.0000    Z=             -0.0001  Tot=              5.5552
 Quadrupole moment (field-independent basis, Debye-Ang):
   XX=            -25.7518   YY=            -22.7822   ZZ=            -22.7825
   XY=             -0.0003   XZ=              0.0002   YZ=             -0.0000

 Normal termination of Gaussian 09 at Sun Aug 21 19:15:31 2022.
