 Gaussian 09, Revision E.01,
 Gaussian 09:  ES64L-G09RevE.01 30-Nov-2015

 -----
 #P G4
 -----

 --------
 Frag_646
 --------
 Symbolic Z-matrix:
 Charge =  0 Multiplicity = 1

 SCF Done:  E(RB3LYP) =  -283.984533283     A.U. after   14 cycles
 SCF Done:  E(RB3LYP) =  -283.998895592     A.U. after   11 cycles
 SCF Done:  E(RB3LYP) =  -283.999681482     A.U. after   11 cycles
 SCF Done:  E(RB3LYP) =  -284.000240903     A.U. after   12 cycles
 SCF Done:  E(RB3LYP) =  -283.998733911     A.U. after   14 cycles
 SCF Done:  E(RB3LYP) =  -284.001464100     A.U. after   11 cycles
 SCF Done:  E(RB3LYP) =  -284.002529792     A.U. after   11 cycles
 SCF Done:  E(RB3LYP) =  -284.003715216     A.U. after   12 cycles
 SCF Done:  E(RB3LYP) =  -284.004603160     A.U. after   12 cycles
 SCF Done:  E(RB3LYP) =  -284.004901460     A.U. after   10 cycles
 SCF Done:  E(RB3LYP) =  -284.008229253     A.U. after   10 cycles
 SCF Done:  E(RB3LYP) =  -284.008229825     A.U. after    8 cycles
 SCF Done:  E(RB3LYP) =  -284.008229900     A.U. after    7 cycles
 Optimization completed.
    -- Stationary point found.
 Normal termination of Gaussian 09 at Thu Aug 25 11:16:34 2022.

 ----------------------------------------------------------
 #P Geom=AllCheck Guess=TCheck SCRF=Check B3LYP/GTBas3 Freq
 ----------------------------------------------------------

 Structure from the checkpoint file:  "G4.Frag_646.chk"
 --------
 Frag_646
 --------
 Charge =  0 Multiplicity = 1

 SCF Done:  E(RB3LYP) =  -284.008229900     A.U. after    1 cycles

  Exact polarizability:  58.754   0.081  58.458   1.639  -5.444  45.247
 Approx polarizability:  77.035   1.572  87.906   2.030 -14.396  70.234

                      1                      2                      3
                      A                      A                      A
 Frequencies --     63.8102               209.6544               229.1158
 Red. masses --      3.5750                 1.1173                 1.0814
 Frc consts  --      0.0086                 0.0289                 0.0334
 IR Inten    --      6.4938                36.0755                 1.7818

                      4                      5                      6
                      A                      A                      A
 Frequencies --    250.3457               310.1819               372.0706
 Red. masses --      2.5527                 2.7529                 2.5185
 Frc consts  --      0.0943                 0.1561                 0.2054
 IR Inten    --      5.0863                11.0040                29.4182

                      7                      8                      9
                      A                      A                      A
 Frequencies --    405.2253               457.0573               477.1364
 Red. masses --      1.1991                 1.2041                 2.5233
 Frc consts  --      0.1160                 0.1482                 0.3385
 IR Inten    --     94.8587               121.5735                 5.8422

                     10                     11                     12
                      A                      A                      A
 Frequencies --    604.5092               696.0717               776.1936
 Red. masses --      2.9908                 2.9997                 2.4565
 Frc consts  --      0.6439                 0.8563                 0.8720
 IR Inten    --     18.4499                 4.5051                 8.0886

                     13                     14                     15
                      A                      A                      A
 Frequencies --    866.0861               922.7319               949.7358
 Red. masses --      1.3856                 2.0032                 1.6315
 Frc consts  --      0.6124                 1.0049                 0.8670
 IR Inten    --     61.9859                 1.1517               145.2088

                     16                     17                     18
                      A                      A                      A
 Frequencies --   1023.4267              1082.3626              1096.6171
 Red. masses --      1.4127                 1.3090                 2.1532
 Frc consts  --      0.8718                 0.9035                 1.5256
 IR Inten    --      2.6316                57.6032                32.0863

                     19                     20                     21
                      A                      A                      A
 Frequencies --   1132.6929              1172.1881              1272.9396
 Red. masses --      1.4769                 1.9903                 1.6277
 Frc consts  --      1.1164                 1.6113                 1.5540
 IR Inten    --     21.3781                 5.0427                24.0469

                     22                     23                     24
                      A                      A                      A
 Frequencies --   1310.0093              1391.4159              1402.4943
 Red. masses --      1.4052                 1.6902                 1.2790
 Frc consts  --      1.4208                 1.9280                 1.4822
 IR Inten    --     20.5792                63.5741                19.4238

                     25                     26                     27
                      A                      A                      A
 Frequencies --   1435.7136              1485.5216              1498.8091
 Red. masses --      1.5389                 1.0509                 1.0628
 Frc consts  --      1.8689                 1.3664                 1.4066
 IR Inten    --     17.5208                 2.7175                 5.5491

                     28                     29                     30
                      A                      A                      A
 Frequencies --   1642.7533              1678.9001              1727.9355
 Red. masses --      1.1724                 1.0893                 6.7963
 Frc consts  --      1.8641                 1.8090                11.9558
 IR Inten    --     53.0044                12.9364               174.5457

                     31                     32                     33
                      A                      A                      A
 Frequencies --   3019.7633              3038.1281              3105.6035
 Red. masses --      1.0834                 1.0353                 1.1009
 Frc consts  --      5.8210                 5.6300                 6.2560
 IR Inten    --     27.2536                19.7903                31.0946

                     34                     35                     36
                      A                      A                      A
 Frequencies --   3129.2849              3445.1973              3471.0462
 Red. masses --      1.1018                 1.0745                 1.0507
 Frc consts  --      6.3566                 7.5142                 7.4582
 IR Inten    --     19.1420                 9.2505                 2.2152

                     37                     38                     39
                      A                      A                      A
 Frequencies --   3537.1196              3571.6745              3682.7780
 Red. masses --      1.0888                 1.0462                 1.1003
 Frc consts  --      8.0261                 7.8633                 8.7925
 IR Inten    --      2.4603                12.8148                13.3983

 - Thermochemistry -
 -------------------
 Temperature   298.150 Kelvin.  Pressure   1.00000 Atm.
 Atom     1 has atomic number  6 and mass  12.00000

 Molecular mass:    87.07965 amu.
 Principal axes and moments of inertia in atomic units:
                           1         2         3
     Eigenvalues --   371.47198 606.39648 796.32131
           X            0.99996  -0.00638  -0.00569
           Y            0.00649   0.99977   0.02048
           Z            0.00556  -0.02052   0.99977
 This molecule is an asymmetric top.
 Rotational symmetry number  1.
 Rotational temperatures (Kelvin)      0.23316     0.14283     0.10877
 Rotational constants (GHZ):           4.85835     2.97617     2.26635
 Zero-point vibrational energy     346583.9 (Joules/Mol)
                                   82.83554 (Kcal/Mol)
 Warning -- explicit consideration of  10 degrees of freedom as
           vibrations may cause significant error
 Vibrational temperatures:     91.81   301.65   329.65   360.19   446.28
          (Kelvin)            535.33   583.03   657.60   686.49   869.75
                             1001.49  1116.77  1246.10  1327.60  1366.46
                             1472.48  1557.28  1577.79  1629.69  1686.52
                             1831.47  1884.81  2001.93  2017.87  2065.67
                             2137.33  2156.45  2363.55  2415.56  2486.11
                             4344.76  4371.18  4468.27  4502.34  4956.86
                             4994.06  5089.12  5138.84  5298.69

 Zero-point correction=                           0.132007 (Hartree/Particle)
 Thermal correction to Energy=                    0.139444
 Thermal correction to Enthalpy=                  0.140388
 Thermal correction to Gibbs Free Energy=         0.101092
 Sum of electronic and zero-point Energies=           -283.876223
 Sum of electronic and thermal Energies=              -283.868786
 Sum of electronic and thermal Enthalpies=            -283.867842
 Sum of electronic and thermal Free Energies=         -283.907138

                     E (Thermal)             CV                S
                      KCal/Mol        Cal/Mol-Kelvin    Cal/Mol-Kelvin
 Total                   87.502             26.902             82.705
 Electronic               0.000              0.000              0.000
 Translational            0.889              2.981             39.306
 Rotational               0.889              2.981             26.686
 Vibrational             85.725             20.941             16.713
 Vibration     1          0.597              1.972              4.336
 Vibration     2          0.642              1.826              2.047
 Vibration     3          0.652              1.797              1.886
 Vibration     4          0.663              1.762              1.728
 Vibration     5          0.699              1.654              1.361
 Vibration     6          0.744              1.530              1.071
 Vibration     7          0.770              1.459              0.944
 Vibration     8          0.815              1.345              0.775
 Vibration     9          0.834              1.301              0.718
 Vibration    10          0.963              1.022              0.442

 Optimization completed.
    -- Stationary point found.
 Normal termination of Gaussian 09 at Thu Aug 25 11:19:21 2022.

 -----------------------------------------------------------------
 #P Geom=AllCheck Guess=TCheck SCRF=Check CCSD(T,E4T,FrzG4)/GTBas1
 -----------------------------------------------------------------

 Structure from the checkpoint file:  "G4.Frag_646.chk"
 --------
 Frag_646
 --------
 Charge =  0 Multiplicity = 1

 SCF Done:  E(RHF) =  -282.172713176     A.U. after   13 cycles
 E2 =    -0.8780121391D+00 EUMP2 =    -0.28305072531465D+03
 CCSD(T)
 CCSD(T)= -0.28313201699D+03
 -283.1033705\CCSD(T)=-283.132017\RMSD=3.627e-09\PG=C01 [X(C3H9N3)]\\@
 Normal termination of Gaussian 09 at Thu Aug 25 11:25:43 2022.

 ---------------------------------------------------------
 #P Geom=AllCheck Guess=TCheck SCRF=Check MP4=FrzG4/GTBas2
 ---------------------------------------------------------

 Structure from the checkpoint file:  "G4.Frag_646.chk"
 --------
 Frag_646
 --------
 Charge =  0 Multiplicity = 1

 SCF Done:  E(RHF) =  -282.182927676     A.U. after   12 cycles
 E2 =    -0.8919147356D+00 EUMP2 =    -0.28307484241185D+03
 Normal termination of Gaussian 09 at Thu Aug 25 11:32:18 2022.

 ---------------------------------------------------------
 #P Geom=AllCheck Guess=TCheck SCRF=Check MP4=FrzG4/GTBas3
 ---------------------------------------------------------

 Structure from the checkpoint file:  "G4.Frag_646.chk"
 --------
 Frag_646
 --------
 Charge =  0 Multiplicity = 1

 SCF Done:  E(RHF) =  -282.214999560     A.U. after   11 cycles
 E2 =    -0.1072686116D+01 EUMP2 =    -0.28328768567600D+03
 Normal termination of Gaussian 09 at Thu Aug 25 14:49:22 2022.

 -----------------------------------------------------------
 #P Geom=AllCheck Guess=TCheck SCRF=Check MP2=Full/GTLargeXP
 -----------------------------------------------------------

 Structure from the checkpoint file:  "G4.Frag_646.chk"
 --------
 Frag_646
 --------
 Charge =  0 Multiplicity = 1

 SCF Done:  E(RHF) =  -282.287079305     A.U. after   12 cycles
 E2 =    -0.1404576807D+01 EUMP2 =    -0.28369165611113D+03
 Normal termination of Gaussian 09 at Thu Aug 25 14:55:43 2022.
 SCF Done:  E(RHF) =  -282.308855845     A.U. after    8 cycles
 Normal termination of Gaussian 09 at Thu Aug 25 15:01:30 2022.

                         Standard orientation:
 ---------------------------------------------------------------------
 Center     Atomic      Atomic             Coordinates (Angstroms)
 Number     Number       Type             X           Y           Z
 ---------------------------------------------------------------------
      1          6           0       -1.223331    1.216594    0.603439
      2          6           0       -0.671276    0.178243   -0.388345
      3          7           0       -1.566488   -0.973296   -0.424868
      4          6           0        0.776330   -0.168750   -0.014517
      5          7           0        1.006349   -1.239169    0.642461
      6          7           0        1.717716    0.738109   -0.464760
      7          1           0       -2.237454    1.499950    0.313147
      8          1           0       -0.602449    2.117506    0.644480
      9          1           0       -1.258874    0.787776    1.610223
     10          1           0       -0.660319    0.626726   -1.390789
     11          1           0       -1.388975   -1.512454    0.421813
     12          1           0       -1.266747   -1.592461   -1.174284
     13          1           0        1.999290   -1.349095    0.857527
     14          1           0        1.398439    1.655442   -0.734438
     15          1           0        2.623716    0.730584   -0.020966
 ---------------------------------------------------------------------

 SCF Done:  E(RHF) =  -282.313522239     A.U. after    8 cycles

 The electronic state is 1-A.
 Alpha  occ. eigenvalues --  -15.58175 -15.53126 -15.52194 -11.31362 -11.26645
 Alpha  occ. eigenvalues --  -11.22039  -1.26824  -1.18017  -1.13804  -0.99985
 Alpha  occ. eigenvalues --   -0.87503  -0.76389  -0.71251  -0.70258  -0.65097
 Alpha  occ. eigenvalues --   -0.60988  -0.57542  -0.55672  -0.52369  -0.50775
 Alpha  occ. eigenvalues --   -0.48278  -0.42791  -0.39929  -0.37489
 Alpha virt. eigenvalues --    0.02937   0.04327   0.04545   0.05139   0.07197
 Alpha virt. eigenvalues --    0.07288   0.07350   0.07867   0.08133   0.10272
 Alpha virt. eigenvalues --    0.11821   0.11951   0.12306   0.13047   0.13130

 Mulliken charges:
               1
     1  C   -0.522492
     2  C    0.061416
     3  N   -0.684660
     4  C    0.392543
     5  N   -0.695587
     6  N   -0.712053
     7  H    0.186932
     8  H    0.146333
     9  H    0.177531
    10  H    0.184474
    11  H    0.306673
    12  H    0.279892
    13  H    0.249339
    14  H    0.319221
    15  H    0.310438
 Sum of Mulliken charges =  -0.00000

 Dipole moment (field-independent basis, Debye):
    X=              2.3879    Y=              2.6885    Z=             -0.5191  Tot=              3.6331
 Quadrupole moment (field-independent basis, Debye-Ang):
   XX=            -37.3720   YY=            -37.2913   ZZ=            -38.9588
   XY=              1.6671   XZ=              0.6029   YZ=              0.5363

 Normal termination of Gaussian 09 at Thu Aug 25 17:55:32 2022.
