 Gaussian 09, Revision E.01,
 Gaussian 09:  ES64L-G09RevE.01 30-Nov-2015

 -----
 #P G4
 -----

 --------
 Frag_621
 --------
 Symbolic Z-matrix:
 Charge =  0 Multiplicity = 1

 SCF Done:  E(RB3LYP) =  -265.767733698     A.U. after   12 cycles
 SCF Done:  E(RB3LYP) =  -265.773220752     A.U. after   11 cycles
 SCF Done:  E(RB3LYP) =  -265.773506591     A.U. after   10 cycles
 SCF Done:  E(RB3LYP) =  -265.773575841     A.U. after    9 cycles
 SCF Done:  E(RB3LYP) =  -265.773591389     A.U. after    9 cycles
 SCF Done:  E(RB3LYP) =  -265.773593534     A.U. after    7 cycles
 SCF Done:  E(RB3LYP) =  -265.773594542     A.U. after    7 cycles
 SCF Done:  E(RB3LYP) =  -265.773595074     A.U. after    7 cycles
 SCF Done:  E(RB3LYP) =  -265.773595731     A.U. after    7 cycles
 SCF Done:  E(RB3LYP) =  -265.773596567     A.U. after    7 cycles
 SCF Done:  E(RB3LYP) =  -265.773600378     A.U. after    7 cycles
 SCF Done:  E(RB3LYP) =  -265.773600443     A.U. after    7 cycles
 SCF Done:  E(RB3LYP) =  -265.773600409     A.U. after    6 cycles
 Optimization completed.
    -- Stationary point found.
 Normal termination of Gaussian 09 at Sat Aug 20 08:25:20 2022.

 ----------------------------------------------------------
 #P Geom=AllCheck Guess=TCheck SCRF=Check B3LYP/GTBas3 Freq
 ----------------------------------------------------------

 Structure from the checkpoint file:  "G4.Frag_621.chk"
 --------
 Frag_621
 --------
 Charge =  0 Multiplicity = 1

 SCF Done:  E(RB3LYP) =  -265.773600409     A.U. after    1 cycles

  Exact polarizability:  41.928  -1.083  43.787  -1.982   0.850  40.045
 Approx polarizability:  55.767  -1.816  60.318  -3.661   1.331  57.624

                      1                      2                      3
                      A                      A                      A
 Frequencies --     98.7697               251.6116               265.1137
 Red. masses --      1.0835                 1.0339                 1.0948
 Frc consts  --      0.0062                 0.0386                 0.0453
 IR Inten    --     40.2896                 2.8383                28.5865

                      4                      5                      6
                      A                      A                      A
 Frequencies --    319.5965               359.7577               394.9930
 Red. masses --      1.1373                 2.4025                 2.3766
 Frc consts  --      0.0684                 0.1832                 0.2185
 IR Inten    --     66.4011                27.5688                 3.9901

                      7                      8                      9
                      A                      A                      A
 Frequencies --    481.9054               497.3800               530.4656
 Red. masses --      2.6277                 2.7028                 3.6214
 Frc consts  --      0.3595                 0.3939                 0.6004
 IR Inten    --     15.2101                20.8720                 2.4338

                     10                     11                     12
                      A                      A                      A
 Frequencies --    786.9682               866.7274               905.6478
 Red. masses --      4.5184                 1.7997                 1.5311
 Frc consts  --      1.6487                 0.7966                 0.7399
 IR Inten    --     17.9562               128.1891               173.6861

                     13                     14                     15
                      A                      A                      A
 Frequencies --    935.4642               989.0114              1014.7401
 Red. masses --      1.8225                 1.7204                 1.6005
 Frc consts  --      0.9397                 0.9915                 0.9710
 IR Inten    --     35.5867                30.8478                37.5504

                     16                     17                     18
                      A                      A                      A
 Frequencies --   1079.8679              1169.7990              1252.0304
 Red. masses --      1.5865                 1.3714                 1.9351
 Frc consts  --      1.0900                 1.1057                 1.7872
 IR Inten    --     56.8207                11.2880               145.9054

                     19                     20                     21
                      A                      A                      A
 Frequencies --   1341.5415              1398.0600              1415.4573
 Red. masses --      1.7682                 1.3891                 1.7587
 Frc consts  --      1.8749                 1.5997                 2.0760
 IR Inten    --     33.5182                13.7011                71.3876

                     22                     23                     24
                      A                      A                      A
 Frequencies --   1483.1801              1496.7364              1640.4090
 Red. masses --      1.0557                 1.0966                 1.1127
 Frc consts  --      1.3683                 1.4475                 1.7642
 IR Inten    --      0.0957                 5.1020                34.8081

                     25                     26                     27
                      A                      A                      A
 Frequencies --   1651.9115              3030.2975              3098.4381
 Red. masses --      1.1075                 1.0366                 1.1003
 Frc consts  --      1.7806                 5.6085                 6.2238
 IR Inten    --     28.2045                15.8169                30.8441

                     28                     29                     30
                      A                      A                      A
 Frequencies --   3122.4065              3486.6467              3497.5646
 Red. masses --      1.1017                 1.0491                 1.0489
 Frc consts  --      6.3283                 7.5142                 7.5602
 IR Inten    --     21.6550                 0.7254                 1.1936

                     31                     32                     33
                      A                      A                      A
 Frequencies --   3571.3978              3580.2795              3798.0823
 Red. masses --      1.0920                 1.0917                 1.0656
 Frc consts  --      8.2065                 8.2452                 9.0571
 IR Inten    --      0.3647                 2.0382                 5.3792

 - Thermochemistry -
 -------------------
 Temperature   298.150 Kelvin.  Pressure   1.00000 Atm.
 Atom     1 has atomic number  6 and mass  12.00000

 Molecular mass:    76.06366 amu.
 Principal axes and moments of inertia in atomic units:
                           1         2         3
     Eigenvalues --   357.40989 373.41073 375.13003
           X            0.97265  -0.22677   0.05033
           Y            0.22120   0.97036   0.09731
           Z           -0.07091  -0.08352   0.99398
 This molecule is an asymmetric top.
 Rotational symmetry number  1.
 Rotational temperatures (Kelvin)      0.24234     0.23195     0.23089
 Rotational constants (GHZ):           5.04950     4.83313     4.81097
 Zero-point vibrational energy     297943.5 (Joules/Mol)
                                   71.21020 (Kcal/Mol)
 Warning -- explicit consideration of   9 degrees of freedom as
           vibrations may cause significant error
 Vibrational temperatures:    142.11   362.01   381.44   459.83   517.61
          (Kelvin)            568.31   693.35   715.62   763.22  1132.27
                             1247.03  1303.02  1345.92  1422.97  1459.98
                             1553.69  1683.08  1801.39  1930.18  2011.49
                             2036.52  2133.96  2153.47  2360.18  2376.73
                             4359.92  4457.96  4492.44  5016.50  5032.21
                             5138.44  5151.22  5464.59

 Zero-point correction=                           0.113481 (Hartree/Particle)
 Thermal correction to Energy=                    0.120143
 Thermal correction to Enthalpy=                  0.121087
 Thermal correction to Gibbs Free Energy=         0.084225
 Sum of electronic and zero-point Energies=           -265.660120
 Sum of electronic and thermal Energies=              -265.653457
 Sum of electronic and thermal Enthalpies=            -265.652513
 Sum of electronic and thermal Free Energies=         -265.689375

                     E (Thermal)             CV                S
                      KCal/Mol        Cal/Mol-Kelvin    Cal/Mol-Kelvin
 Total                   75.391             24.002             77.583
 Electronic               0.000              0.000              0.000
 Translational            0.889              2.981             38.903
 Rotational               0.889              2.981             25.418
 Vibrational             73.614             18.041             13.262
 Vibration     1          0.604              1.950              3.478
 Vibration     2          0.664              1.760              1.719
 Vibration     3          0.671              1.737              1.628
 Vibration     4          0.706              1.636              1.312
 Vibration     5          0.734              1.555              1.123
 Vibration     6          0.762              1.481              0.981
 Vibration     7          0.838              1.290              0.705
 Vibration     8          0.853              1.256              0.665
 Vibration     9          0.885              1.183              0.586

 Optimization completed.
    -- Stationary point found.
 Normal termination of Gaussian 09 at Sat Aug 20 08:27:03 2022.

 -----------------------------------------------------------------
 #P Geom=AllCheck Guess=TCheck SCRF=Check CCSD(T,E4T,FrzG4)/GTBas1
 -----------------------------------------------------------------

 Structure from the checkpoint file:  "G4.Frag_621.chk"
 --------
 Frag_621
 --------
 Charge =  0 Multiplicity = 1

 SCF Done:  E(RHF) =  -264.137991371     A.U. after   12 cycles
 E2 =    -0.7723473016D+00 EUMP2 =    -0.26491033867214D+03
 CCSD(T)
 CCSD(T)= -0.26497577441D+03
 \MP4SDTQ=-264.9752995\MP4SDQ=-264.9544264\CCSD=-264.9550195\CCSD(T)=-2
 Normal termination of Gaussian 09 at Sat Aug 20 08:29:35 2022.

 ---------------------------------------------------------
 #P Geom=AllCheck Guess=TCheck SCRF=Check MP4=FrzG4/GTBas2
 ---------------------------------------------------------

 Structure from the checkpoint file:  "G4.Frag_621.chk"
 --------
 Frag_621
 --------
 Charge =  0 Multiplicity = 1

 SCF Done:  E(RHF) =  -264.149676260     A.U. after   11 cycles
 E2 =    -0.7869264818D+00 EUMP2 =    -0.26493660274171D+03
 Normal termination of Gaussian 09 at Sat Aug 20 08:33:09 2022.

 ---------------------------------------------------------
 #P Geom=AllCheck Guess=TCheck SCRF=Check MP4=FrzG4/GTBas3
 ---------------------------------------------------------

 Structure from the checkpoint file:  "G4.Frag_621.chk"
 --------
 Frag_621
 --------
 Charge =  0 Multiplicity = 1

 SCF Done:  E(RHF) =  -264.180095339     A.U. after   11 cycles
 E2 =    -0.9561471521D+00 EUMP2 =    -0.26513624249069D+03
 Normal termination of Gaussian 09 at Sat Aug 20 09:28:03 2022.

 -----------------------------------------------------------
 #P Geom=AllCheck Guess=TCheck SCRF=Check MP2=Full/GTLargeXP
 -----------------------------------------------------------

 Structure from the checkpoint file:  "G4.Frag_621.chk"
 --------
 Frag_621
 --------
 Charge =  0 Multiplicity = 1

 SCF Done:  E(RHF) =  -264.254058628     A.U. after   12 cycles
 E2 =    -0.1245294094D+01 EUMP2 =    -0.26549935272167D+03
 Normal termination of Gaussian 09 at Sat Aug 20 09:31:21 2022.
 SCF Done:  E(RHF) =  -264.275139966     A.U. after    9 cycles
 Normal termination of Gaussian 09 at Sat Aug 20 09:35:23 2022.

                         Standard orientation:
 ---------------------------------------------------------------------
 Center     Atomic      Atomic             Coordinates (Angstroms)
 Number     Number       Type             X           Y           Z
 ---------------------------------------------------------------------
      1          6           0       -1.413486   -0.136405   -0.503191
      2          6           0        0.031771   -0.004761    0.004937
      3          7           0        0.854113   -1.019513   -0.603758
      4          7           0        0.669390    1.272464   -0.319568
      5          8           0        0.050532   -0.176137    1.423493
      6          1           0       -2.043406    0.645770   -0.064257
      7          1           0       -1.837204   -1.106577   -0.224832
      8          1           0       -1.448911   -0.037457   -1.591051
      9          1           0        0.513250   -1.935933   -0.330275
     10          1           0        1.793087   -0.921969   -0.226853
     11          1           0        0.724119    1.358939   -1.330669
     12          1           0        0.096029    2.043259    0.012085
     13          1           0       -0.575460    0.439397    1.820712
 ---------------------------------------------------------------------

 SCF Done:  E(RHF) =  -264.279882496     A.U. after    8 cycles

 The electronic state is 1-A.
 Alpha  occ. eigenvalues --  -20.55443 -15.54392 -15.53919 -11.34327 -11.22340
 Alpha  occ. eigenvalues --   -1.37735  -1.20878  -1.13209  -0.98180  -0.81181
 Alpha  occ. eigenvalues --   -0.69933  -0.68139  -0.67291  -0.60435  -0.57794
 Alpha  occ. eigenvalues --   -0.56581  -0.53760  -0.51057  -0.46991  -0.42273
 Alpha  occ. eigenvalues --   -0.40696
 Alpha virt. eigenvalues --    0.03355   0.04919   0.05357   0.05442   0.07352
 Alpha virt. eigenvalues --    0.07564   0.07627   0.09470   0.10058   0.12351
 Alpha virt. eigenvalues --    0.12823   0.13453   0.13872   0.15569   0.17857

 Mulliken charges:
               1
     1  C   -0.527033
     2  C    0.509436
     3  N   -0.721537
     4  N   -0.702212
     5  O   -0.588759
     6  H    0.151771
     7  H    0.169238
     8  H    0.180605
     9  H    0.289126
    10  H    0.313849
    11  H    0.306553
    12  H    0.269162
    13  H    0.349801
 Sum of Mulliken charges =  -0.00000

 Dipole moment (field-independent basis, Debye):
    X=             -2.1705    Y=              0.8174    Z=             -0.2714  Tot=              2.3351
 Quadrupole moment (field-independent basis, Debye-Ang):
   XX=            -32.1397   YY=            -28.3812   ZZ=            -33.7134
   XY=             -2.8350   XZ=             -1.5810   YZ=              0.0286

 Normal termination of Gaussian 09 at Sat Aug 20 11:23:05 2022.
