 Gaussian 09, Revision E.01,
 Gaussian 09:  ES64L-G09RevE.01 30-Nov-2015

 -----
 #P G4
 -----

 --------
 Frag_727
 --------
 Symbolic Z-matrix:
 Charge =  0 Multiplicity = 1

 SCF Done:  E(RB3LYP) =  -320.284292851     A.U. after   14 cycles
 SCF Done:  E(RB3LYP) =  -320.302522502     A.U. after   13 cycles
 SCF Done:  E(RB3LYP) =  -320.303783738     A.U. after   12 cycles
 SCF Done:  E(RB3LYP) =  -320.303636802     A.U. after   12 cycles
 SCF Done:  E(RB3LYP) =  -320.304068424     A.U. after    9 cycles
 SCF Done:  E(RB3LYP) =  -320.304675244     A.U. after   12 cycles
 SCF Done:  E(RB3LYP) =  -320.305208787     A.U. after   12 cycles
 SCF Done:  E(RB3LYP) =  -320.305701706     A.U. after   13 cycles
 SCF Done:  E(RB3LYP) =  -320.306732172     A.U. after   11 cycles
 SCF Done:  E(RB3LYP) =  -320.308739735     A.U. after   13 cycles
 SCF Done:  E(RB3LYP) =  -320.311083926     A.U. after   10 cycles
 SCF Done:  E(RB3LYP) =  -320.311086142     A.U. after    8 cycles
 SCF Done:  E(RB3LYP) =  -320.311086498     A.U. after    7 cycles
 Optimization completed.
    -- Stationary point found.
 Normal termination of Gaussian 09 at Mon Aug 22 02:48:06 2022.

 ----------------------------------------------------------
 #P Geom=AllCheck Guess=TCheck SCRF=Check B3LYP/GTBas3 Freq
 ----------------------------------------------------------

 Structure from the checkpoint file:  "G4.Frag_727.chk"
 --------
 Frag_727
 --------
 Charge =  0 Multiplicity = 1

 SCF Done:  E(RB3LYP) =  -320.311086498     A.U. after    1 cycles

  Exact polarizability:  35.576   1.763  34.317  -0.094   0.194  18.165
 Approx polarizability:  50.558   2.018  57.735   1.033  -0.572  26.565

                      1                      2                      3
                      A                      A                      A
 Frequencies --    199.3067               304.5116               390.7391
 Red. masses --      4.2780                 4.2915                 1.1892
 Frc consts  --      0.1001                 0.2345                 0.1070
 IR Inten    --     13.2236                32.2823                65.0418

                      4                      5                      6
                      A                      A                      A
 Frequencies --    440.0456               512.8076               574.2928
 Red. masses --      1.2951                 2.7697                 2.3486
 Frc consts  --      0.1478                 0.4291                 0.4564
 IR Inten    --    116.7547                26.1383                88.9520

                      7                      8                      9
                      A                      A                      A
 Frequencies --    712.7295               782.7262              1008.2348
 Red. masses --      4.8054                 5.4238                 3.3483
 Frc consts  --      1.4382                 1.9578                 2.0054
 IR Inten    --     32.1459                77.5878                 8.8077

                     10                     11                     12
                      A                      A                      A
 Frequencies --   1102.2474              1205.4041              1334.7421
 Red. masses --      9.4152                 1.5003                 1.7834
 Frc consts  --      6.7397                 1.2844                 1.8719
 IR Inten    --     44.8048                26.3944               205.2287

                     13                     14                     15
                      A                      A                      A
 Frequencies --   1411.8086              1535.6939              1857.8026
 Red. masses --      1.6554                 1.2285                 8.4987
 Frc consts  --      1.9440                 1.7070                17.2822
 IR Inten    --    322.3664                25.8190               253.7323

                     16                     17                     18
                      A                      A                      A
 Frequencies --   3517.4514              3592.8573              3786.9645
 Red. masses --      1.0765                 1.0654                 1.0653
 Frc consts  --      7.8472                 8.1027                 9.0015
 IR Inten    --     14.6370                70.3228                54.2921

 - Thermochemistry -
 -------------------
 Temperature   298.150 Kelvin.  Pressure   1.00000 Atm.
 Atom     1 has atomic number  8 and mass  15.99491

 Molecular mass:    77.01129 amu.
 Principal axes and moments of inertia in atomic units:
                           1         2         3
     Eigenvalues --   162.21670 411.42700 569.72399
           X            0.99923   0.03835  -0.00769
           Y           -0.03827   0.99921   0.01041
           Z            0.00808  -0.01011   0.99992
 This molecule is an asymmetric top.
 Rotational symmetry number  1.
 Rotational temperatures (Kelvin)      0.53394     0.21052     0.15203
 Rotational constants (GHZ):          11.12550     4.38654     3.16775
 Zero-point vibrational energy     145169.0 (Joules/Mol)
                                   34.69623 (Kcal/Mol)
 Warning -- explicit consideration of   6 degrees of freedom as
           vibrations may cause significant error
 Vibrational temperatures:    286.76   438.12   562.19   633.13   737.81
          (Kelvin)            826.28  1025.46  1126.17  1450.62  1585.89
                             1734.31  1920.39  2031.28  2209.52  2672.96
                             5060.82  5169.31  5448.59

 Zero-point correction=                           0.055292 (Hartree/Particle)
 Thermal correction to Energy=                    0.060371
 Thermal correction to Enthalpy=                  0.061316
 Thermal correction to Gibbs Free Energy=         0.027428
 Sum of electronic and zero-point Energies=           -320.255795
 Sum of electronic and thermal Energies=              -320.250715
 Sum of electronic and thermal Enthalpies=            -320.249771
 Sum of electronic and thermal Free Energies=         -320.283658

                     E (Thermal)             CV                S
                      KCal/Mol        Cal/Mol-Kelvin    Cal/Mol-Kelvin
 Total                   37.884             17.301             71.322
 Electronic               0.000              0.000              0.000
 Translational            0.889              2.981             38.939
 Rotational               0.889              2.981             25.145
 Vibrational             36.106             11.340              7.237
 Vibration     1          0.637              1.841              2.139
 Vibration     2          0.695              1.665              1.392
 Vibration     3          0.758              1.490              0.997
 Vibration     4          0.800              1.383              0.826
 Vibration     5          0.868              1.222              0.627
 Vibration     6          0.931              1.087              0.496

 Optimization completed.
    -- Stationary point found.
 Normal termination of Gaussian 09 at Mon Aug 22 02:48:51 2022.

 -----------------------------------------------------------------
 #P Geom=AllCheck Guess=TCheck SCRF=Check CCSD(T,E4T,FrzG4)/GTBas1
 -----------------------------------------------------------------

 Structure from the checkpoint file:  "G4.Frag_727.chk"
 --------
 Frag_727
 --------
 Charge =  0 Multiplicity = 1

 SCF Done:  E(RHF) =  -318.589426952     A.U. after   13 cycles
 E2 =    -0.8207080459D+00 EUMP2 =    -0.31941013499786D+03
 CCSD(T)
 CCSD(T)= -0.31945234911D+03
 9.4566123\MP4SDQ=-319.4297731\CCSD=-319.4280523\CCSD(T)=-319.4523491\R
 Normal termination of Gaussian 09 at Mon Aug 22 02:50:11 2022.

 ---------------------------------------------------------
 #P Geom=AllCheck Guess=TCheck SCRF=Check MP4=FrzG4/GTBas2
 ---------------------------------------------------------

 Structure from the checkpoint file:  "G4.Frag_727.chk"
 --------
 Frag_727
 --------
 Charge =  0 Multiplicity = 1

 SCF Done:  E(RHF) =  -318.600427937     A.U. after   12 cycles
 E2 =    -0.8350068362D+00 EUMP2 =    -0.31943543477356D+03
 Normal termination of Gaussian 09 at Mon Aug 22 02:51:25 2022.

 ---------------------------------------------------------
 #P Geom=AllCheck Guess=TCheck SCRF=Check MP4=FrzG4/GTBas3
 ---------------------------------------------------------

 Structure from the checkpoint file:  "G4.Frag_727.chk"
 --------
 Frag_727
 --------
 Charge =  0 Multiplicity = 1

 SCF Done:  E(RHF) =  -318.634075649     A.U. after   12 cycles
 E2 =    -0.1004266369D+01 EUMP2 =    -0.31963834201812D+03
 Normal termination of Gaussian 09 at Mon Aug 22 03:15:47 2022.

 -----------------------------------------------------------
 #P Geom=AllCheck Guess=TCheck SCRF=Check MP2=Full/GTLargeXP
 -----------------------------------------------------------

 Structure from the checkpoint file:  "G4.Frag_727.chk"
 --------
 Frag_727
 --------
 Charge =  0 Multiplicity = 1

 SCF Done:  E(RHF) =  -318.727898958     A.U. after   12 cycles
 E2 =    -0.1305827651D+01 EUMP2 =    -0.32003372660862D+03
 Normal termination of Gaussian 09 at Mon Aug 22 03:17:17 2022.
 SCF Done:  E(RHF) =  -318.754710818     A.U. after    9 cycles
 Normal termination of Gaussian 09 at Mon Aug 22 03:19:24 2022.

                         Standard orientation:
 ---------------------------------------------------------------------
 Center     Atomic      Atomic             Coordinates (Angstroms)
 Number     Number       Type             X           Y           Z
 ---------------------------------------------------------------------
      1          8           0       -0.334800    1.343909   -0.006034
      2          6           0       -0.486531    0.148308    0.004578
      3          8           0       -1.699103   -0.437739   -0.026342
      4          7           0        0.576930   -0.746430    0.094641
      5          8           0        1.830675   -0.109305    0.011256
      6          1           0       -1.625216   -1.369831    0.217043
      7          1           0        0.553689   -1.492199   -0.594989
      8          1           0        1.578023    0.822278   -0.143054
 ---------------------------------------------------------------------

 SCF Done:  E(RHF) =  -318.760416832     A.U. after    8 cycles

 The electronic state is 1-A.
 Alpha  occ. eigenvalues --  -20.63930 -20.61590 -20.56330 -15.66145 -11.43487
 Alpha  occ. eigenvalues --   -1.50483  -1.43902  -1.38805  -1.15863  -0.87088
 Alpha  occ. eigenvalues --   -0.82850  -0.73394  -0.69704  -0.66327  -0.64415
 Alpha  occ. eigenvalues --   -0.60004  -0.57186  -0.51374  -0.50085  -0.43462
 Alpha virt. eigenvalues --    0.02915   0.05070   0.05574   0.06119   0.09171
 Alpha virt. eigenvalues --    0.09508   0.10118   0.11509   0.12637   0.14180
 Alpha virt. eigenvalues --    0.14840   0.15628   0.15965   0.17004   0.18366

 Mulliken charges:
               1
     1  O   -0.577885
     2  C    0.707308
     3  O   -0.495218
     4  N   -0.287691
     5  O   -0.474196
     6  H    0.393462
     7  H    0.326192
     8  H    0.408026
 Sum of Mulliken charges =  -0.00000

 Dipole moment (field-independent basis, Debye):
    X=             -0.5480    Y=             -3.4611    Z=             -0.9076  Tot=              3.6199
 Quadrupole moment (field-independent basis, Debye-Ang):
   XX=            -32.5746   YY=            -26.1856   ZZ=            -28.2749
   XY=              5.4959   XZ=             -1.9226   YZ=              1.0434

 Normal termination of Gaussian 09 at Mon Aug 22 04:17:06 2022.
