 Gaussian 09, Revision E.01,
 Gaussian 09:  ES64L-G09RevE.01 30-Nov-2015

 -----
 #P G4
 -----

 --------
 Frag_996
 --------
 Symbolic Z-matrix:
 Charge =  0 Multiplicity = 1

 SCF Done:  E(RB3LYP) =  -285.568053161     A.U. after   12 cycles
 SCF Done:  E(RB3LYP) =  -285.575910137     A.U. after   11 cycles
 SCF Done:  E(RB3LYP) =  -285.577229047     A.U. after   11 cycles
 SCF Done:  E(RB3LYP) =  -285.577617832     A.U. after   11 cycles
 SCF Done:  E(RB3LYP) =  -285.577750054     A.U. after   11 cycles
 SCF Done:  E(RB3LYP) =  -285.577891444     A.U. after   11 cycles
 SCF Done:  E(RB3LYP) =  -285.578052296     A.U. after   11 cycles
 SCF Done:  E(RB3LYP) =  -285.578346088     A.U. after   11 cycles
 SCF Done:  E(RB3LYP) =  -285.578495021     A.U. after   11 cycles
 SCF Done:  E(RB3LYP) =  -285.578537918     A.U. after    9 cycles
 SCF Done:  E(RB3LYP) =  -285.579261400     A.U. after    7 cycles
 SCF Done:  E(RB3LYP) =  -285.579261591     A.U. after    7 cycles
 SCF Done:  E(RB3LYP) =  -285.579261642     A.U. after    7 cycles
 Optimization completed.
    -- Stationary point found.
 Normal termination of Gaussian 09 at Mon Aug 22 06:26:41 2022.

 ----------------------------------------------------------
 #P Geom=AllCheck Guess=TCheck SCRF=Check B3LYP/GTBas3 Freq
 ----------------------------------------------------------

 Structure from the checkpoint file:  "G4.Frag_996.chk"
 --------
 Frag_996
 --------
 Charge =  0 Multiplicity = 1

 SCF Done:  E(RB3LYP) =  -285.579261642     A.U. after    1 cycles

  Exact polarizability:  45.154   0.507  36.418   2.623  -0.540  36.673
 Approx polarizability:  60.234  -2.498  49.732   4.292  -0.636  53.829

                      1                      2                      3
                      A                      A                      A
 Frequencies --    114.9156               242.1639               256.2567
 Red. masses --      3.5118                 1.0843                 1.2297
 Frc consts  --      0.0273                 0.0375                 0.0476
 IR Inten    --      1.4505                74.9060                12.5392

                      4                      5                      6
                      A                      A                      A
 Frequencies --    275.4248               343.6212               409.8851
 Red. masses --      2.6154                 1.1009                 3.3596
 Frc consts  --      0.1169                 0.0766                 0.3326
 IR Inten    --      4.6419                77.8751                 6.9539

                      7                      8                      9
                      A                      A                      A
 Frequencies --    475.7752               525.7588               833.4677
 Red. masses --      3.0069                 2.8988                 2.8824
 Frc consts  --      0.4010                 0.4721                 1.1797
 IR Inten    --     10.6265                 9.0183                29.0822

                     10                     11                     12
                      A                      A                      A
 Frequencies --    923.9543               953.9967              1018.4079
 Red. masses --      2.4138                 1.8283                 2.0486
 Frc consts  --      1.2141                 0.9804                 1.2518
 IR Inten    --     65.9742                 5.1841                55.7633

                     13                     14                     15
                      A                      A                      A
 Frequencies --   1074.1953              1143.1496              1189.8213
 Red. masses --      1.6864                 3.1323                 2.0734
 Frc consts  --      1.1465                 2.4117                 1.7294
 IR Inten    --     47.9060               106.3045                32.6194

                     16                     17                     18
                      A                      A                      A
 Frequencies --   1302.2508              1338.7456              1392.3383
 Red. masses --      1.3998                 1.2266                 1.2232
 Frc consts  --      1.3986                 1.2953                 1.3971
 IR Inten    --     19.0464                10.5734                15.3579

                     19                     20                     21
                      A                      A                      A
 Frequencies --   1396.3516              1415.1598              1475.9823
 Red. masses --      1.1787                 1.3124                 1.0724
 Frc consts  --      1.3541                 1.5486                 1.3765
 IR Inten    --     56.0160                43.6984                 1.8123

                     22                     23                     24
                      A                      A                      A
 Frequencies --   1489.3784              1502.6642              3014.7174
 Red. masses --      1.0763                 1.0758                 1.0471
 Frc consts  --      1.4066                 1.4313                 5.6069
 IR Inten    --      3.2204                18.2084                14.8014

                     25                     26                     27
                      A                      A                      A
 Frequencies --   3054.8566              3098.8837              3140.4692
 Red. masses --      1.0836                 1.0916                 1.1002
 Frc consts  --      5.9578                 6.1761                 6.3929
 IR Inten    --     25.7360                32.7732                 9.0638

                     28                     29                     30
                      A                      A                      A
 Frequencies --   3420.5986              3806.1622              3809.5545
 Red. masses --      1.0750                 1.0682                 1.0662
 Frc consts  --      7.4105                 9.1179                 9.1167
 IR Inten    --      3.1260                46.6015                10.2571

 - Thermochemistry -
 -------------------
 Temperature   298.150 Kelvin.  Pressure   1.00000 Atm.
 Atom     1 has atomic number  6 and mass  12.00000

 Molecular mass:    77.04768 amu.
 Principal axes and moments of inertia in atomic units:
                           1         2         3
     Eigenvalues --   218.81575 475.47394 632.45980
           X            0.99836   0.05460   0.01696
           Y           -0.05457   0.99851  -0.00187
           Z           -0.01703   0.00094   0.99985
 This molecule is an asymmetric top.
 Rotational symmetry number  1.
 Rotational temperatures (Kelvin)      0.39583     0.18216     0.13695
 Rotational constants (GHZ):           8.24777     3.79567     2.85353
 Zero-point vibrational energy     265803.7 (Joules/Mol)
                                   63.52861 (Kcal/Mol)
 Warning -- explicit consideration of   8 degrees of freedom as
           vibrations may cause significant error
 Vibrational temperatures:    165.34   348.42   368.70   396.27   494.39
          (Kelvin)            589.73   684.53   756.45  1199.17  1329.36
                             1372.59  1465.26  1545.53  1644.74  1711.89
                             1873.65  1926.15  2003.26  2009.04  2036.10
                             2123.61  2142.88  2162.00  4337.50  4395.25
                             4458.60  4518.43  4921.47  5476.21  5481.09

 Zero-point correction=                           0.101239 (Hartree/Particle)
 Thermal correction to Energy=                    0.107643
 Thermal correction to Enthalpy=                  0.108587
 Thermal correction to Gibbs Free Energy=         0.071952
 Sum of electronic and zero-point Energies=           -285.478022
 Sum of electronic and thermal Energies=              -285.471618
 Sum of electronic and thermal Enthalpies=            -285.470674
 Sum of electronic and thermal Free Energies=         -285.507309

                     E (Thermal)             CV                S
                      KCal/Mol        Cal/Mol-Kelvin    Cal/Mol-Kelvin
 Total                   67.547             22.119             77.105
 Electronic               0.000              0.000              0.000
 Translational            0.889              2.981             38.941
 Rotational               0.889              2.981             25.690
 Vibrational             65.770             16.158             12.474
 Vibration     1          0.608              1.937              3.184
 Vibration     2          0.658              1.776              1.787
 Vibration     3          0.666              1.752              1.687
 Vibration     4          0.677              1.719              1.562
 Vibration     5          0.722              1.588              1.195
 Vibration     6          0.774              1.449              0.927
 Vibration     7          0.832              1.304              0.722
 Vibration     8          0.881              1.193              0.597

 Optimization completed.
    -- Stationary point found.
 Normal termination of Gaussian 09 at Mon Aug 22 06:28:11 2022.

 -----------------------------------------------------------------
 #P Geom=AllCheck Guess=TCheck SCRF=Check CCSD(T,E4T,FrzG4)/GTBas1
 -----------------------------------------------------------------

 Structure from the checkpoint file:  "G4.Frag_996.chk"
 --------
 Frag_996
 --------
 Charge =  0 Multiplicity = 1

 SCF Done:  E(RHF) =  -283.899146387     A.U. after   13 cycles
 E2 =    -0.7865162155D+00 EUMP2 =    -0.28468566260274D+03
 CCSD(T)
 CCSD(T)= -0.28474858525D+03
 2\CCSD=-284.7274369\CCSD(T)=-284.7485852\RMSD=2.483e-09\PG=C01 [X(C2H7
 Normal termination of Gaussian 09 at Mon Aug 22 06:30:18 2022.

 ---------------------------------------------------------
 #P Geom=AllCheck Guess=TCheck SCRF=Check MP4=FrzG4/GTBas2
 ---------------------------------------------------------

 Structure from the checkpoint file:  "G4.Frag_996.chk"
 --------
 Frag_996
 --------
 Charge =  0 Multiplicity = 1

 SCF Done:  E(RHF) =  -283.910013328     A.U. after   12 cycles
 E2 =    -0.8011946533D+00 EUMP2 =    -0.28471120798097D+03
 Normal termination of Gaussian 09 at Mon Aug 22 06:32:51 2022.

 ---------------------------------------------------------
 #P Geom=AllCheck Guess=TCheck SCRF=Check MP4=FrzG4/GTBas3
 ---------------------------------------------------------

 Structure from the checkpoint file:  "G4.Frag_996.chk"
 --------
 Frag_996
 --------
 Charge =  0 Multiplicity = 1

 SCF Done:  E(RHF) =  -283.939869455     A.U. after   12 cycles
 E2 =    -0.9762381881D+00 EUMP2 =    -0.28491610764261D+03
 Normal termination of Gaussian 09 at Mon Aug 22 07:21:37 2022.

 -----------------------------------------------------------
 #P Geom=AllCheck Guess=TCheck SCRF=Check MP2=Full/GTLargeXP
 -----------------------------------------------------------

 Structure from the checkpoint file:  "G4.Frag_996.chk"
 --------
 Frag_996
 --------
 Charge =  0 Multiplicity = 1

 SCF Done:  E(RHF) =  -284.020693172     A.U. after   12 cycles
 E2 =    -0.1271120863D+01 EUMP2 =    -0.28529181403529D+03
 Normal termination of Gaussian 09 at Mon Aug 22 07:24:19 2022.
 SCF Done:  E(RHF) =  -284.044449610     A.U. after    9 cycles
 Normal termination of Gaussian 09 at Mon Aug 22 07:27:38 2022.

                         Standard orientation:
 ---------------------------------------------------------------------
 Center     Atomic      Atomic             Coordinates (Angstroms)
 Number     Number       Type             X           Y           Z
 ---------------------------------------------------------------------
      1          6           0        0.664749    1.371421    0.098696
      2          6           0        0.441985   -0.070544   -0.348397
      3          8           0        1.550972   -0.892342   -0.069669
      4          7           0       -0.747385   -0.713137    0.246244
      5          8           0       -1.885083    0.122185   -0.047211
      6          1           0        1.519183    1.809786   -0.424956
      7          1           0        0.863326    1.406598    1.179181
      8          1           0       -0.225197    1.971555   -0.100243
      9          1           0        0.288237   -0.107687   -1.432600
     10          1           0        1.930985   -0.610676    0.769196
     11          1           0       -0.657564   -0.646556    1.262220
     12          1           0       -2.454787   -0.475068   -0.543268
 ---------------------------------------------------------------------

 SCF Done:  E(RHF) =  -284.049652953     A.U. after    8 cycles

 The electronic state is 1-A.
 Alpha  occ. eigenvalues --  -20.58823 -20.56633 -15.60698 -11.31410 -11.22413
 Alpha  occ. eigenvalues --   -1.40784  -1.37395  -1.11451  -0.98861  -0.84943
 Alpha  occ. eigenvalues --   -0.70188  -0.68033  -0.67226  -0.64150  -0.60232
 Alpha  occ. eigenvalues --   -0.55629  -0.53422  -0.51636  -0.49828  -0.45925
 Alpha  occ. eigenvalues --   -0.40733
 Alpha virt. eigenvalues --    0.03844   0.04879   0.05126   0.05446   0.07549
 Alpha virt. eigenvalues --    0.07804   0.08415   0.09124   0.10420   0.12144
 Alpha virt. eigenvalues --    0.13938   0.14905   0.15380   0.16204   0.16437

 Mulliken charges:
               1
     1  C   -0.534358
     2  C    0.182244
     3  O   -0.575757
     4  N   -0.255773
     5  O   -0.545222
     6  H    0.180898
     7  H    0.145606
     8  H    0.214093
     9  H    0.162360
    10  H    0.358072
    11  H    0.268018
    12  H    0.399819
 Sum of Mulliken charges =  -0.00000

 Dipole moment (field-independent basis, Debye):
    X=              0.0144    Y=              1.1358    Z=              0.9290  Tot=              1.4674
 Quadrupole moment (field-independent basis, Debye-Ang):
   XX=            -30.0562   YY=            -34.8043   ZZ=            -27.2722
   XY=              4.1302   XZ=              4.3933   YZ=             -0.9502

 Normal termination of Gaussian 09 at Mon Aug 22 08:57:16 2022.
