 Gaussian 09, Revision E.01,
 Gaussian 09:  ES64L-G09RevE.01 30-Nov-2015

 -----
 #P G4
 -----

 ---------
 Frag_1005
 ---------
 Symbolic Z-matrix:
 Charge =  0 Multiplicity = 1

 SCF Done:  E(RB3LYP) =  -339.340005016     A.U. after   14 cycles
 SCF Done:  E(RB3LYP) =  -339.360560482     A.U. after   11 cycles
 SCF Done:  E(RB3LYP) =  -339.362194509     A.U. after   11 cycles
 SCF Done:  E(RB3LYP) =  -339.362186120     A.U. after   11 cycles
 SCF Done:  E(RB3LYP) =  -339.362338337     A.U. after   11 cycles
 SCF Done:  E(RB3LYP) =  -339.362367124     A.U. after    9 cycles
 SCF Done:  E(RB3LYP) =  -339.362520399     A.U. after   12 cycles
 SCF Done:  E(RB3LYP) =  -339.362725799     A.U. after   11 cycles
 SCF Done:  E(RB3LYP) =  -339.362983325     A.U. after   11 cycles
 SCF Done:  E(RB3LYP) =  -339.362743660     A.U. after   11 cycles
 SCF Done:  E(RB3LYP) =  -339.363070182     A.U. after    7 cycles
 SCF Done:  E(RB3LYP) =  -339.363070746     A.U. after    7 cycles
 SCF Done:  E(RB3LYP) =  -339.363070916     A.U. after    7 cycles
 Optimization completed.
    -- Stationary point found.
 Normal termination of Gaussian 09 at Fri Aug 26 08:22:11 2022.

 ----------------------------------------------------------
 #P Geom=AllCheck Guess=TCheck SCRF=Check B3LYP/GTBas3 Freq
 ----------------------------------------------------------

 Structure from the checkpoint file:  "G4.Frag_1005.chk"
 ---------
 Frag_1005
 ---------
 Charge =  0 Multiplicity = 1

 SCF Done:  E(RB3LYP) =  -339.363070916     A.U. after    1 cycles

  Exact polarizability:  63.861   0.464  68.351   0.164  -1.875  51.244
 Approx polarizability:  88.031   3.463 107.547  -2.392  -3.814  74.590

                      1                      2                      3
                      A                      A                      A
 Frequencies --     61.0199               215.4977               243.7428
 Red. masses --      3.3259                 1.3902                 1.6714
 Frc consts  --      0.0073                 0.0380                 0.0585
 IR Inten    --      5.0825                 4.6979                 7.0087

                      4                      5                      6
                      A                      A                      A
 Frequencies --    270.4372               288.1393               316.0821
 Red. masses --      1.0895                 1.8015                 1.7110
 Frc consts  --      0.0469                 0.0881                 0.1007
 IR Inten    --     20.8468                 9.1359                12.4267

                      7                      8                      9
                      A                      A                      A
 Frequencies --    369.9808               392.9213               411.2626
 Red. masses --      2.0928                 1.3946                 2.6520
 Frc consts  --      0.1688                 0.1269                 0.2643
 IR Inten    --     11.5440                67.0550                13.8363

                     10                     11                     12
                      A                      A                      A
 Frequencies --    437.8718               520.2788               560.9827
 Red. masses --      2.5337                 3.0252                 2.3145
 Frc consts  --      0.2862                 0.4825                 0.4291
 IR Inten    --      2.6640                 0.7810                44.4455

                     13                     14                     15
                      A                      A                      A
 Frequencies --    588.3114               710.4252               749.0602
 Red. masses --      1.4666                 3.5252                 4.7313
 Frc consts  --      0.2991                 1.0483                 1.5641
 IR Inten    --    166.3936                 7.4181                21.3676

                     16                     17                     18
                      A                      A                      A
 Frequencies --    861.8560               888.1333               914.6719
 Red. masses --      1.7502                 2.1152                 1.2106
 Frc consts  --      0.7660                 0.9830                 0.5967
 IR Inten    --    104.4914                90.7260                80.2322

                     19                     20                     21
                      A                      A                      A
 Frequencies --    941.3589               989.4020              1027.0882
 Red. masses --      1.1909                 1.4014                 1.9168
 Frc consts  --      0.6218                 0.8083                 1.1914
 IR Inten    --     39.7674                28.3941                17.1414

                     22                     23                     24
                      A                      A                      A
 Frequencies --   1076.8114              1118.4698              1163.6095
 Red. masses --      1.6412                 1.8562                 1.3597
 Frc consts  --      1.1212                 1.3681                 1.0847
 IR Inten    --     14.9067                13.9849                68.9786

                     25                     26                     27
                      A                      A                      A
 Frequencies --   1241.1519              1301.0292              1337.7650
 Red. masses --      2.5355                 1.8533                 1.7418
 Frc consts  --      2.3013                 1.8483                 1.8365
 IR Inten    --    100.7927                21.6966                 9.0755

                     28                     29                     30
                      A                      A                      A
 Frequencies --   1403.1091              1426.5650              1481.1646
 Red. masses --      1.4034                 1.8864                 1.0640
 Frc consts  --      1.6278                 2.2619                 1.3753
 IR Inten    --     11.0159                44.7218                 1.4866

                     31                     32                     33
                      A                      A                      A
 Frequencies --   1492.5789              1622.6135              1629.0339
 Red. masses --      1.0728                 1.2306                 1.1130
 Frc consts  --      1.4081                 1.9089                 1.7402
 IR Inten    --      7.4177                18.2633                77.7683

                     34                     35                     36
                      A                      A                      A
 Frequencies --   1644.8585              1721.8427              3036.4905
 Red. masses --      1.1121                 5.8806                 1.0360
 Frc consts  --      1.7727                10.2720                 5.6277
 IR Inten    --     42.2141               152.5976                17.5404

                     37                     38                     39
                      A                      A                      A
 Frequencies --   3102.1692              3123.2264              3478.6677
 Red. masses --      1.0994                 1.1032                 1.0722
 Frc consts  --      6.2335                 6.3406                 7.6444
 IR Inten    --     29.9941                17.9381                15.1473

                     40                     41                     42
                      A                      A                      A
 Frequencies --   3489.1522              3495.2600              3567.9773
 Red. masses --      1.0494                 1.0486                 1.0474
 Frc consts  --      7.5270                 7.5475                 7.8562
 IR Inten    --      0.9426                 0.7999                13.6830

                     43                     44                     45
                      A                      A                      A
 Frequencies --   3576.4026              3583.7789              3683.3780
 Red. masses --      1.0917                 1.0932                 1.0980
 Frc consts  --      8.2274                 8.2728                 8.7769
 IR Inten    --      0.5727                 2.5990                13.4838

 - Thermochemistry -
 -------------------
 Temperature   298.150 Kelvin.  Pressure   1.00000 Atm.
 Atom     1 has atomic number  6 and mass  12.00000

 Molecular mass:   102.09055 amu.
 Principal axes and moments of inertia in atomic units:
                           1         2         3
     Eigenvalues --   535.67022 757.97993 924.33951
           X            0.99911  -0.02555   0.03358
           Y            0.02568   0.99966  -0.00338
           Z           -0.03348   0.00424   0.99943
 This molecule is an asymmetric top.
 Rotational symmetry number  1.
 Warning -- assumption of classical behavior for rotation
           may cause significant error
 Rotational temperatures (Kelvin)      0.16169     0.11427     0.09370
 Rotational constants (GHZ):           3.36913     2.38099     1.95247
 Zero-point vibrational energy     392109.7 (Joules/Mol)
                                   93.71648 (Kcal/Mol)
 Warning -- explicit consideration of  13 degrees of freedom as
           vibrations may cause significant error
 Vibrational temperatures:     87.79   310.05   350.69   389.10   414.57
          (Kelvin)            454.77   532.32   565.33   591.71   630.00
                              748.56   807.13   846.45  1022.14  1077.73
                             1240.02  1277.82  1316.01  1354.40  1423.53
                             1477.75  1549.29  1609.23  1674.17  1785.74
                             1871.89  1924.74  2018.76  2052.51  2131.06
                             2147.49  2334.58  2343.81  2366.58  2477.34
                             4368.83  4463.32  4493.62  5005.02  5020.11
                             5028.89  5133.52  5145.64  5156.25  5299.55

 Zero-point correction=                           0.149347 (Hartree/Particle)
 Thermal correction to Energy=                    0.157735
 Thermal correction to Enthalpy=                  0.158680
 Thermal correction to Gibbs Free Energy=         0.117409
 Sum of electronic and zero-point Energies=           -339.213724
 Sum of electronic and thermal Energies=              -339.205336
 Sum of electronic and thermal Enthalpies=            -339.204391
 Sum of electronic and thermal Free Energies=         -339.245662

                     E (Thermal)             CV                S
                      KCal/Mol        Cal/Mol-Kelvin    Cal/Mol-Kelvin
 Total                   98.980             31.889             86.860
 Electronic               0.000              0.000              0.000
 Translational            0.889              2.981             39.780
 Rotational               0.889              2.981             27.420
 Vibrational             97.203             25.928             19.661
 Vibration     1          0.597              1.973              4.424
 Vibration     2          0.645              1.817              1.997
 Vibration     3          0.659              1.773              1.775
 Vibration     4          0.674              1.728              1.593
 Vibration     5          0.685              1.696              1.485
 Vibration     6          0.703              1.643              1.330
 Vibration     7          0.742              1.534              1.080
 Vibration     8          0.760              1.485              0.989
 Vibration     9          0.775              1.446              0.922
 Vibration    10          0.798              1.388              0.833
 Vibration    11          0.875              1.205              0.609
 Vibration    12          0.917              1.116              0.522
 Vibration    13          0.946              1.057              0.470

 Optimization completed.
    -- Stationary point found.
 Normal termination of Gaussian 09 at Fri Aug 26 08:23:03 2022.

 -----------------------------------------------------------------
 #P Geom=AllCheck Guess=TCheck SCRF=Check CCSD(T,E4T,FrzG4)/GTBas1
 -----------------------------------------------------------------

 Structure from the checkpoint file:  "G4.Frag_1005.chk"
 ---------
 Frag_1005
 ---------
 Charge =  0 Multiplicity = 1

 SCF Done:  E(RHF) =  -337.196374503     A.U. after   13 cycles
 E2 =    -0.1047015017D+01 EUMP2 =    -0.33824338952022D+03
 CCSD(T)
 CCSD(T)= -0.33833486238D+03
 3002536\CCSD=-338.3006863\CCSD(T)=-338.3348624\RMSD=4.365e-09\PG=C01 [
 Normal termination of Gaussian 09 at Fri Aug 26 08:27:29 2022.

 ---------------------------------------------------------
 #P Geom=AllCheck Guess=TCheck SCRF=Check MP4=FrzG4/GTBas2
 ---------------------------------------------------------

 Structure from the checkpoint file:  "G4.Frag_1005.chk"
 ---------
 Frag_1005
 ---------
 Charge =  0 Multiplicity = 1

 SCF Done:  E(RHF) =  -337.210264350     A.U. after   13 cycles
 E2 =    -0.1065059388D+01 EUMP2 =    -0.33827532373814D+03
 Normal termination of Gaussian 09 at Fri Aug 26 08:28:53 2022.

 ---------------------------------------------------------
 #P Geom=AllCheck Guess=TCheck SCRF=Check MP4=FrzG4/GTBas3
 ---------------------------------------------------------

 Structure from the checkpoint file:  "G4.Frag_1005.chk"
 ---------
 Frag_1005
 ---------
 Charge =  0 Multiplicity = 1

 SCF Done:  E(RHF) =  -337.248107648     A.U. after   11 cycles
 E2 =    -0.1275651155D+01 EUMP2 =    -0.33852375880383D+03
 Normal termination of Gaussian 09 at Fri Aug 26 08:40:08 2022.

 -----------------------------------------------------------
 #P Geom=AllCheck Guess=TCheck SCRF=Check MP2=Full/GTLargeXP
 -----------------------------------------------------------

 Structure from the checkpoint file:  "G4.Frag_1005.chk"
 ---------
 Frag_1005
 ---------
 Charge =  0 Multiplicity = 1

 SCF Done:  E(RHF) =  -337.335765566     A.U. after   13 cycles
 E2 =    -0.1666299452D+01 EUMP2 =    -0.33900206501847D+03
 Normal termination of Gaussian 09 at Fri Aug 26 08:44:12 2022.
 SCF Done:  E(RHF) =  -337.361394600     A.U. after    9 cycles
 Normal termination of Gaussian 09 at Fri Aug 26 08:47:58 2022.

                         Standard orientation:
 ---------------------------------------------------------------------
 Center     Atomic      Atomic             Coordinates (Angstroms)
 Number     Number       Type             X           Y           Z
 ---------------------------------------------------------------------
      1          6           0       -1.073847   -1.177967   -0.849082
      2          6           0       -0.577296   -0.002977    0.012086
      3          7           0       -1.035885   -0.219503    1.394056
      4          7           0       -1.171240    1.274910   -0.382696
      5          6           0        0.965342    0.160671   -0.053366
      6          7           0        1.583261    1.275315   -0.086666
      7          7           0        1.688624   -1.022566   -0.070928
      8          1           0       -0.768014   -1.045719   -1.890656
      9          1           0       -0.689516   -2.147744   -0.516447
     10          1           0       -2.165519   -1.219266   -0.797950
     11          1           0       -0.644245    0.511259    1.982961
     12          1           0       -0.693428   -1.105699    1.751828
     13          1           0       -2.165789    1.234022   -0.181752
     14          1           0       -1.059259    1.422674   -1.381230
     15          1           0        0.894404    2.027168   -0.122742
     16          1           0        1.284546   -1.824665    0.385162
     17          1           0        2.668297   -0.887484    0.136638
 ---------------------------------------------------------------------

 SCF Done:  E(RHF) =  -337.366935101     A.U. after    8 cycles

 The electronic state is 1-A.
 Alpha  occ. eigenvalues --  -15.56669 -15.55747 -15.55039 -15.51347 -11.31277
 Alpha  occ. eigenvalues --  -11.30494 -11.23001  -1.27517  -1.22250  -1.14509
 Alpha  occ. eigenvalues --   -1.12644  -0.99374  -0.86327  -0.76889  -0.73124
 Alpha  occ. eigenvalues --   -0.68397  -0.67592  -0.61563  -0.60353  -0.58715
 Alpha  occ. eigenvalues --   -0.56766  -0.55403  -0.53468  -0.51173  -0.44704
 Alpha  occ. eigenvalues --   -0.41268  -0.39247  -0.36565
 Alpha virt. eigenvalues --    0.02996   0.04223   0.04922   0.05047   0.06649
 Alpha virt. eigenvalues --    0.06833   0.07232   0.07284   0.07647   0.10011
 Alpha virt. eigenvalues --    0.10467   0.11786   0.11858   0.12190   0.12987

 Mulliken charges:
               1
     1  C   -0.557689
     2  C    0.377805
     3  N   -0.715211
     4  N   -0.776760
     5  C    0.399279
     6  N   -0.727218
     7  N   -0.716348
     8  H    0.183054
     9  H    0.157157
    10  H    0.185382
    11  H    0.318416
    12  H    0.286979
    13  H    0.319051
    14  H    0.307366
    15  H    0.311705
    16  H    0.304404
    17  H    0.342628
 Sum of Mulliken charges =  -0.00000

 Dipole moment (field-independent basis, Debye):
    X=             -1.7022    Y=             -2.7086    Z=              0.2908  Tot=              3.2122
 Quadrupole moment (field-independent basis, Debye-Ang):
   XX=            -48.4284   YY=            -43.7100   ZZ=            -42.2253
   XY=             -6.1741   XZ=              5.1442   YZ=             -3.1547

 Normal termination of Gaussian 09 at Fri Aug 26 09:00:26 2022.
