 Gaussian 09, Revision E.01,
 Gaussian 09:  ES64L-G09RevE.01 30-Nov-2015

 -----
 #P G4
 -----

 --------
 Frag_775
 --------
 Symbolic Z-matrix:
 Charge =  0 Multiplicity = 1

 SCF Done:  E(RB3LYP) =  -319.782728242     A.U. after   14 cycles
 SCF Done:  E(RB3LYP) =  -319.797496728     A.U. after   12 cycles
 SCF Done:  E(RB3LYP) =  -319.798580059     A.U. after   11 cycles
 SCF Done:  E(RB3LYP) =  -319.799175233     A.U. after   11 cycles
 SCF Done:  E(RB3LYP) =  -319.801514959     A.U. after   12 cycles
 SCF Done:  E(RB3LYP) =  -319.801517595     A.U. after   12 cycles
 SCF Done:  E(RB3LYP) =  -319.803080572     A.U. after   11 cycles
 SCF Done:  E(RB3LYP) =  -319.804584107     A.U. after   12 cycles
 SCF Done:  E(RB3LYP) =  -319.807431416     A.U. after   12 cycles
 SCF Done:  E(RB3LYP) =  -319.809865384     A.U. after   13 cycles
 SCF Done:  E(RB3LYP) =  -319.820240383     A.U. after    8 cycles
 SCF Done:  E(RB3LYP) =  -319.820241335     A.U. after    8 cycles
 SCF Done:  E(RB3LYP) =  -319.820241645     A.U. after    7 cycles
 Optimization completed.
    -- Stationary point found.
 Normal termination of Gaussian 09 at Sat Aug 20 13:50:31 2022.

 ----------------------------------------------------------
 #P Geom=AllCheck Guess=TCheck SCRF=Check B3LYP/GTBas3 Freq
 ----------------------------------------------------------

 Structure from the checkpoint file:  "G4.Frag_775.chk"
 --------
 Frag_775
 --------
 Charge =  0 Multiplicity = 1

 SCF Done:  E(RB3LYP) =  -319.820241645     A.U. after    1 cycles

  Exact polarizability:  58.738   5.900  60.530   0.328  -1.763  32.519
 Approx polarizability:  80.092   9.557  94.305  -2.215  -3.434  51.286

                      1                      2                      3
                      A                      A                      A
 Frequencies --    104.5781               265.7874               310.1267
 Red. masses --      4.1414                 1.1297                 1.9967
 Frc consts  --      0.0267                 0.0470                 0.1131
 IR Inten    --      3.4907                34.4332                39.2627

                      4                      5                      6
                      A                      A                      A
 Frequencies --    339.6847               408.9268               448.2320
 Red. masses --      2.5748                 1.2216                 2.5454
 Frc consts  --      0.1750                 0.1204                 0.3013
 IR Inten    --     16.1174                34.8369                22.4203

                      7                      8                      9
                      A                      A                      A
 Frequencies --    473.2561               513.9915               532.0441
 Red. masses --      1.5222                 2.4104                 3.7632
 Frc consts  --      0.2009                 0.3752                 0.6276
 IR Inten    --      6.2706                53.7659                14.6375

                     10                     11                     12
                      A                      A                      A
 Frequencies --    613.9249               682.4660               730.9571
 Red. masses --      1.3342                 2.8791                 1.1838
 Frc consts  --      0.2963                 0.7901                 0.3727
 IR Inten    --    201.5924                 8.8083                 4.7708

                     13                     14                     15
                      A                      A                      A
 Frequencies --    750.6013               771.4399               917.2878
 Red. masses --      2.8526                 1.8187                 2.0509
 Frc consts  --      0.9469                 0.6377                 1.0167
 IR Inten    --     54.7006                50.5991               109.7758

                     16                     17                     18
                      A                      A                      A
 Frequencies --    984.8730              1016.0389              1126.4595
 Red. masses --      1.6244                 6.6851                 1.6412
 Frc consts  --      0.9283                 4.0661                 1.2270
 IR Inten    --      0.9630                45.6367                 3.7720

                     19                     20                     21
                      A                      A                      A
 Frequencies --   1224.5388              1321.9790              1400.1363
 Red. masses --      2.1454                 1.1975                 2.9774
 Frc consts  --      1.8954                 1.2330                 3.4390
 IR Inten    --     16.6452                11.6838                42.9244

                     22                     23                     24
                      A                      A                      A
 Frequencies --   1435.0903              1439.7571              1617.5969
 Red. masses --      1.2202                 1.1888                 1.1494
 Frc consts  --      1.4806                 1.4519                 1.7720
 IR Inten    --     42.0349                 4.7836                83.1729

                     25                     26                     27
                      A                      A                      A
 Frequencies --   1681.6860              1700.3959              3189.5724
 Red. masses --      1.1399                 4.8027                 1.0621
 Frc consts  --      1.8993                 8.1816                 6.3664
 IR Inten    --     38.2543               161.4761                 3.3138

                     28                     29                     30
                      A                      A                      A
 Frequencies --   3292.2838              3384.8603              3562.1825
 Red. masses --      1.1127                 1.0573                 1.0809
 Frc consts  --      7.1059                 7.1371                 8.0811
 IR Inten    --      2.5212                12.5940                20.1400

                     31                     32                     33
                      A                      A                      A
 Frequencies --   3567.6185              3575.0542              3684.4536
 Red. masses --      1.0688                 1.0464                 1.0989
 Frc consts  --      8.0150                 7.8799                 8.7892
 IR Inten    --      9.8168                25.5397                34.7156

 - Thermochemistry -
 -------------------
 Temperature   298.150 Kelvin.  Pressure   1.00000 Atm.
 Atom     1 has atomic number  6 and mass  12.00000

 Molecular mass:    89.05891 amu.
 Principal axes and moments of inertia in atomic units:
                           1         2         3
     Eigenvalues --   357.19476 488.18166 810.41734
           X            0.99582   0.09027   0.01399
           Y           -0.09006   0.99582  -0.01495
           Z           -0.01528   0.01363   0.99979
 This molecule is an asymmetric top.
 Rotational symmetry number  1.
 Rotational temperatures (Kelvin)      0.24248     0.17742     0.10688
 Rotational constants (GHZ):           5.05254     3.69686     2.22693
 Zero-point vibrational energy     281528.4 (Joules/Mol)
                                   67.28691 (Kcal/Mol)
 Warning -- explicit consideration of  10 degrees of freedom as
           vibrations may cause significant error
 Vibrational temperatures:    150.46   382.41   446.20   488.73   588.35
          (Kelvin)            644.91   680.91   739.52   765.49   883.30
                              981.92  1051.68  1079.95  1109.93  1319.77
                             1417.01  1461.85  1620.72  1761.84  1902.03
                             2014.48  2064.77  2071.49  2327.36  2419.57
                             2446.49  4589.08  4736.86  4870.05  5125.18
                             5133.00  5143.70  5301.10

 Zero-point correction=                           0.107229 (Hartree/Particle)
 Thermal correction to Energy=                    0.114012
 Thermal correction to Enthalpy=                  0.114956
 Thermal correction to Gibbs Free Energy=         0.077390
 Sum of electronic and zero-point Energies=           -319.713013
 Sum of electronic and thermal Energies=              -319.706229
 Sum of electronic and thermal Enthalpies=            -319.705285
 Sum of electronic and thermal Free Energies=         -319.742852

                     E (Thermal)             CV                S
                      KCal/Mol        Cal/Mol-Kelvin    Cal/Mol-Kelvin
 Total                   71.544             25.721             79.065
 Electronic               0.000              0.000              0.000
 Translational            0.889              2.981             39.373
 Rotational               0.889              2.981             26.449
 Vibrational             69.766             19.760             13.243
 Vibration     1          0.605              1.946              3.367
 Vibration     2          0.672              1.736              1.623
 Vibration     3          0.699              1.654              1.362
 Vibration     4          0.720              1.596              1.214
 Vibration     5          0.773              1.451              0.930
 Vibration     6          0.807              1.365              0.801
 Vibration     7          0.830              1.309              0.728
 Vibration     8          0.869              1.219              0.624
 Vibration     9          0.887              1.179              0.583
 Vibration    10          0.973              1.002              0.426

 Optimization completed.
    -- Stationary point found.
 Normal termination of Gaussian 09 at Sat Aug 20 13:52:37 2022.

 -----------------------------------------------------------------
 #P Geom=AllCheck Guess=TCheck SCRF=Check CCSD(T,E4T,FrzG4)/GTBas1
 -----------------------------------------------------------------

 Structure from the checkpoint file:  "G4.Frag_775.chk"
 --------
 Frag_775
 --------
 Charge =  0 Multiplicity = 1

 SCF Done:  E(RHF) =  -317.883089163     A.U. after   13 cycles
 E2 =    -0.9287054016D+00 EUMP2 =    -0.31881179456424D+03
 CCSD(T)
 CCSD(T)= -0.31888533788D+03
 285\MP4SDTQ=-318.8856399\MP4SDQ=-318.8548209\CCSD=-318.855131\CCSD(T)=
 Normal termination of Gaussian 09 at Sat Aug 20 13:57:54 2022.

 ---------------------------------------------------------
 #P Geom=AllCheck Guess=TCheck SCRF=Check MP4=FrzG4/GTBas2
 ---------------------------------------------------------

 Structure from the checkpoint file:  "G4.Frag_775.chk"
 --------
 Frag_775
 --------
 Charge =  0 Multiplicity = 1

 SCF Done:  E(RHF) =  -317.896008650     A.U. after   12 cycles
 E2 =    -0.9446536718D+00 EUMP2 =    -0.31884066232145D+03
 Normal termination of Gaussian 09 at Sat Aug 20 14:03:14 2022.

 ---------------------------------------------------------
 #P Geom=AllCheck Guess=TCheck SCRF=Check MP4=FrzG4/GTBas3
 ---------------------------------------------------------

 Structure from the checkpoint file:  "G4.Frag_775.chk"
 --------
 Frag_775
 --------
 Charge =  0 Multiplicity = 1

 SCF Done:  E(RHF) =  -317.930619827     A.U. after   11 cycles
 E2 =    -0.1131712034D+01 EUMP2 =    -0.31906233186110D+03
 Normal termination of Gaussian 09 at Sat Aug 20 16:18:51 2022.

 -----------------------------------------------------------
 #P Geom=AllCheck Guess=TCheck SCRF=Check MP2=Full/GTLargeXP
 -----------------------------------------------------------

 Structure from the checkpoint file:  "G4.Frag_775.chk"
 --------
 Frag_775
 --------
 Charge =  0 Multiplicity = 1

 SCF Done:  E(RHF) =  -318.018066034     A.U. after   13 cycles
 E2 =    -0.1475182457D+01 EUMP2 =    -0.31949324849144D+03
 Normal termination of Gaussian 09 at Sat Aug 20 16:24:12 2022.
 SCF Done:  E(RHF) =  -318.043641936     A.U. after   10 cycles
 Normal termination of Gaussian 09 at Sat Aug 20 16:30:14 2022.

                         Standard orientation:
 ---------------------------------------------------------------------
 Center     Atomic      Atomic             Coordinates (Angstroms)
 Number     Number       Type             X           Y           Z
 ---------------------------------------------------------------------
      1          6           0       -1.407395   -1.192644    0.092120
      2          6           0       -0.743380   -0.033570   -0.066719
      3          7           0       -1.317985    1.225190    0.066250
      4          7           0        0.644455   -0.000749   -0.385114
      5          7           0        1.305672    1.121291    0.146206
      6          8           0        1.287366   -1.211645   -0.035785
      7          1           0       -2.467270   -1.177128    0.309795
      8          1           0       -0.938225   -2.143964   -0.098089
      9          1           0       -2.263316    1.285486   -0.279341
     10          1           0       -0.720020    1.976527   -0.243159
     11          1           0        2.208674    1.169223   -0.313057
     12          1           0        1.469773    0.999418    1.149777
     13          1           0        0.891118   -1.479253    0.816551
 ---------------------------------------------------------------------

 SCF Done:  E(RHF) =  -318.049069925     A.U. after    8 cycles

 The electronic state is 1-A.
 Alpha  occ. eigenvalues --  -20.59811 -15.65838 -15.59657 -15.56387 -11.31413
 Alpha  occ. eigenvalues --  -11.19620  -1.44273  -1.26455  -1.20499  -1.05291
 Alpha  occ. eigenvalues --   -0.96080  -0.79559  -0.72896  -0.70565  -0.69631
 Alpha  occ. eigenvalues --   -0.67159  -0.61405  -0.59032  -0.54874  -0.53040
 Alpha  occ. eigenvalues --   -0.50419  -0.44549  -0.42265  -0.31285
 Alpha virt. eigenvalues --    0.03998   0.04517   0.05096   0.05974   0.07136
 Alpha virt. eigenvalues --    0.07770   0.08201   0.09627   0.09956   0.10803
 Alpha virt. eigenvalues --    0.11275   0.12213   0.13134   0.13445   0.14431

 Mulliken charges:
               1
     1  C   -0.561848
     2  C    0.281381
     3  N   -0.714864
     4  N    0.060409
     5  N   -0.604262
     6  O   -0.495826
     7  H    0.173460
     8  H    0.217852
     9  H    0.315836
    10  H    0.351372
    11  H    0.332072
    12  H    0.285556
    13  H    0.358860
 Sum of Mulliken charges =  -0.00000

 Dipole moment (field-independent basis, Debye):
    X=              0.1246    Y=              1.4120    Z=              0.9894  Tot=              1.7287
 Quadrupole moment (field-independent basis, Debye-Ang):
   XX=            -32.3637   YY=            -36.2732   ZZ=            -38.1775
   XY=              1.2137   XZ=              3.6580   YZ=             -3.1532

 Normal termination of Gaussian 09 at Sat Aug 20 18:57:57 2022.
