 Gaussian 09, Revision E.01,
 Gaussian 09:  ES64L-G09RevE.01 30-Nov-2015

 -----
 #P G4
 -----

 ---------
 Frag_1111
 ---------
 Symbolic Z-matrix:
 Charge =  0 Multiplicity = 1

 SCF Done:  E(RB3LYP) =  -340.944933785     A.U. after   12 cycles
 SCF Done:  E(RB3LYP) =  -340.953547218     A.U. after   11 cycles
 SCF Done:  E(RB3LYP) =  -340.954904114     A.U. after   11 cycles
 SCF Done:  E(RB3LYP) =  -340.956044235     A.U. after   11 cycles
 SCF Done:  E(RB3LYP) =  -340.956424675     A.U. after   11 cycles
 SCF Done:  E(RB3LYP) =  -340.956525727     A.U. after   11 cycles
 SCF Done:  E(RB3LYP) =  -340.956709447     A.U. after   10 cycles
 SCF Done:  E(RB3LYP) =  -340.956753717     A.U. after    9 cycles
 SCF Done:  E(RB3LYP) =  -340.956768155     A.U. after    9 cycles
 SCF Done:  E(RB3LYP) =  -340.956772422     A.U. after    8 cycles
 SCF Done:  E(RB3LYP) =  -340.956776309     A.U. after    7 cycles
 SCF Done:  E(RB3LYP) =  -340.956776469     A.U. after    7 cycles
 SCF Done:  E(RB3LYP) =  -340.956776548     A.U. after    6 cycles
 Optimization completed.
    -- Stationary point found.
 Normal termination of Gaussian 09 at Sun Aug 21 19:15:38 2022.

 ----------------------------------------------------------
 #P Geom=AllCheck Guess=TCheck SCRF=Check B3LYP/GTBas3 Freq
 ----------------------------------------------------------

 Structure from the checkpoint file:  "G4.Frag_1111.chk"
 ---------
 Frag_1111
 ---------
 Charge =  0 Multiplicity = 1

 SCF Done:  E(RB3LYP) =  -340.956776548     A.U. after    1 cycles

  Exact polarizability:  49.273   0.851  47.086  -1.137   2.217  42.375
 Approx polarizability:  65.043   0.374  66.960  -1.214   2.240  62.516

                      1                      2                      3
                      A                      A                      A
 Frequencies --    129.0163               187.6168               235.1603
 Red. masses --      2.3393                 1.2712                 1.3603
 Frc consts  --      0.0229                 0.0264                 0.0443
 IR Inten    --     28.9773                 8.9811                 0.0032

                      4                      5                      6
                      A                      A                      A
 Frequencies --    285.8977               310.3252               370.2165
 Red. masses --      1.7899                 4.1697                 1.3578
 Frc consts  --      0.0862                 0.2366                 0.1096
 IR Inten    --      1.0006                 6.7011                55.4920

                      7                      8                      9
                      A                      A                      A
 Frequencies --    408.6832               491.8924               544.7517
 Red. masses --      2.2018                 2.0954                 1.7647
 Frc consts  --      0.2167                 0.2987                 0.3085
 IR Inten    --     25.4944                31.4157                98.0718

                     10                     11                     12
                      A                      A                      A
 Frequencies --    594.7464               698.9349               824.8919
 Red. masses --      3.2346                 4.1903                 4.7075
 Frc consts  --      0.6741                 1.2061                 1.8873
 IR Inten    --     25.1483                39.3951                23.1141

                     13                     14                     15
                      A                      A                      A
 Frequencies --    961.2288              1039.4953              1084.2253
 Red. masses --      2.6832                 3.2423                 2.7147
 Frc consts  --      1.4607                 2.0642                 1.8802
 IR Inten    --     22.8562                79.2109                14.2592

                     16                     17                     18
                      A                      A                      A
 Frequencies --   1100.8613              1118.8906              1158.4236
 Red. masses --      4.8145                 1.2483                 1.4996
 Frc consts  --      3.4377                 0.9207                 1.1856
 IR Inten    --    264.8003                27.3287                18.7277

                     19                     20                     21
                      A                      A                      A
 Frequencies --   1203.8097              1262.1536              1346.7240
 Red. masses --      1.5162                 1.2906                 1.3511
 Frc consts  --      1.2946                 1.2113                 1.4438
 IR Inten    --     31.5369                88.7893                19.2319

                     22                     23                     24
                      A                      A                      A
 Frequencies --   1396.7449              1408.4544              1441.2722
 Red. masses --      1.3755                 1.5661                 1.1758
 Frc consts  --      1.5811                 1.8304                 1.4390
 IR Inten    --      9.0123                27.3481                40.5499

                     25                     26                     27
                      A                      A                      A
 Frequencies --   1467.5831              1482.3562              1507.2353
 Red. masses --      1.2217                 1.0489                 1.0600
 Frc consts  --      1.5504                 1.3580                 1.4188
 IR Inten    --     70.8020                15.6362                 8.6736

                     28                     29                     30
                      A                      A                      A
 Frequencies --   1632.2569              2998.5638              3023.4029
 Red. masses --      1.0716                 1.0428                 1.0859
 Frc consts  --      1.6822                 5.5244                 5.8483
 IR Inten    --     45.7762                40.2086                55.2698

                     31                     32                     33
                      A                      A                      A
 Frequencies --   3073.6769              3115.3156              3460.6516
 Red. masses --      1.0938                 1.0997                 1.0497
 Frc consts  --      6.0886                 6.2882                 7.4070
 IR Inten    --     30.9442                20.7563                 1.2489

                     34                     35                     36
                      A                      A                      A
 Frequencies --   3544.9514              3688.4718              3795.9363
 Red. masses --      1.0927                 1.0636                 1.0648
 Frc consts  --      8.0903                 8.5252                 9.0397
 IR Inten    --      3.1664                63.9923                21.2799

 - Thermochemistry -
 -------------------
 Temperature   298.150 Kelvin.  Pressure   1.00000 Atm.
 Atom     1 has atomic number  6 and mass  12.00000

 Molecular mass:    92.05858 amu.
 Principal axes and moments of inertia in atomic units:
                           1         2         3
     Eigenvalues --   355.71746 607.16545 680.80644
           X            0.99948   0.03206  -0.00351
           Y           -0.03141   0.99230   0.11980
           Z            0.00732  -0.11963   0.99279
 This molecule is an asymmetric top.
 Rotational symmetry number  1.
 Rotational temperatures (Kelvin)      0.24349     0.14265     0.12722
 Rotational constants (GHZ):           5.07352     2.97240     2.65089
 Zero-point vibrational energy     313390.6 (Joules/Mol)
                                   74.90215 (Kcal/Mol)
 Warning -- explicit consideration of  10 degrees of freedom as
           vibrations may cause significant error
 Vibrational temperatures:    185.63   269.94   338.34   411.34   446.49
          (Kelvin)            532.66   588.00   707.72   783.78   855.71
                             1005.61  1186.83  1382.99  1495.60  1559.96
                             1583.89  1609.83  1666.71  1732.01  1815.96
                             1937.63  2009.60  2026.45  2073.67  2111.52
                             2132.78  2168.57  2348.45  4314.26  4350.00
                             4422.33  4482.24  4979.10  5100.39  5306.88
                             5461.50

 Zero-point correction=                           0.119364 (Hartree/Particle)
 Thermal correction to Energy=                    0.126469
 Thermal correction to Enthalpy=                  0.127413
 Thermal correction to Gibbs Free Energy=         0.089078
 Sum of electronic and zero-point Energies=           -340.837412
 Sum of electronic and thermal Energies=              -340.830308
 Sum of electronic and thermal Enthalpies=            -340.829363
 Sum of electronic and thermal Free Energies=         -340.867698

                     E (Thermal)             CV                S
                      KCal/Mol        Cal/Mol-Kelvin    Cal/Mol-Kelvin
 Total                   79.361             25.683             80.683
 Electronic               0.000              0.000              0.000
 Translational            0.889              2.981             39.471
 Rotational               0.889              2.981             26.489
 Vibrational             77.583             19.722             14.723
 Vibration     1          0.612              1.924              2.961
 Vibration     2          0.632              1.857              2.251
 Vibration     3          0.655              1.787              1.839
 Vibration     4          0.684              1.700              1.498
 Vibration     5          0.699              1.654              1.361
 Vibration     6          0.742              1.533              1.079
 Vibration     7          0.773              1.451              0.931
 Vibration     8          0.848              1.268              0.679
 Vibration     9          0.900              1.151              0.555
 Vibration    10          0.952              1.043              0.459

 Optimization completed.
    -- Stationary point found.
 Normal termination of Gaussian 09 at Sun Aug 21 19:18:02 2022.

 -----------------------------------------------------------------
 #P Geom=AllCheck Guess=TCheck SCRF=Check CCSD(T,E4T,FrzG4)/GTBas1
 -----------------------------------------------------------------

 Structure from the checkpoint file:  "G4.Frag_1111.chk"
 ---------
 Frag_1111
 ---------
 Charge =  0 Multiplicity = 1

 SCF Done:  E(RHF) =  -338.950403880     A.U. after   12 cycles
 E2 =    -0.9513191404D+00 EUMP2 =    -0.33990172302070D+03
 CCSD(T)
 CCSD(T)= -0.33997386838D+03
 4SDQ=-339.9469561\CCSD=-339.9473884\CCSD(T)=-339.9738684\RMSD=8.622e-0
 Normal termination of Gaussian 09 at Sun Aug 21 19:23:59 2022.

 ---------------------------------------------------------
 #P Geom=AllCheck Guess=TCheck SCRF=Check MP4=FrzG4/GTBas2
 ---------------------------------------------------------

 Structure from the checkpoint file:  "G4.Frag_1111.chk"
 ---------
 Frag_1111
 ---------
 Charge =  0 Multiplicity = 1

 SCF Done:  E(RHF) =  -338.962533326     A.U. after   12 cycles
 E2 =    -0.9693998608D+00 EUMP2 =    -0.33993193318716D+03
 Normal termination of Gaussian 09 at Sun Aug 21 19:32:26 2022.

 ---------------------------------------------------------
 #P Geom=AllCheck Guess=TCheck SCRF=Check MP4=FrzG4/GTBas3
 ---------------------------------------------------------

 Structure from the checkpoint file:  "G4.Frag_1111.chk"
 ---------
 Frag_1111
 ---------
 Charge =  0 Multiplicity = 1

 SCF Done:  E(RHF) =  -338.998269105     A.U. after   11 cycles
 E2 =    -0.1176960350D+01 EUMP2 =    -0.34017522945525D+03
 Normal termination of Gaussian 09 at Sun Aug 21 21:14:46 2022.

 -----------------------------------------------------------
 #P Geom=AllCheck Guess=TCheck SCRF=Check MP2=Full/GTLargeXP
 -----------------------------------------------------------

 Structure from the checkpoint file:  "G4.Frag_1111.chk"
 ---------
 Frag_1111
 ---------
 Charge =  0 Multiplicity = 1

 SCF Done:  E(RHF) =  -339.093490254     A.U. after   11 cycles
 E2 =    -0.1528945052D+01 EUMP2 =    -0.34062243530545D+03
 Normal termination of Gaussian 09 at Sun Aug 21 21:20:35 2022.
 SCF Done:  E(RHF) =  -339.120512846     A.U. after    8 cycles
 Normal termination of Gaussian 09 at Sun Aug 21 21:25:59 2022.

                         Standard orientation:
 ---------------------------------------------------------------------
 Center     Atomic      Atomic             Coordinates (Angstroms)
 Number     Number       Type             X           Y           Z
 ---------------------------------------------------------------------
      1          6           0       -1.742662   -0.631396   -0.386219
      2          7           0       -0.604533    0.280003   -0.459946
      3          7           0       -0.681376    1.193876    0.693636
      4          6           0        0.665673   -0.438112   -0.297779
      5          8           0        0.845278   -0.998185    0.952900
      6          8           0        1.713972    0.477483   -0.531692
      7          1           0       -2.666322   -0.073278   -0.572690
      8          1           0       -1.820383   -1.140306    0.585511
      9          1           0       -1.640980   -1.383238   -1.173365
     10          1           0       -0.022057    1.937341    0.469242
     11          1           0       -1.602179    1.623200    0.634736
     12          1           0        0.676805   -1.257290   -1.029487
     13          1           0        0.528443   -0.322168    1.574342
     14          1           0        1.535967    0.881250   -1.389790
 ---------------------------------------------------------------------

 SCF Done:  E(RHF) =  -339.126595464     A.U. after    8 cycles

 The electronic state is 1-A.
 Alpha  occ. eigenvalues --  -20.56341 -20.55490 -15.59272 -15.58795 -11.36101
 Alpha  occ. eigenvalues --  -11.25602  -1.42544  -1.33697  -1.27846  -1.08228
 Alpha  occ. eigenvalues --   -0.93824  -0.84231  -0.73304  -0.72006  -0.67050
 Alpha  occ. eigenvalues --   -0.65373  -0.61810  -0.59376  -0.56600  -0.54008
 Alpha  occ. eigenvalues --   -0.53257  -0.49926  -0.48574  -0.46709  -0.37045
 Alpha virt. eigenvalues --    0.03506   0.04486   0.04632   0.05467   0.06898
 Alpha virt. eigenvalues --    0.07431   0.07620   0.08622   0.09333   0.11940
 Alpha virt. eigenvalues --    0.12988   0.13432   0.13697   0.14587   0.14986

 Mulliken charges:
               1
     1  C   -0.481591
     2  N   -0.022761
     3  N   -0.718527
     4  C    0.363304
     5  O   -0.603587
     6  O   -0.598615
     7  H    0.155027
     8  H    0.185463
     9  H    0.173528
    10  H    0.316985
    11  H    0.305981
    12  H    0.149055
    13  H    0.396960
    14  H    0.378779
 Sum of Mulliken charges =  -0.00000

 Dipole moment (field-independent basis, Debye):
    X=             -2.6410    Y=              1.5483    Z=             -1.5656  Tot=              3.4385
 Quadrupole moment (field-independent basis, Debye-Ang):
   XX=            -39.0123   YY=            -34.7680   ZZ=            -35.8951
   XY=              0.8134   XZ=             -2.5539   YZ=              2.0535

 Normal termination of Gaussian 09 at Mon Aug 22 00:08:28 2022.
