 Gaussian 09, Revision E.01,
 Gaussian 09:  ES64L-G09RevE.01 30-Nov-2015

 -----
 #P G4
 -----

 ---------
 Frag_1133
 ---------
 Symbolic Z-matrix:
 Charge =  0 Multiplicity = 1

 SCF Done:  E(RB3LYP) =  -398.944240869     A.U. after   14 cycles
 SCF Done:  E(RB3LYP) =  -398.957176168     A.U. after   12 cycles
 SCF Done:  E(RB3LYP) =  -398.958621242     A.U. after   11 cycles
 SCF Done:  E(RB3LYP) =  -398.960040392     A.U. after   12 cycles
 SCF Done:  E(RB3LYP) =  -398.961513211     A.U. after   12 cycles
 SCF Done:  E(RB3LYP) =  -398.962587571     A.U. after   12 cycles
 SCF Done:  E(RB3LYP) =  -398.963363534     A.U. after   11 cycles
 SCF Done:  E(RB3LYP) =  -398.963704450     A.U. after   12 cycles
 SCF Done:  E(RB3LYP) =  -398.964075139     A.U. after   11 cycles
 SCF Done:  E(RB3LYP) =  -398.964323656     A.U. after   11 cycles
 SCF Done:  E(RB3LYP) =  -398.964914568     A.U. after    8 cycles
 SCF Done:  E(RB3LYP) =  -398.964914865     A.U. after    7 cycles
 SCF Done:  E(RB3LYP) =  -398.964915062     A.U. after    7 cycles
 Optimization completed.
    -- Stationary point found.
 Normal termination of Gaussian 09 at Fri Aug 19 08:56:04 2022.

 ----------------------------------------------------------
 #P Geom=AllCheck Guess=TCheck SCRF=Check B3LYP/GTBas3 Freq
 ----------------------------------------------------------

 Structure from the checkpoint file:  "G4.Frag_1133.chk"
 ---------
 Frag_1133
 ---------
 Charge =  0 Multiplicity = 1

 SCF Done:  E(RB3LYP) =  -398.964915062     A.U. after    1 cycles

  Exact polarizability:  57.054  -4.523  60.819   0.228  -0.647  36.736
 Approx polarizability:  76.085 -10.940  95.604   0.073  -0.050  55.918

                      1                      2                      3
                      A                      A                      A
 Frequencies --     44.2541               234.6788               264.1666
 Red. masses --      4.3381                 1.6501                 1.8011
 Frc consts  --      0.0050                 0.0535                 0.0741
 IR Inten    --      3.1805                87.8697                13.3934

                      4                      5                      6
                      A                      A                      A
 Frequencies --    293.9820               298.6851               341.6272
 Red. masses --      3.9682                 1.1648                 1.2229
 Frc consts  --      0.2021                 0.0612                 0.0841
 IR Inten    --     19.4281                81.9823                40.6251

                      7                      8                      9
                      A                      A                      A
 Frequencies --    390.1288               428.1723               439.2160
 Red. masses --      2.9167                 2.1686                 1.5472
 Frc consts  --      0.2616                 0.2342                 0.1759
 IR Inten    --      2.9722                14.6207                20.7475

                     10                     11                     12
                      A                      A                      A
 Frequencies --    531.0865               562.1410               585.4884
 Red. masses --      3.0117                 2.6920                 5.0309
 Frc consts  --      0.5005                 0.5012                 1.0161
 IR Inten    --     16.1904                34.1386                41.5742

                     13                     14                     15
                      A                      A                      A
 Frequencies --    655.3724               713.9140               754.6330
 Red. masses --      2.0115                 1.3761                 1.5394
 Frc consts  --      0.5090                 0.4132                 0.5165
 IR Inten    --    115.6442                52.7911                44.5443

                     16                     17                     18
                      A                      A                      A
 Frequencies --    766.8097               834.6442               986.5605
 Red. masses --      3.9539                 1.5167                 2.6634
 Frc consts  --      1.3698                 0.6225                 1.5273
 IR Inten    --     23.2313                66.9650                41.8215

                     19                     20                     21
                      A                      A                      A
 Frequencies --    994.5071              1046.0335              1113.0479
 Red. masses --      1.7214                 3.0663                 2.3749
 Frc consts  --      1.0031                 1.9768                 1.7335
 IR Inten    --     31.9051               189.5448               167.6767

                     22                     23                     24
                      A                      A                      A
 Frequencies --   1154.1366              1300.9305              1340.9099
 Red. masses --      1.9154                 1.3844                 1.7270
 Frc consts  --      1.5032                 1.3804                 1.8295
 IR Inten    --    155.5981                43.9730                46.9053

                     25                     26                     27
                      A                      A                      A
 Frequencies --   1363.0652              1434.6929              1465.2707
 Red. masses --      1.9088                 1.3709                 1.7948
 Frc consts  --      2.0895                 1.6626                 2.2704
 IR Inten    --    123.3496                46.1270               129.5418

                     28                     29                     30
                      A                      A                      A
 Frequencies --   1626.7074              1717.7226              3163.2181
 Red. masses --      1.1600                 5.4992                 1.0634
 Frc consts  --      1.8086                 9.5599                 6.2692
 IR Inten    --     51.0534                81.4818                 8.5934

                     31                     32                     33
                      A                      A                      A
 Frequencies --   3267.4055              3550.4708              3654.1560
 Red. masses --      1.1112                 1.0465                 1.0974
 Frc consts  --      6.9897                 7.7725                 8.6334
 IR Inten    --      3.6867                19.6208                22.6613

                     34                     35                     36
                      A                      A                      A
 Frequencies --   3790.0365              3810.0935              3815.6459
 Red. masses --      1.0647                 1.0662                 1.0646
 Frc consts  --      9.0108                 9.1192                 9.1321
 IR Inten    --     34.3581                37.3115                51.7723

 - Thermochemistry -
 -------------------
 Temperature   298.150 Kelvin.  Pressure   1.00000 Atm.
 Atom     1 has atomic number  6 and mass  12.00000

 Molecular mass:   105.04259 amu.
 Principal axes and moments of inertia in atomic units:
                           1         2         3
     Eigenvalues --   504.72853 717.89877 895.24109
           X            0.99995  -0.00940  -0.00440
           Y            0.00929   0.99965  -0.02469
           Z            0.00463   0.02465   0.99969
 This molecule is an asymmetric top.
 Rotational symmetry number  1.
 Warning -- assumption of classical behavior for rotation
           may cause significant error
 Rotational temperatures (Kelvin)      0.17160     0.12065     0.09675
 Rotational constants (GHZ):           3.57567     2.51392     2.01593
 Zero-point vibrational energy     291491.7 (Joules/Mol)
                                   69.66819 (Kcal/Mol)
 Warning -- explicit consideration of  12 degrees of freedom as
           vibrations may cause significant error
 Vibrational temperatures:     63.67   337.65   380.08   422.97   429.74
          (Kelvin)            491.52   561.31   616.04   631.93   764.11
                              808.79   842.39   942.93  1027.16  1085.75
                             1103.27  1200.87  1419.44  1430.87  1505.01
                             1601.43  1660.54  1871.75  1929.27  1961.14
                             2064.20  2108.20  2340.47  2471.42  4551.16
                             4701.06  5108.33  5257.51  5453.01  5481.87
                             5489.86

 Zero-point correction=                           0.111023 (Hartree/Particle)
 Thermal correction to Energy=                    0.119012
 Thermal correction to Enthalpy=                  0.119956
 Thermal correction to Gibbs Free Energy=         0.079171
 Sum of electronic and zero-point Energies=           -398.853892
 Sum of electronic and thermal Energies=              -398.845903
 Sum of electronic and thermal Enthalpies=            -398.844959
 Sum of electronic and thermal Free Energies=         -398.885744

                     E (Thermal)             CV                S
                      KCal/Mol        Cal/Mol-Kelvin    Cal/Mol-Kelvin
 Total                   74.681             30.082             85.839
 Electronic               0.000              0.000              0.000
 Translational            0.889              2.981             39.865
 Rotational               0.889              2.981             27.275
 Vibrational             72.904             24.120             18.700
 Vibration     1          0.595              1.980              5.059
 Vibration     2          0.654              1.788              1.843
 Vibration     3          0.671              1.739              1.634
 Vibration     4          0.689              1.685              1.451
 Vibration     5          0.692              1.676              1.424
 Vibration     6          0.721              1.592              1.205
 Vibration     7          0.758              1.491              1.000
 Vibration     8          0.790              1.409              0.865
 Vibration     9          0.799              1.385              0.829
 Vibration    10          0.886              1.181              0.585
 Vibration    11          0.918              1.113              0.520
 Vibration    12          0.942              1.063              0.475

 Optimization completed.
    -- Stationary point found.
 Normal termination of Gaussian 09 at Fri Aug 19 08:59:31 2022.

 -----------------------------------------------------------------
 #P Geom=AllCheck Guess=TCheck SCRF=Check CCSD(T,E4T,FrzG4)/GTBas1
 -----------------------------------------------------------------

 Structure from the checkpoint file:  "G4.Frag_1133.chk"
 ---------
 Frag_1133
 ---------
 Charge =  0 Multiplicity = 1

 SCF Done:  E(RHF) =  -396.679397101     A.U. after   12 cycles
 E2 =    -0.1084382700D+01 EUMP2 =    -0.39776377980056D+03
 CCSD(T)
 CCSD(T)= -0.39783798375D+03
 \MP4SDQ=-397.8063067\CCSD=-397.8059497\CCSD(T)=-397.8379837\RMSD=8.246
 Normal termination of Gaussian 09 at Fri Aug 19 09:10:54 2022.

 ---------------------------------------------------------
 #P Geom=AllCheck Guess=TCheck SCRF=Check MP4=FrzG4/GTBas2
 ---------------------------------------------------------

 Structure from the checkpoint file:  "G4.Frag_1133.chk"
 ---------
 Frag_1133
 ---------
 Charge =  0 Multiplicity = 1

 SCF Done:  E(RHF) =  -396.695032354     A.U. after   12 cycles
 E2 =    -0.1105054119D+01 EUMP2 =    -0.39780008647348D+03
 Normal termination of Gaussian 09 at Fri Aug 19 09:28:09 2022.

 ---------------------------------------------------------
 #P Geom=AllCheck Guess=TCheck SCRF=Check MP4=FrzG4/GTBas3
 ---------------------------------------------------------

 Structure from the checkpoint file:  "G4.Frag_1133.chk"
 ---------
 Frag_1133
 ---------
 Charge =  0 Multiplicity = 1

 SCF Done:  E(RHF) =  -396.737525094     A.U. after   11 cycles
 E2 =    -0.1334825215D+01 EUMP2 =    -0.39807235030877D+03
 Normal termination of Gaussian 09 at Fri Aug 19 13:06:54 2022.

 -----------------------------------------------------------
 #P Geom=AllCheck Guess=TCheck SCRF=Check MP2=Full/GTLargeXP
 -----------------------------------------------------------

 Structure from the checkpoint file:  "G4.Frag_1133.chk"
 ---------
 Frag_1133
 ---------
 Charge =  0 Multiplicity = 1

 SCF Done:  E(RHF) =  -396.850604118     A.U. after   12 cycles
 E2 =    -0.1743028860D+01 EUMP2 =    -0.39859363297889D+03
 Normal termination of Gaussian 09 at Fri Aug 19 13:16:22 2022.
 SCF Done:  E(RHF) =  -396.882594035     A.U. after    9 cycles
 Normal termination of Gaussian 09 at Fri Aug 19 13:24:29 2022.

                         Standard orientation:
 ---------------------------------------------------------------------
 Center     Atomic      Atomic             Coordinates (Angstroms)
 Number     Number       Type             X           Y           Z
 ---------------------------------------------------------------------
      1          6           0       -1.624977    1.206503    0.003141
      2          6           0       -0.946316    0.054562    0.046374
      3          7           0       -1.496977   -1.220013   -0.034718
      4          6           0        0.586302    0.040062    0.030569
      5          8           0        1.114636   -1.148641    0.566312
      6          8           0        1.071961    0.082133   -1.297894
      7          8           0        1.031890    1.117256    0.777762
      8          1           0       -1.104273    2.152395    0.033672
      9          1           0       -2.708456    1.224663   -0.044646
     10          1           0       -2.486267   -1.259851    0.164710
     11          1           0       -0.968223   -1.902377    0.491799
     12          1           0        1.409757   -1.671301   -0.188404
     13          1           0        0.502371    0.684185   -1.790240
     14          1           0        1.995980    1.099634    0.726195
 ---------------------------------------------------------------------

 SCF Done:  E(RHF) =  -396.889637304     A.U. after    8 cycles

 The electronic state is 1-A.
 Alpha  occ. eigenvalues --  -20.58172 -20.57852 -20.57426 -15.56391 -11.41076
 Alpha  occ. eigenvalues --  -11.28081 -11.20809  -1.47081  -1.35940  -1.35203
 Alpha  occ. eigenvalues --   -1.22034  -1.01856  -0.90859  -0.79117  -0.76083
 Alpha  occ. eigenvalues --   -0.73663  -0.70931  -0.64672  -0.64206  -0.61755
 Alpha  occ. eigenvalues --   -0.57930  -0.56311  -0.54402  -0.53305  -0.50203
 Alpha  occ. eigenvalues --   -0.48752  -0.47612  -0.32731
 Alpha virt. eigenvalues --    0.03644   0.04295   0.04674   0.05685   0.06412
 Alpha virt. eigenvalues --    0.06926   0.07627   0.08623   0.08991   0.10003
 Alpha virt. eigenvalues --    0.12298   0.12375   0.13119   0.13448   0.13943

 Mulliken charges:
               1
     1  C   -0.508950
     2  C    0.204068
     3  N   -0.747809
     4  C    0.686279
     5  O   -0.644335
     6  O   -0.626496
     7  O   -0.565309
     8  H    0.215958
     9  H    0.164079
    10  H    0.307342
    11  H    0.336002
    12  H    0.407901
    13  H    0.394912
    14  H    0.376359
 Sum of Mulliken charges =  -0.00000

 Dipole moment (field-independent basis, Debye):
    X=             -0.4030    Y=             -0.6315    Z=             -0.7976  Tot=              1.0942
 Quadrupole moment (field-independent basis, Debye-Ang):
   XX=            -35.7757   YY=            -39.0933   ZZ=            -45.3244
   XY=              1.7563   XZ=             -1.0326   YZ=             -2.6238

 Normal termination of Gaussian 09 at Fri Aug 19 17:06:36 2022.
