 Gaussian 09, Revision E.01,
 Gaussian 09:  ES64L-G09RevE.01 30-Nov-2015

 -----
 #P G4
 -----

 --------
 Frag_547
 --------
 Symbolic Z-matrix:
 Charge =  0 Multiplicity = 1

 SCF Done:  E(RB3LYP) =  -284.396851710     A.U. after   13 cycles
 SCF Done:  E(RB3LYP) =  -284.417036175     A.U. after   12 cycles
 SCF Done:  E(RB3LYP) =  -284.418647702     A.U. after   10 cycles
 SCF Done:  E(RB3LYP) =  -284.418855302     A.U. after   10 cycles
 SCF Done:  E(RB3LYP) =  -284.420326635     A.U. after   12 cycles
 SCF Done:  E(RB3LYP) =  -284.420756773     A.U. after   13 cycles
 SCF Done:  E(RB3LYP) =  -284.413856999     A.U. after   12 cycles
 SCF Done:  E(RB3LYP) =  -284.420797764     A.U. after    8 cycles
 SCF Done:  E(RB3LYP) =  -284.421026017     A.U. after   11 cycles
 SCF Done:  E(RB3LYP) =  -284.421254823     A.U. after   10 cycles
 SCF Done:  E(RB3LYP) =  -284.427746110     A.U. after   11 cycles
 SCF Done:  E(RB3LYP) =  -284.427780881     A.U. after   10 cycles
 SCF Done:  E(RB3LYP) =  -284.427781530     A.U. after    8 cycles
 Optimization completed.
    -- Stationary point found.
 Normal termination of Gaussian 09 at Wed Aug 24 16:06:20 2022.

 ----------------------------------------------------------
 #P Geom=AllCheck Guess=TCheck SCRF=Check B3LYP/GTBas3 Freq
 ----------------------------------------------------------

 Structure from the checkpoint file:  "G4.Frag_547.chk"
 --------
 Frag_547
 --------
 Charge =  0 Multiplicity = 1

 SCF Done:  E(RB3LYP) =  -284.427781530     A.U. after    1 cycles

  Exact polarizability:  39.838  -1.085  41.783   0.273  -0.312  26.233
 Approx polarizability:  52.464  -3.525  67.643  -0.279  -0.246  38.702

                      1                      2                      3
                      A                      A                      A
 Frequencies --    125.4202               278.7180               323.2173
 Red. masses --      2.5730                 4.7481                 1.1326
 Frc consts  --      0.0238                 0.2173                 0.0697
 IR Inten    --      6.4283                 1.5690               125.7801

                      4                      5                      6
                      A                      A                      A
 Frequencies --    461.0319               492.4021               607.8006
 Red. masses --      5.1266                 1.5672                 2.9023
 Frc consts  --      0.6420                 0.2239                 0.6317
 IR Inten    --     16.5485                36.6034                29.6219

                      7                      8                      9
                      A                      A                      A
 Frequencies --    630.0367               866.2784               900.8370
 Red. masses --      1.7309                 3.8470                 1.1555
 Frc consts  --      0.4048                 1.7009                 0.5525
 IR Inten    --     88.7204                14.6239                24.8368

                     10                     11                     12
                      A                      A                      A
 Frequencies --    999.6556              1090.8024              1115.7101
 Red. masses --      1.6074                 2.8252                 2.7609
 Frc consts  --      0.9464                 1.9806                 2.0249
 IR Inten    --     20.1525               241.2331                29.6441

                     13                     14                     15
                      A                      A                      A
 Frequencies --   1204.5835              1242.9397              1356.5249
 Red. masses --      1.1308                 1.3741                 1.3581
 Frc consts  --      0.9668                 1.2507                 1.4725
 IR Inten    --     23.3348                89.4237                14.3076

                     16                     17                     18
                      A                      A                      A
 Frequencies --   1399.3179              1464.0976              1481.7039
 Red. masses --      1.2042                 2.3345                 1.0942
 Frc consts  --      1.3892                 2.9484                 1.4153
 IR Inten    --     34.2485                32.1037                 3.9635

                     19                     20                     21
                      A                      A                      A
 Frequencies --   1758.3185              3014.4775              3078.0415
 Red. masses --      8.5181                 1.0659                 1.0957
 Frc consts  --     15.5162                 5.7069                 6.1165
 IR Inten    --    201.5851                31.8184                11.9375

                     22                     23                     24
                      A                      A                      A
 Frequencies --   3490.2246              3751.8630              3817.1388
 Red. masses --      1.0731                 1.0640                 1.0663
 Frc consts  --      7.7020                 8.8241                 9.1543
 IR Inten    --      6.5239                46.4915                27.7484

 - Thermochemistry -
 -------------------
 Temperature   298.150 Kelvin.  Pressure   1.00000 Atm.
 Atom     1 has atomic number  7 and mass  14.00307

 Molecular mass:    75.03203 amu.
 Principal axes and moments of inertia in atomic units:
                           1         2         3
     Eigenvalues --   178.46151 460.67254 620.17331
           X            0.99993   0.00625   0.00958
           Y           -0.00617   0.99995  -0.00810
           Z           -0.00963   0.00804   0.99992
 This molecule is an asymmetric top.
 Rotational symmetry number  1.
 Rotational temperatures (Kelvin)      0.48534     0.18802     0.13966
 Rotational constants (GHZ):          10.11278     3.91762     2.91006
 Zero-point vibrational energy     209054.3 (Joules/Mol)
                                   49.96517 (Kcal/Mol)
 Warning -- explicit consideration of   6 degrees of freedom as
           vibrations may cause significant error
 Vibrational temperatures:    180.45   401.01   465.04   663.32   708.46
          (Kelvin)            874.49   906.48  1246.38  1296.10  1438.28
                             1569.42  1605.26  1733.12  1788.31  1951.73
                             2013.30  2106.51  2131.84  2529.82  4337.16
                             4428.61  5021.65  5398.09  5492.00

 Zero-point correction=                           0.079625 (Hartree/Particle)
 Thermal correction to Energy=                    0.085029
 Thermal correction to Enthalpy=                  0.085973
 Thermal correction to Gibbs Free Energy=         0.051247
 Sum of electronic and zero-point Energies=           -284.348157
 Sum of electronic and thermal Energies=              -284.342753
 Sum of electronic and thermal Enthalpies=            -284.341809
 Sum of electronic and thermal Free Energies=         -284.376535

                     E (Thermal)             CV                S
                      KCal/Mol        Cal/Mol-Kelvin    Cal/Mol-Kelvin
 Total                   53.356             18.601             73.087
 Electronic               0.000              0.000              0.000
 Translational            0.889              2.981             38.862
 Rotational               0.889              2.981             25.436
 Vibrational             51.579             12.640              8.789
 Vibration     1          0.610              1.928              3.015
 Vibration     2          0.679              1.713              1.542
 Vibration     3          0.708              1.629              1.294
 Vibration     4          0.819              1.336              0.763
 Vibration     5          0.848              1.267              0.677
 Vibration     6          0.967              1.015              0.436

 Optimization completed.
    -- Stationary point found.
 Normal termination of Gaussian 09 at Wed Aug 24 16:07:23 2022.

 -----------------------------------------------------------------
 #P Geom=AllCheck Guess=TCheck SCRF=Check CCSD(T,E4T,FrzG4)/GTBas1
 -----------------------------------------------------------------

 Structure from the checkpoint file:  "G4.Frag_547.chk"
 --------
 Frag_547
 --------
 Charge =  0 Multiplicity = 1

 SCF Done:  E(RHF) =  -282.797726398     A.U. after   13 cycles
 E2 =    -0.7719510604D+00 EUMP2 =    -0.28356967745789D+03
 CCSD(T)
 CCSD(T)= -0.28362362431D+03
 Normal termination of Gaussian 09 at Wed Aug 24 16:08:53 2022.

 ---------------------------------------------------------
 #P Geom=AllCheck Guess=TCheck SCRF=Check MP4=FrzG4/GTBas2
 ---------------------------------------------------------

 Structure from the checkpoint file:  "G4.Frag_547.chk"
 --------
 Frag_547
 --------
 Charge =  0 Multiplicity = 1

 SCF Done:  E(RHF) =  -282.808911537     A.U. after   12 cycles
 E2 =    -0.7851410360D+00 EUMP2 =    -0.28359405257266D+03
 Normal termination of Gaussian 09 at Wed Aug 24 16:10:20 2022.

 ---------------------------------------------------------
 #P Geom=AllCheck Guess=TCheck SCRF=Check MP4=FrzG4/GTBas3
 ---------------------------------------------------------

 Structure from the checkpoint file:  "G4.Frag_547.chk"
 --------
 Frag_547
 --------
 Charge =  0 Multiplicity = 1

 SCF Done:  E(RHF) =  -282.838220928     A.U. after   11 cycles
 E2 =    -0.9470745527D+00 EUMP2 =    -0.28378529548078D+03
 Normal termination of Gaussian 09 at Wed Aug 24 16:41:55 2022.

 -----------------------------------------------------------
 #P Geom=AllCheck Guess=TCheck SCRF=Check MP2=Full/GTLargeXP
 -----------------------------------------------------------

 Structure from the checkpoint file:  "G4.Frag_547.chk"
 --------
 Frag_547
 --------
 Charge =  0 Multiplicity = 1

 SCF Done:  E(RHF) =  -282.919407718     A.U. after   12 cycles
 E2 =    -0.1237644231D+01 EUMP2 =    -0.28415705194886D+03
 Normal termination of Gaussian 09 at Wed Aug 24 16:43:54 2022.
 SCF Done:  E(RHF) =  -282.942466852     A.U. after    9 cycles
 Normal termination of Gaussian 09 at Wed Aug 24 16:46:31 2022.

                         Standard orientation:
 ---------------------------------------------------------------------
 Center     Atomic      Atomic             Coordinates (Angstroms)
 Number     Number       Type             X           Y           Z
 ---------------------------------------------------------------------
      1          7           0        0.647265    1.359106    0.039385
      2          6           0        0.543329    0.098776    0.020916
      3          8           0        1.628765   -0.699057   -0.071691
      4          6           0       -0.729264   -0.724835    0.095943
      5          8           0       -1.892141    0.067861    0.005565
      6          1           0       -0.279629    1.772480    0.143259
      7          1           0        2.397718   -0.110403   -0.083390
      8          1           0       -0.688335   -1.511503   -0.670486
      9          1           0       -0.763762   -1.231087    1.066865
     10          1           0       -1.974224    0.372702   -0.904089
 ---------------------------------------------------------------------

 SCF Done:  E(RHF) =  -282.947464383     A.U. after    8 cycles

 The electronic state is 1-A.
 Alpha  occ. eigenvalues --  -20.60299 -20.58294 -15.54060 -11.34625 -11.30661
 Alpha  occ. eigenvalues --   -1.43514  -1.38981  -1.19783  -0.99000  -0.82006
 Alpha  occ. eigenvalues --   -0.73551  -0.70559  -0.67946  -0.64016  -0.59504
 Alpha  occ. eigenvalues --   -0.58974  -0.52873  -0.49551  -0.44123  -0.41565
 Alpha virt. eigenvalues --    0.03994   0.04612   0.04987   0.05547   0.07459
 Alpha virt. eigenvalues --    0.07616   0.07941   0.10661   0.11545   0.13340
 Alpha virt. eigenvalues --    0.14081   0.14625   0.15114   0.15600   0.16238

 Mulliken charges:
               1
     1  N   -0.707458
     2  C    0.437086
     3  O   -0.527772
     4  C   -0.092579
     5  O   -0.566379
     6  H    0.298566
     7  H    0.406047
     8  H    0.185560
     9  H    0.196623
    10  H    0.370305
 Sum of Mulliken charges =  -0.00000

 Dipole moment (field-independent basis, Debye):
    X=             -0.4047    Y=             -1.1033    Z=             -1.1216  Tot=              1.6245
 Quadrupole moment (field-independent basis, Debye-Ang):
   XX=            -29.7857   YY=            -32.5919   ZZ=            -28.3535
   XY=             -1.4057   XZ=              2.8785   YZ=             -0.8555

 Normal termination of Gaussian 09 at Wed Aug 24 17:59:05 2022.
