 Gaussian 09, Revision E.01,
 Gaussian 09:  ES64L-G09RevE.01 30-Nov-2015

 -----
 #P G4
 -----

 --------
 Frag_698
 --------
 Symbolic Z-matrix:
 Charge =  0 Multiplicity = 1

 SCF Done:  E(RB3LYP) =  -245.823738595     A.U. after   12 cycles
 SCF Done:  E(RB3LYP) =  -245.829822048     A.U. after   11 cycles
 SCF Done:  E(RB3LYP) =  -245.830442852     A.U. after   10 cycles
 SCF Done:  E(RB3LYP) =  -245.830576832     A.U. after   10 cycles
 SCF Done:  E(RB3LYP) =  -245.830600493     A.U. after    9 cycles
 SCF Done:  E(RB3LYP) =  -245.830620063     A.U. after    9 cycles
 SCF Done:  E(RB3LYP) =  -245.830635703     A.U. after    9 cycles
 SCF Done:  E(RB3LYP) =  -245.830640019     A.U. after    9 cycles
 SCF Done:  E(RB3LYP) =  -245.830640328     A.U. after    7 cycles
 Optimization completed.
    -- Stationary point found.
 Normal termination of Gaussian 09 at Thu Aug 25 13:28:28 2022.

 ----------------------------------------------------------
 #P Geom=AllCheck Guess=TCheck SCRF=Check B3LYP/GTBas3 Freq
 ----------------------------------------------------------

 Structure from the checkpoint file:  "G4.Frag_698.chk"
 --------
 Frag_698
 --------
 Charge =  0 Multiplicity = 1

 SCF Done:  E(RB3LYP) =  -245.830640328     A.U. after    1 cycles

  Exact polarizability:  51.720   0.472  48.340   1.899   1.584  40.465
 Approx polarizability:  66.082   1.096  69.381   2.817   1.950  58.357

                      1                      2                      3
                      A                      A                      A
 Frequencies --    122.0661               168.9448               228.1195
 Red. masses --      1.5180                 1.3159                 1.2010
 Frc consts  --      0.0133                 0.0221                 0.0368
 IR Inten    --     10.2184                27.2548                 2.1780

                      4                      5                      6
                      A                      A                      A
 Frequencies --    278.9325               375.5548               442.7440
 Red. masses --      2.4503                 1.1888                 2.1774
 Frc consts  --      0.1123                 0.0988                 0.2515
 IR Inten    --      3.3178                37.1831                 2.4629

                      7                      8                      9
                      A                      A                      A
 Frequencies --    480.1359               569.0308               778.4474
 Red. masses --      2.5820                 2.7456                 3.0388
 Frc consts  --      0.3507                 0.5238                 1.0849
 IR Inten    --     34.5978                 9.4445                 4.5101

                     10                     11                     12
                      A                      A                      A
 Frequencies --    795.6666               897.4183               933.8806
 Red. masses --      1.3453                 2.3082                 2.8929
 Frc consts  --      0.5018                 1.0952                 1.4865
 IR Inten    --      1.5274                21.1010                78.0058

                     13                     14                     15
                      A                      A                      A
 Frequencies --   1019.4239              1086.9776              1116.8883
 Red. masses --      2.3604                 1.7443                 1.3002
 Frc consts  --      1.4453                 1.2142                 0.9556
 IR Inten    --     28.0321                 9.2738                40.9853

                     16                     17                     18
                      A                      A                      A
 Frequencies --   1170.0691              1183.9189              1315.5063
 Red. masses --      1.5200                 1.9437                 1.2147
 Frc consts  --      1.2261                 1.6051                 1.2385
 IR Inten    --     36.0855                 3.7660                 1.9359

                     19                     20                     21
                      A                      A                      A
 Frequencies --   1338.9042              1376.2092              1398.2725
 Red. masses --      1.2001                 1.2594                 1.3670
 Frc consts  --      1.2676                 1.4054                 1.5748
 IR Inten    --      1.3986                 6.0833                 2.3207

                     22                     23                     24
                      A                      A                      A
 Frequencies --   1399.3786              1477.4526              1491.1314
 Red. masses --      1.4142                 1.0846                 1.0421
 Frc consts  --      1.6316                 1.3949                 1.3651
 IR Inten    --     20.1085                 1.5640                 3.6389

                     25                     26                     27
                      A                      A                      A
 Frequencies --   1512.1771              1643.9436              1676.7500
 Red. masses --      1.0561                 1.0708                 1.0797
 Frc consts  --      1.4229                 1.7050                 1.7885
 IR Inten    --      2.4696                31.7829                16.2073

                     28                     29                     30
                      A                      A                      A
 Frequencies --   3028.7310              3045.9748              3094.4518
 Red. masses --      1.0677                 1.0355                 1.0959
 Frc consts  --      5.7705                 5.6604                 6.1826
 IR Inten    --     39.1217                17.2041                 9.4384

                     31                     32                     33
                      A                      A                      A
 Frequencies --   3112.0360              3130.9298              3384.8689
 Red. masses --      1.1003                 1.1020                 1.0550
 Frc consts  --      6.2786                 6.3650                 7.1220
 IR Inten    --     27.9993                27.4488                10.8090

                     34                     35                     36
                      A                      A                      A
 Frequencies --   3416.5607              3495.3856              3523.4668
 Red. masses --      1.0500                 1.0913                 1.0847
 Frc consts  --      7.2213                 7.8554                 7.9343
 IR Inten    --      3.3654                 0.4278                 0.2224

 - Thermochemistry -
 -------------------
 Temperature   298.150 Kelvin.  Pressure   1.00000 Atm.
 Atom     1 has atomic number  6 and mass  12.00000

 Molecular mass:    75.07965 amu.
 Principal axes and moments of inertia in atomic units:
                           1         2         3
     Eigenvalues --   261.18699 437.99438 534.36387
           X            0.99999  -0.00322   0.00145
           Y            0.00315   0.99875   0.04982
           Z           -0.00160  -0.04981   0.99876
 This molecule is an asymmetric top.
 Rotational symmetry number  1.
 Rotational temperatures (Kelvin)      0.33162     0.19775     0.16209
 Rotational constants (GHZ):           6.90977     4.12047     3.37736
 Zero-point vibrational energy     332025.6 (Joules/Mol)
                                   79.35603 (Kcal/Mol)
 Warning -- explicit consideration of   8 degrees of freedom as
           vibrations may cause significant error
 Vibrational temperatures:    175.63   243.07   328.21   401.32   540.34
          (Kelvin)            637.01   690.81   818.71  1120.01  1144.79
                             1291.18  1343.64  1466.72  1563.92  1606.95
                             1683.47  1703.39  1892.72  1926.38  1980.06
                             2011.80  2013.39  2125.72  2145.40  2175.68
                             2365.27  2412.47  4357.66  4382.47  4452.22
                             4477.52  4504.70  4870.07  4915.66  5029.07
                             5069.48

 Zero-point correction=                           0.126462 (Hartree/Particle)
 Thermal correction to Energy=                    0.133035
 Thermal correction to Enthalpy=                  0.133979
 Thermal correction to Gibbs Free Energy=         0.097074
 Sum of electronic and zero-point Energies=           -245.704178
 Sum of electronic and thermal Energies=              -245.697605
 Sum of electronic and thermal Enthalpies=            -245.696661
 Sum of electronic and thermal Free Energies=         -245.733566

                     E (Thermal)             CV                S
                      KCal/Mol        Cal/Mol-Kelvin    Cal/Mol-Kelvin
 Total                   83.481             23.147             77.674
 Electronic               0.000              0.000              0.000
 Translational            0.889              2.981             38.864
 Rotational               0.889              2.981             25.617
 Vibrational             81.703             17.185             13.193
 Vibration     1          0.610              1.931              3.067
 Vibration     2          0.625              1.881              2.447
 Vibration     3          0.651              1.798              1.894
 Vibration     4          0.679              1.713              1.540
 Vibration     5          0.746              1.522              1.057
 Vibration     6          0.802              1.377              0.818
 Vibration     7          0.837              1.294              0.710
 Vibration     8          0.925              1.098              0.506

 Optimization completed.
    -- Stationary point found.
 Normal termination of Gaussian 09 at Thu Aug 25 13:30:24 2022.

 -----------------------------------------------------------------
 #P Geom=AllCheck Guess=TCheck SCRF=Check CCSD(T,E4T,FrzG4)/GTBas1
 -----------------------------------------------------------------

 Structure from the checkpoint file:  "G4.Frag_698.chk"
 --------
 Frag_698
 --------
 Charge =  0 Multiplicity = 1

 SCF Done:  E(RHF) =  -244.228203822     A.U. after   12 cycles
 E2 =    -0.7602454129D+00 EUMP2 =    -0.24498844923518D+03
 CCSD(T)
 CCSD(T)= -0.24506395152D+03
 45.0398842\CCSD=-245.0411902\CCSD(T)=-245.0639515\RMSD=9.271e-09\PG=C0
 Normal termination of Gaussian 09 at Thu Aug 25 13:33:12 2022.

 ---------------------------------------------------------
 #P Geom=AllCheck Guess=TCheck SCRF=Check MP4=FrzG4/GTBas2
 ---------------------------------------------------------

 Structure from the checkpoint file:  "G4.Frag_698.chk"
 --------
 Frag_698
 --------
 Charge =  0 Multiplicity = 1

 SCF Done:  E(RHF) =  -244.236438372     A.U. after   12 cycles
 E2 =    -0.7724606499D+00 EUMP2 =    -0.24500889902228D+03
 Normal termination of Gaussian 09 at Thu Aug 25 13:37:02 2022.

 ---------------------------------------------------------
 #P Geom=AllCheck Guess=TCheck SCRF=Check MP4=FrzG4/GTBas3
 ---------------------------------------------------------

 Structure from the checkpoint file:  "G4.Frag_698.chk"
 --------
 Frag_698
 --------
 Charge =  0 Multiplicity = 1

 SCF Done:  E(RHF) =  -244.263818543     A.U. after   11 cycles
 E2 =    -0.9374548358D+00 EUMP2 =    -0.24520127337913D+03
 Normal termination of Gaussian 09 at Thu Aug 25 14:38:24 2022.

 -----------------------------------------------------------
 #P Geom=AllCheck Guess=TCheck SCRF=Check MP2=Full/GTLargeXP
 -----------------------------------------------------------

 Structure from the checkpoint file:  "G4.Frag_698.chk"
 --------
 Frag_698
 --------
 Charge =  0 Multiplicity = 1

 SCF Done:  E(RHF) =  -244.326452009     A.U. after   11 cycles
 E2 =    -0.1219322960D+01 EUMP2 =    -0.24554577496865D+03
 Normal termination of Gaussian 09 at Thu Aug 25 14:41:55 2022.
 SCF Done:  E(RHF) =  -244.345557522     A.U. after    9 cycles
 Normal termination of Gaussian 09 at Thu Aug 25 14:46:10 2022.

                         Standard orientation:
 ---------------------------------------------------------------------
 Center     Atomic      Atomic             Coordinates (Angstroms)
 Number     Number       Type             X           Y           Z
 ---------------------------------------------------------------------
      1          6           0        1.729019   -0.033250   -0.509581
      2          6           0        0.829926    0.045981    0.731054
      3          7           0       -0.621592   -0.006251    0.504896
      4          7           0       -0.995781    1.118261   -0.380534
      5          7           0       -0.943998   -1.220006   -0.156297
      6          1           0        1.606521   -0.993060   -1.019493
      7          1           0        1.503251    0.765757   -1.219937
      8          1           0        2.779046    0.054167   -0.213149
      9          1           0        1.050939   -0.783157    1.408104
     10          1           0        1.028184    0.974106    1.282255
     11          1           0       -0.636656    1.953147    0.086420
     12          1           0       -2.006492    1.196377   -0.258143
     13          1           0       -0.814033   -1.099548   -1.165035
     14          1           0       -1.934829   -1.388202   -0.006310
 ---------------------------------------------------------------------

 SCF Done:  E(RHF) =  -244.349780832     A.U. after    8 cycles

 The electronic state is 1-A.
 Alpha  occ. eigenvalues --  -15.60341 -15.57352 -15.56608 -11.24603 -11.20784
 Alpha  occ. eigenvalues --   -1.31568  -1.13698  -1.04642  -0.93837  -0.80436
 Alpha  occ. eigenvalues --   -0.69308  -0.66782  -0.64947  -0.57887  -0.57012
 Alpha  occ. eigenvalues --   -0.56185  -0.50237  -0.49621  -0.47525  -0.41662
 Alpha  occ. eigenvalues --   -0.35245
 Alpha virt. eigenvalues --    0.04164   0.04509   0.05077   0.05655   0.07734
 Alpha virt. eigenvalues --    0.07903   0.07966   0.08176   0.09265   0.10891
 Alpha virt. eigenvalues --    0.12113   0.12292   0.12547   0.14688   0.15039

 Mulliken charges:
               1
     1  C   -0.527261
     2  C   -0.211117
     3  N    0.045120
     4  N   -0.650544
     5  N   -0.695118
     6  H    0.174528
     7  H    0.180697
     8  H    0.162439
     9  H    0.175698
    10  H    0.147239
    11  H    0.292455
    12  H    0.289559
    13  H    0.303487
    14  H    0.312818
 Sum of Mulliken charges =  -0.00000

 Dipole moment (field-independent basis, Debye):
    X=             -0.5927    Y=              1.1546    Z=             -0.1361  Tot=              1.3050
 Quadrupole moment (field-independent basis, Debye-Ang):
   XX=            -28.0427   YY=            -32.3757   ZZ=            -34.8888
   XY=              0.1381   XZ=              1.5146   YZ=              2.6479

 Normal termination of Gaussian 09 at Thu Aug 25 16:38:56 2022.
