 Gaussian 09, Revision E.01,
 Gaussian 09:  ES64L-G09RevE.01 30-Nov-2015

 -----
 #P G4
 -----

 --------
 Frag_879
 --------
 Symbolic Z-matrix:
 Charge =  0 Multiplicity = 1

 SCF Done:  E(RB3LYP) =  -205.244981356     A.U. after   16 cycles
 SCF Done:  E(RB3LYP) =  -205.271455345     A.U. after   14 cycles
 SCF Done:  E(RB3LYP) =  -205.276746781     A.U. after   13 cycles
 SCF Done:  E(RB3LYP) =  -205.277414871     A.U. after   11 cycles
 SCF Done:  E(RB3LYP) =  -205.277652547     A.U. after   11 cycles
 SCF Done:  E(RB3LYP) =  -205.277851341     A.U. after   11 cycles
 SCF Done:  E(RB3LYP) =  -205.278015564     A.U. after   12 cycles
 SCF Done:  E(RB3LYP) =  -205.278153980     A.U. after   11 cycles
 SCF Done:  E(RB3LYP) =  -205.278237676     A.U. after   11 cycles
 SCF Done:  E(RB3LYP) =  -205.278260234     A.U. after   10 cycles
 SCF Done:  E(RB3LYP) =  -205.278270480     A.U. after   11 cycles
 SCF Done:  E(RB3LYP) =  -205.278273855     A.U. after    9 cycles
 SCF Done:  E(RB3LYP) =  -205.278274276     A.U. after    7 cycles
 Optimization completed.
    -- Stationary point found.
 Normal termination of Gaussian 09 at Tue Aug 30 10:21:06 2022.

 ----------------------------------------------------------
 #P Geom=AllCheck Guess=TCheck SCRF=Check B3LYP/GTBas3 Freq
 ----------------------------------------------------------

 Structure from the checkpoint file:  "G4.Frag_879.chk"
 --------
 Frag_879
 --------
 Charge =  0 Multiplicity = 1

 SCF Done:  E(RB3LYP) =  -205.278274276     A.U. after    1 cycles

  Exact polarizability:  57.073  -3.481  33.379  -0.004   0.002  21.180
 Approx polarizability:  88.375  -2.657  51.447  -0.009   0.002  30.921

                      1                      2                      3
                      A                      A                      A
 Frequencies --     79.8102               238.2862               379.4248
 Red. masses --      1.4711                 1.6121                 3.0121
 Frc consts  --      0.0055                 0.0539                 0.2555
 IR Inten    --     11.8439                11.0480                37.3991

                      4                      5                      6
                      A                      A                      A
 Frequencies --    601.5230               800.1257               821.0320
 Red. masses --      3.6624                 1.8898                 6.9995
 Frc consts  --      0.7808                 0.7128                 2.7799
 IR Inten    --      5.0420                47.9247                28.2901

                      7                      8                      9
                      A                      A                      A
 Frequencies --   1029.2279              1040.2918              1084.9249
 Red. masses --      1.5355                 1.1702                 1.2080
 Frc consts  --      0.9584                 0.7461                 0.8378
 IR Inten    --     47.9044                15.4853                23.9504

                     10                     11                     12
                      A                      A                      A
 Frequencies --   1175.5083              1312.5882              1438.8724
 Red. masses --      1.5643                 2.2772                 1.1078
 Frc consts  --      1.2736                 2.3116                 1.3514
 IR Inten    --     48.3648               116.9462                 3.4635

                     13                     14                     15
                      A                      A                      A
 Frequencies --   1477.8447              1621.9610              1664.4362
 Red. masses --      1.2687                 1.0577                 1.0651
 Frc consts  --      1.6325                 1.6394                 1.7384
 IR Inten    --     53.6496                18.2488                26.7858

                     16                     17                     18
                      A                      A                      A
 Frequencies --   1681.5617              2833.7517              3231.0776
 Red. masses --      7.6316                 1.0788                 1.0465
 Frc consts  --     12.7143                 5.1040                 6.4373
 IR Inten    --    386.1842               146.5129                54.1649

                     19                     20                     21
                      A                      A                      A
 Frequencies --   3368.2719              3372.4326              3433.1433
 Red. masses --      1.0673                 1.0960                 1.0722
 Frc consts  --      7.1343                 7.3445                 7.4457
 IR Inten    --      6.5865                11.6767                 4.9820

 - Thermochemistry -
 -------------------
 Temperature   298.150 Kelvin.  Pressure   1.00000 Atm.
 Atom     1 has atomic number  7 and mass  14.00307

 Molecular mass:    59.04835 amu.
 Principal axes and moments of inertia in atomic units:
                           1         2         3
     Eigenvalues --    42.48514 403.76952 436.47686
           X            0.99967  -0.02587   0.00000
           Y            0.02587   0.99967   0.00014
           Z           -0.00001  -0.00013   1.00000
 This molecule is an asymmetric top.
 Rotational symmetry number  1.
 Rotational temperatures (Kelvin)      2.03869     0.21451     0.19844
 Rotational constants (GHZ):          42.47935     4.46973     4.13479
 Zero-point vibrational energy     195506.3 (Joules/Mol)
                                   46.72712 (Kcal/Mol)
 Warning -- explicit consideration of   4 degrees of freedom as
           vibrations may cause significant error
 Vibrational temperatures:    114.83   342.84   545.91   865.46  1151.20
          (Kelvin)           1181.28  1480.83  1496.75  1560.96  1691.29
                             1888.52  2070.21  2126.29  2333.64  2394.75
                             2419.39  4077.13  4648.79  4846.19  4852.17
                             4939.52

 Zero-point correction=                           0.074464 (Hartree/Particle)
 Thermal correction to Energy=                    0.079353
 Thermal correction to Enthalpy=                  0.080298
 Thermal correction to Gibbs Free Energy=         0.047218
 Sum of electronic and zero-point Energies=           -205.203810
 Sum of electronic and thermal Energies=              -205.198921
 Sum of electronic and thermal Enthalpies=            -205.197977
 Sum of electronic and thermal Free Energies=         -205.231057

                     E (Thermal)             CV                S
                      KCal/Mol        Cal/Mol-Kelvin    Cal/Mol-Kelvin
 Total                   49.795             15.158             69.623
 Electronic               0.000              0.000              0.000
 Translational            0.889              2.981             38.148
 Rotational               0.889              2.981             23.530
 Vibrational             48.018              9.196              7.945
 Vibration     1          0.600              1.963              3.896
 Vibration     2          0.656              1.782              1.816
 Vibration     3          0.749              1.514              1.041
 Vibration     4          0.960              1.029              0.447

 Optimization completed.
    -- Stationary point found.
 Normal termination of Gaussian 09 at Tue Aug 30 10:21:19 2022.

 -----------------------------------------------------------------
 #P Geom=AllCheck Guess=TCheck SCRF=Check CCSD(T,E4T,FrzG4)/GTBas1
 -----------------------------------------------------------------

 Structure from the checkpoint file:  "G4.Frag_879.chk"
 --------
 Frag_879
 --------
 Charge =  0 Multiplicity = 1

 SCF Done:  E(RHF) =  -203.997429061     A.U. after   13 cycles
 E2 =    -0.6206422915D+00 EUMP2 =    -0.20461807135258D+03
 CCSD(T)
 CCSD(T)= -0.20466994789D+03
 480888\CCSD=-204.6482204\CCSD(T)=-204.6699479\RMSD=6.092e-09\PG=C01 [X
 Normal termination of Gaussian 09 at Tue Aug 30 10:21:41 2022.

 ---------------------------------------------------------
 #P Geom=AllCheck Guess=TCheck SCRF=Check MP4=FrzG4/GTBas2
 ---------------------------------------------------------

 Structure from the checkpoint file:  "G4.Frag_879.chk"
 --------
 Frag_879
 --------
 Charge =  0 Multiplicity = 1

 SCF Done:  E(RHF) =  -204.008828958     A.U. after   13 cycles
 E2 =    -0.6312930995D+00 EUMP2 =    -0.20464012205732D+03
 Normal termination of Gaussian 09 at Tue Aug 30 10:21:48 2022.

 ---------------------------------------------------------
 #P Geom=AllCheck Guess=TCheck SCRF=Check MP4=FrzG4/GTBas3
 ---------------------------------------------------------

 Structure from the checkpoint file:  "G4.Frag_879.chk"
 --------
 Frag_879
 --------
 Charge =  0 Multiplicity = 1

 SCF Done:  E(RHF) =  -204.028230616     A.U. after   12 cycles
 E2 =    -0.7478994029D+00 EUMP2 =    -0.20477613001907D+03
 Normal termination of Gaussian 09 at Tue Aug 30 10:22:15 2022.

 -----------------------------------------------------------
 #P Geom=AllCheck Guess=TCheck SCRF=Check MP2=Full/GTLargeXP
 -----------------------------------------------------------

 Structure from the checkpoint file:  "G4.Frag_879.chk"
 --------
 Frag_879
 --------
 Charge =  0 Multiplicity = 1

 SCF Done:  E(RHF) =  -204.087974517     A.U. after   13 cycles
 E2 =    -0.9742480791D+00 EUMP2 =    -0.20506222259628D+03
 Normal termination of Gaussian 09 at Tue Aug 30 10:22:33 2022.
 SCF Done:  E(RHF) =  -204.103617777     A.U. after    9 cycles
 Normal termination of Gaussian 09 at Tue Aug 30 10:22:58 2022.

                         Standard orientation:
 ---------------------------------------------------------------------
 Center     Atomic      Atomic             Coordinates (Angstroms)
 Number     Number       Type             X           Y           Z
 ---------------------------------------------------------------------
      1          7           0        1.917183    0.077494   -0.000178
      2          6           0        0.653477    0.290938    0.000219
      3          7           0       -0.363278   -0.614895    0.000338
      4          7           0       -1.624591    0.103948   -0.000165
      5          1           0        2.093244   -0.930809   -0.000576
      6          1           0        0.348808    1.364023    0.000471
      7          1           0       -1.496668    1.131809   -0.000086
      8          1           0       -2.185139   -0.138274   -0.824682
      9          1           0       -2.186308   -0.138206    0.823589
 ---------------------------------------------------------------------

 SCF Done:  E(RHF) =  -204.107050910     A.U. after    8 cycles

 The electronic state is 1-A.
 Alpha  occ. eigenvalues --  -15.72386 -15.54095 -15.48137 -11.27850  -1.35347
 Alpha  occ. eigenvalues --   -1.17538  -1.04964  -0.81561  -0.77893  -0.73472
 Alpha  occ. eigenvalues --   -0.68297  -0.56810  -0.47600  -0.44347  -0.38770
 Alpha  occ. eigenvalues --   -0.30860
 Alpha virt. eigenvalues --    0.01064   0.04450   0.05021   0.06861   0.07874
 Alpha virt. eigenvalues --    0.08536   0.08643   0.11542   0.12565   0.14006
 Alpha virt. eigenvalues --    0.14319   0.15130   0.15840   0.17010   0.18630

 Mulliken charges:
               1
     1  N   -0.755002
     2  C    0.234330
     3  N   -0.522523
     4  N   -0.387976
     5  H    0.267278
     6  H    0.119437
     7  H    0.323261
     8  H    0.360622
     9  H    0.360573
 Sum of Mulliken charges =  -0.00000

 Dipole moment (field-independent basis, Debye):
    X=             -8.2680    Y=              1.6901    Z=             -0.0020  Tot=              8.4390
 Quadrupole moment (field-independent basis, Debye-Ang):
   XX=            -21.7386   YY=            -25.3247   ZZ=            -25.2367
   XY=             -5.2600   XZ=              0.0015   YZ=              0.0026

 Normal termination of Gaussian 09 at Tue Aug 30 10:25:24 2022.
