 Gaussian 09, Revision E.01,
 Gaussian 09:  ES64L-G09RevE.01 30-Nov-2015

 -----
 #P G4
 -----

 --------
 Frag_675
 --------
 Symbolic Z-matrix:
 Charge =  0 Multiplicity = 1

 SCF Done:  E(RB3LYP) =  -322.497366013     A.U. after   14 cycles
 SCF Done:  E(RB3LYP) =  -322.520617292     A.U. after   13 cycles
 SCF Done:  E(RB3LYP) =  -322.525357949     A.U. after   12 cycles
 SCF Done:  E(RB3LYP) =  -322.525642785     A.U. after   11 cycles
 SCF Done:  E(RB3LYP) =  -322.525729469     A.U. after   11 cycles
 SCF Done:  E(RB3LYP) =  -322.525769803     A.U. after   10 cycles
 SCF Done:  E(RB3LYP) =  -322.525773638     A.U. after    9 cycles
 SCF Done:  E(RB3LYP) =  -322.525775490     A.U. after    8 cycles
 SCF Done:  E(RB3LYP) =  -322.525776154     A.U. after    8 cycles
 SCF Done:  E(RB3LYP) =  -322.525776398     A.U. after    7 cycles
 Optimization completed.
    -- Stationary point found.
 Normal termination of Gaussian 09 at Fri Aug 26 10:48:56 2022.

 ----------------------------------------------------------
 #P Geom=AllCheck Guess=TCheck SCRF=Check B3LYP/GTBas3 Freq
 ----------------------------------------------------------

 Structure from the checkpoint file:  "G4.Frag_675.chk"
 --------
 Frag_675
 --------
 Charge =  0 Multiplicity = 1

 SCF Done:  E(RB3LYP) =  -322.525776398     A.U. after    1 cycles

  Exact polarizability:  57.386  12.447  60.506  -0.002  -0.130  23.770
 Approx polarizability:  82.650  25.113 106.478   0.303  -0.038  36.409

                      1                      2                      3
                      A                      A                      A
 Frequencies --     76.5034               291.6221               387.8833
 Red. masses --      3.9453                 3.2410                 1.7105
 Frc consts  --      0.0136                 0.1624                 0.1516
 IR Inten    --      6.2502                29.8565                58.9540

                      4                      5                      6
                      A                      A                      A
 Frequencies --    392.6203               421.6818               512.4968
 Red. masses --      2.5355                 2.1389                 3.0398
 Frc consts  --      0.2303                 0.2241                 0.4704
 IR Inten    --     10.6348                34.4461                 7.8833

                      7                      8                      9
                      A                      A                      A
 Frequencies --    591.0439               616.4179               721.5613
 Red. masses --      4.2151                 1.2536                 1.1036
 Frc consts  --      0.8676                 0.2806                 0.3385
 IR Inten    --     25.0402                32.7703                61.8046

                     10                     11                     12
                      A                      A                      A
 Frequencies --    773.5171               786.6050               837.0756
 Red. masses --      4.4764                 3.3218                 1.4459
 Frc consts  --      1.5781                 1.2110                 0.5969
 IR Inten    --      0.8748                14.8121                58.6820

                     13                     14                     15
                      A                      A                      A
 Frequencies --    879.2488               988.6822              1108.6938
 Red. masses --      1.2592                 1.8996                 2.0743
 Frc consts  --      0.5736                 1.0940                 1.5023
 IR Inten    --     56.4035                27.8410                77.7373

                     16                     17                     18
                      A                      A                      A
 Frequencies --   1207.4195              1253.7691              1384.1672
 Red. masses --      1.4838                 1.8547                 1.5975
 Frc consts  --      1.2745                 1.7177                 1.8033
 IR Inten    --     25.9387                86.9583               470.0668

                     19                     20                     21
                      A                      A                      A
 Frequencies --   1444.6628              1471.0502              1725.7570
 Red. masses --      2.0530                 1.4808                 5.1716
 Frc consts  --      2.5245                 1.8880                 9.0747
 IR Inten    --     17.1390                26.4487               166.7081

                     22                     23                     24
                      A                      A                      A
 Frequencies --   1756.0623              3178.2684              3261.3539
 Red. masses --      7.0158                 1.0620                 1.1148
 Frc consts  --     12.7470                 6.3207                 6.9862
 IR Inten    --     49.6238                 2.7078                 4.4206

                     25                     26                     27
                      A                      A                      A
 Frequencies --   3515.1357              3585.6476              3805.6055
 Red. masses --      1.0752                 1.0643                 1.0651
 Frc consts  --      7.8274                 8.0623                 9.0881
 IR Inten    --      9.5217               172.0869                40.2601

 - Thermochemistry -
 -------------------
 Temperature   298.150 Kelvin.  Pressure   1.00000 Atm.
 Atom     1 has atomic number  6 and mass  12.00000

 Molecular mass:    87.03203 amu.
 Principal axes and moments of inertia in atomic units:
                           1         2         3
     Eigenvalues --   328.55036 492.99130 818.58681
           X            0.99419   0.10761  -0.00250
           Y           -0.10761   0.99419  -0.00017
           Z            0.00247   0.00044   1.00000
 This molecule is an asymmetric top.
 Rotational symmetry number  1.
 Rotational temperatures (Kelvin)      0.26362     0.17569     0.10581
 Rotational constants (GHZ):           5.49304     3.66080     2.20470
 Zero-point vibrational energy     221156.9 (Joules/Mol)
                                   52.85778 (Kcal/Mol)
 Warning -- explicit consideration of   8 degrees of freedom as
           vibrations may cause significant error
 Vibrational temperatures:    110.07   419.58   558.08   564.89   606.71
          (Kelvin)            737.37   850.38   886.89  1038.16  1112.92
                             1131.75  1204.36  1265.04  1422.49  1595.16
                             1737.21  1803.89  1991.51  2078.54  2116.51
                             2482.98  2526.58  4572.81  4692.36  5057.49
                             5158.94  5475.41

 Zero-point correction=                           0.084234 (Hartree/Particle)
 Thermal correction to Energy=                    0.090251
 Thermal correction to Enthalpy=                  0.091196
 Thermal correction to Gibbs Free Energy=         0.054667
 Sum of electronic and zero-point Energies=           -322.441542
 Sum of electronic and thermal Energies=              -322.435525
 Sum of electronic and thermal Enthalpies=            -322.434581
 Sum of electronic and thermal Free Energies=         -322.471109

                     E (Thermal)             CV                S
                      KCal/Mol        Cal/Mol-Kelvin    Cal/Mol-Kelvin
 Total                   56.634             21.952             76.881
 Electronic               0.000              0.000              0.000
 Translational            0.889              2.981             39.304
 Rotational               0.889              2.981             26.386
 Vibrational             54.856             15.991             11.191
 Vibration     1          0.599              1.965              3.979
 Vibration     2          0.687              1.689              1.465
 Vibration     3          0.756              1.496              1.008
 Vibration     4          0.760              1.486              0.990
 Vibration     5          0.784              1.423              0.886
 Vibration     6          0.868              1.222              0.628
 Vibration     7          0.948              1.051              0.465
 Vibration     8          0.976              0.997              0.422

 Optimization completed.
    -- Stationary point found.
 Normal termination of Gaussian 09 at Fri Aug 26 10:49:22 2022.

 -----------------------------------------------------------------
 #P Geom=AllCheck Guess=TCheck SCRF=Check CCSD(T,E4T,FrzG4)/GTBas1
 -----------------------------------------------------------------

 Structure from the checkpoint file:  "G4.Frag_675.chk"
 --------
 Frag_675
 --------
 Charge =  0 Multiplicity = 1

 SCF Done:  E(RHF) =  -320.647635360     A.U. after   13 cycles
 E2 =    -0.8965663850D+00 EUMP2 =    -0.32154420174504D+03
 CCSD(T)
 CCSD(T)= -0.32160850576D+03
 25\MP4SDQ=-321.578175\CCSD=-321.5773318\CCSD(T)=-321.6085058\RMSD=5.52
 Normal termination of Gaussian 09 at Fri Aug 26 10:50:56 2022.

 ---------------------------------------------------------
 #P Geom=AllCheck Guess=TCheck SCRF=Check MP4=FrzG4/GTBas2
 ---------------------------------------------------------

 Structure from the checkpoint file:  "G4.Frag_675.chk"
 --------
 Frag_675
 --------
 Charge =  0 Multiplicity = 1

 SCF Done:  E(RHF) =  -320.659367326     A.U. after   13 cycles
 E2 =    -0.9099664404D+00 EUMP2 =    -0.32156933376660D+03
 Normal termination of Gaussian 09 at Fri Aug 26 10:51:24 2022.

 ---------------------------------------------------------
 #P Geom=AllCheck Guess=TCheck SCRF=Check MP4=FrzG4/GTBas3
 ---------------------------------------------------------

 Structure from the checkpoint file:  "G4.Frag_675.chk"
 --------
 Frag_675
 --------
 Charge =  0 Multiplicity = 1

 SCF Done:  E(RHF) =  -320.693441922     A.U. after   12 cycles
 E2 =    -0.1090747856D+01 EUMP2 =    -0.32178418977776D+03
 Normal termination of Gaussian 09 at Fri Aug 26 10:53:46 2022.

 -----------------------------------------------------------
 #P Geom=AllCheck Guess=TCheck SCRF=Check MP2=Full/GTLargeXP
 -----------------------------------------------------------

 Structure from the checkpoint file:  "G4.Frag_675.chk"
 --------
 Frag_675
 --------
 Charge =  0 Multiplicity = 1

 SCF Done:  E(RHF) =  -320.781842735     A.U. after   12 cycles
 E2 =    -0.1430169251D+01 EUMP2 =    -0.32221201198615D+03
 Normal termination of Gaussian 09 at Fri Aug 26 10:55:19 2022.
 SCF Done:  E(RHF) =  -320.807863122     A.U. after    8 cycles
 Normal termination of Gaussian 09 at Fri Aug 26 10:56:31 2022.

                         Standard orientation:
 ---------------------------------------------------------------------
 Center     Atomic      Atomic             Coordinates (Angstroms)
 Number     Number       Type             X           Y           Z
 ---------------------------------------------------------------------
      1          6           0        1.485618    1.125670   -0.068829
      2          6           0        0.753615    0.008802   -0.000914
      3          8           0        1.304554   -1.216311    0.076072
      4          6           0       -0.738348   -0.021960   -0.011475
      5          7           0       -1.292891   -1.162449   -0.084735
      6          8           0       -1.426621    1.135489    0.057006
      7          1           0        2.566442    1.079483   -0.052772
      8          1           0        1.039876    2.104990   -0.182106
      9          1           0        0.549086   -1.835417    0.063020
     10          1           0       -2.309384   -1.102221   -0.068424
     11          1           0       -0.824556    1.861817    0.256108
 ---------------------------------------------------------------------

 SCF Done:  E(RHF) =  -320.813316951     A.U. after    8 cycles

 The electronic state is 1-A.
 Alpha  occ. eigenvalues --  -20.62234 -20.58427 -15.55989 -11.36825 -11.32371
 Alpha  occ. eigenvalues --  -11.24137  -1.45342  -1.41318  -1.21706  -1.05766
 Alpha  occ. eigenvalues --   -0.89148  -0.81150  -0.78250  -0.70648  -0.64826
 Alpha  occ. eigenvalues --   -0.63540  -0.63395  -0.59043  -0.58076  -0.53149
 Alpha  occ. eigenvalues --   -0.47703  -0.43879  -0.36153
 Alpha virt. eigenvalues --    0.03313   0.04399   0.05293   0.05425   0.06480
 Alpha virt. eigenvalues --    0.07096   0.07710   0.08924   0.09247   0.09749
 Alpha virt. eigenvalues --    0.09827   0.11761   0.13904   0.14128   0.14508

 Mulliken charges:
               1
     1  C   -0.429651
     2  C    0.262353
     3  O   -0.593976
     4  C    0.466598
     5  N   -0.696683
     6  O   -0.549483
     7  H    0.228513
     8  H    0.169674
     9  H    0.428462
    10  H    0.321368
    11  H    0.392824
 Sum of Mulliken charges =  -0.00000

 Dipole moment (field-independent basis, Debye):
    X=             -0.5672    Y=              2.3043    Z=              0.3028  Tot=              2.3924
 Quadrupole moment (field-independent basis, Debye-Ang):
   XX=            -36.2526   YY=            -32.4672   ZZ=            -37.7633
   XY=              3.2044   XZ=             -0.4906   YZ=              0.2831

 Normal termination of Gaussian 09 at Fri Aug 26 11:02:13 2022.
