 Gaussian 09, Revision E.01,
 Gaussian 09:  ES64L-G09RevE.01 30-Nov-2015

 -----
 #P G4
 -----

 --------
 Frag_680
 --------
 Symbolic Z-matrix:
 Charge =  0 Multiplicity = 1

 SCF Done:  E(RB3LYP) =  -398.971332941     A.U. after   14 cycles
 SCF Done:  E(RB3LYP) =  -398.992308791     A.U. after   13 cycles
 SCF Done:  E(RB3LYP) =  -398.997073562     A.U. after   12 cycles
 SCF Done:  E(RB3LYP) =  -398.999408127     A.U. after   12 cycles
 SCF Done:  E(RB3LYP) =  -399.001139870     A.U. after   13 cycles
 SCF Done:  E(RB3LYP) =  -399.002069950     A.U. after   11 cycles
 SCF Done:  E(RB3LYP) =  -399.002242689     A.U. after   10 cycles
 SCF Done:  E(RB3LYP) =  -399.002272580     A.U. after   11 cycles
 SCF Done:  E(RB3LYP) =  -399.002288326     A.U. after    9 cycles
 SCF Done:  E(RB3LYP) =  -399.002290122     A.U. after    8 cycles
 SCF Done:  E(RB3LYP) =  -399.002290340     A.U. after    7 cycles
 Optimization completed.
    -- Stationary point found.
 Normal termination of Gaussian 09 at Fri Aug 26 03:14:35 2022.

 ----------------------------------------------------------
 #P Geom=AllCheck Guess=TCheck SCRF=Check B3LYP/GTBas3 Freq
 ----------------------------------------------------------

 Structure from the checkpoint file:  "G4.Frag_680.chk"
 --------
 Frag_680
 --------
 Charge =  0 Multiplicity = 1

 SCF Done:  E(RB3LYP) =  -399.002290340     A.U. after    1 cycles

  Exact polarizability:  50.630   0.542  53.061  -0.291  -0.407  43.826
 Approx polarizability:  70.148  -2.341  85.310  -1.760  -0.684  60.845

                      1                      2                      3
                      A                      A                      A
 Frequencies --     78.2653               229.2098               251.4259
 Red. masses --      6.6056                 2.7585                 1.1740
 Frc consts  --      0.0238                 0.0854                 0.0437
 IR Inten    --      3.9638                 2.6758                 2.9551

                      4                      5                      6
                      A                      A                      A
 Frequencies --    281.3002               313.8609               358.4706
 Red. masses --      2.0767                 1.6972                 2.3148
 Frc consts  --      0.0968                 0.0985                 0.1753
 IR Inten    --     14.5913                19.8735                 4.6146

                      7                      8                      9
                      A                      A                      A
 Frequencies --    385.8615               449.3333               505.2418
 Red. masses --      4.8602                 1.9485                 1.4214
 Frc consts  --      0.4263                 0.2318                 0.2138
 IR Inten    --      1.9361                38.9369                58.6948

                     10                     11                     12
                      A                      A                      A
 Frequencies --    550.3609               609.9830               756.4575
 Red. masses --      5.6920                 3.6013                 5.2093
 Frc consts  --      1.0158                 0.7895                 1.7563
 IR Inten    --      0.4454                19.0686                18.7713

                     13                     14                     15
                      A                      A                      A
 Frequencies --    768.6389               808.0578               853.9323
 Red. masses --      6.2014                 1.1365                 1.4694
 Frc consts  --      2.1587                 0.4372                 0.6313
 IR Inten    --     10.7124                86.7098               133.3605

                     16                     17                     18
                      A                      A                      A
 Frequencies --    901.6909               981.0918              1049.8995
 Red. masses --      2.7681                 1.5468                 1.9132
 Frc consts  --      1.3260                 0.8772                 1.2425
 IR Inten    --     17.5714                34.3007                49.5820

                     19                     20                     21
                      A                      A                      A
 Frequencies --   1101.5467              1205.6942              1223.9823
 Red. masses --      1.8935                 2.4802                 3.2589
 Frc consts  --      1.3537                 2.1243                 2.8766
 IR Inten    --     45.7679                 1.0988                85.4492

                     22                     23                     24
                      A                      A                      A
 Frequencies --   1334.2895              1355.1168              1399.7130
 Red. masses --      1.6297                 1.5420                 1.3271
 Frc consts  --      1.7095                 1.6684                 1.5319
 IR Inten    --     49.0765                96.4536                49.5853

                     25                     26                     27
                      A                      A                      A
 Frequencies --   1418.9064              1481.3633              1496.1202
 Red. masses --      1.8370                 1.0564                 1.0789
 Frc consts  --      2.1791                 1.3658                 1.4229
 IR Inten    --    272.7151                 3.2894                 8.8132

                     28                     29                     30
                      A                      A                      A
 Frequencies --   1653.3827              1867.0671              3044.1282
 Red. masses --      1.1140                 9.0716                 1.0346
 Frc consts  --      1.7942                18.6317                 5.6486
 IR Inten    --     65.5329               212.9167                 9.5170

                     31                     32                     33
                      A                      A                      A
 Frequencies --   3118.7342              3138.4161              3505.2872
 Red. masses --      1.1020                 1.1027                 1.0485
 Frc consts  --      6.3152                 6.3992                 7.5902
 IR Inten    --     15.8658                 9.5536                10.3809

                     34                     35                     36
                      A                      A                      A
 Frequencies --   3588.1007              3599.7324              3774.9848
 Red. masses --      1.0940                 1.0641                 1.0650
 Frc consts  --      8.2983                 8.1238                 8.9415
 IR Inten    --     16.1679               153.5220                46.1181

 - Thermochemistry -
 -------------------
 Temperature   298.150 Kelvin.  Pressure   1.00000 Atm.
 Atom     1 has atomic number  6 and mass  12.00000

 Molecular mass:   105.04259 amu.
 Principal axes and moments of inertia in atomic units:
                           1         2         3
     Eigenvalues --   521.48226 729.86817 870.53309
           X            0.99693   0.07244   0.02969
           Y           -0.07253   0.99736   0.00195
           Z           -0.02947  -0.00410   0.99956
 This molecule is an asymmetric top.
 Rotational symmetry number  1.
 Warning -- assumption of classical behavior for rotation
           may cause significant error
 Rotational temperatures (Kelvin)      0.16609     0.11867     0.09950
 Rotational constants (GHZ):           3.46079     2.47269     2.07314
 Zero-point vibrational energy     295714.8 (Joules/Mol)
                                   70.67752 (Kcal/Mol)
 Warning -- explicit consideration of  11 degrees of freedom as
           vibrations may cause significant error
 Vibrational temperatures:    112.61   329.78   361.75   404.73   451.58
          (Kelvin)            515.76   555.17   646.49   726.93   791.85
                              877.63  1088.37  1105.90  1162.61  1228.62
                             1297.33  1411.57  1510.57  1584.88  1734.72
                             1761.04  1919.74  1949.71  2013.87  2041.49
                             2131.35  2152.58  2378.85  2686.29  4379.82
                             4487.16  4515.48  5043.32  5162.47  5179.21
                             5431.35

 Zero-point correction=                           0.112632 (Hartree/Particle)
 Thermal correction to Energy=                    0.120141
 Thermal correction to Enthalpy=                  0.121085
 Thermal correction to Gibbs Free Energy=         0.081388
 Sum of electronic and zero-point Energies=           -398.889659
 Sum of electronic and thermal Energies=              -398.882150
 Sum of electronic and thermal Enthalpies=            -398.881206
 Sum of electronic and thermal Free Energies=         -398.920903

                     E (Thermal)             CV                S
                      KCal/Mol        Cal/Mol-Kelvin    Cal/Mol-Kelvin
 Total                   75.389             27.850             83.550
 Electronic               0.000              0.000              0.000
 Translational            0.889              2.981             39.865
 Rotational               0.889              2.981             27.296
 Vibrational             73.612             21.888             16.389
 Vibration     1          0.600              1.964              3.934
 Vibration     2          0.652              1.796              1.885
 Vibration     3          0.663              1.760              1.721
 Vibration     4          0.681              1.708              1.526
 Vibration     5          0.702              1.647              1.342
 Vibration     6          0.733              1.558              1.129
 Vibration     7          0.755              1.500              1.016
 Vibration     8          0.808              1.362              0.798
 Vibration     9          0.860              1.238              0.645
 Vibration    10          0.906              1.139              0.543
 Vibration    11          0.969              1.011              0.433

 Optimization completed.
    -- Stationary point found.
 Normal termination of Gaussian 09 at Fri Aug 26 03:15:16 2022.

 -----------------------------------------------------------------
 #P Geom=AllCheck Guess=TCheck SCRF=Check CCSD(T,E4T,FrzG4)/GTBas1
 -----------------------------------------------------------------

 Structure from the checkpoint file:  "G4.Frag_680.chk"
 --------
 Frag_680
 --------
 Charge =  0 Multiplicity = 1

 SCF Done:  E(RHF) =  -396.720478811     A.U. after   13 cycles
 E2 =    -0.1088341518D+01 EUMP2 =    -0.39780882032888D+03
 CCSD(T)
 CCSD(T)= -0.39788056137D+03
 \MP4SDQ=-397.8492879\CCSD=-397.847362\CCSD(T)=-397.8805614\RMSD=8.550e
 Normal termination of Gaussian 09 at Fri Aug 26 03:19:08 2022.

 ---------------------------------------------------------
 #P Geom=AllCheck Guess=TCheck SCRF=Check MP4=FrzG4/GTBas2
 ---------------------------------------------------------

 Structure from the checkpoint file:  "G4.Frag_680.chk"
 --------
 Frag_680
 --------
 Charge =  0 Multiplicity = 1

 SCF Done:  E(RHF) =  -396.733912643     A.U. after   12 cycles
 E2 =    -0.1107088698D+01 EUMP2 =    -0.39784100134068D+03
 Normal termination of Gaussian 09 at Fri Aug 26 03:20:26 2022.

 ---------------------------------------------------------
 #P Geom=AllCheck Guess=TCheck SCRF=Check MP4=FrzG4/GTBas3
 ---------------------------------------------------------

 Structure from the checkpoint file:  "G4.Frag_680.chk"
 --------
 Frag_680
 --------
 Charge =  0 Multiplicity = 1

 SCF Done:  E(RHF) =  -396.773990289     A.U. after   12 cycles
 E2 =    -0.1337792916D+01 EUMP2 =    -0.39811178320489D+03
 Normal termination of Gaussian 09 at Fri Aug 26 03:27:34 2022.

 -----------------------------------------------------------
 #P Geom=AllCheck Guess=TCheck SCRF=Check MP2=Full/GTLargeXP
 -----------------------------------------------------------

 Structure from the checkpoint file:  "G4.Frag_680.chk"
 --------
 Frag_680
 --------
 Charge =  0 Multiplicity = 1

 SCF Done:  E(RHF) =  -396.883938777     A.U. after   13 cycles
 E2 =    -0.1743945263D+01 EUMP2 =    -0.39862788404068D+03
 Normal termination of Gaussian 09 at Fri Aug 26 03:30:54 2022.
 SCF Done:  E(RHF) =  -396.915420625     A.U. after    9 cycles
 Normal termination of Gaussian 09 at Fri Aug 26 03:33:43 2022.

                         Standard orientation:
 ---------------------------------------------------------------------
 Center     Atomic      Atomic             Coordinates (Angstroms)
 Number     Number       Type             X           Y           Z
 ---------------------------------------------------------------------
      1          6           0        1.127682    0.119592    1.383983
      2          6           0        0.568915   -0.009253   -0.037425
      3          7           0        1.082908    0.946529   -0.989413
      4          8           0        0.871929   -1.342046   -0.479296
      5          6           0       -0.973676    0.162219    0.012917
      6          8           0       -1.507192    1.238899    0.066161
      7          8           0       -1.642435   -0.993905    0.023891
      8          1           0        0.848497    1.087364    1.806501
      9          1           0        2.218160    0.033962    1.351688
     10          1           0        0.742824   -0.673219    2.031327
     11          1           0        0.462734    1.749979   -1.025232
     12          1           0        2.009464    1.266568   -0.728629
     13          1           0        0.990043   -1.262802   -1.435260
     14          1           0       -0.968018   -1.686492   -0.117407
 ---------------------------------------------------------------------

 SCF Done:  E(RHF) =  -396.922292482     A.U. after    8 cycles

 The electronic state is 1-A.
 Alpha  occ. eigenvalues --  -20.61068 -20.59132 -20.55017 -15.57173 -11.38752
 Alpha  occ. eigenvalues --  -11.35469 -11.24356  -1.47206  -1.40330  -1.37260
 Alpha  occ. eigenvalues --   -1.20901  -1.02705  -0.90340  -0.81806  -0.76395
 Alpha  occ. eigenvalues --   -0.73162  -0.67220  -0.66925  -0.64953  -0.61552
 Alpha  occ. eigenvalues --   -0.59038  -0.57261  -0.56140  -0.54724  -0.53438
 Alpha  occ. eigenvalues --   -0.48481  -0.45007  -0.42913
 Alpha virt. eigenvalues --    0.03098   0.04107   0.04779   0.05164   0.06831
 Alpha virt. eigenvalues --    0.07098   0.07146   0.07533   0.07945   0.09992
 Alpha virt. eigenvalues --    0.11447   0.12794   0.12954   0.13699   0.14257

 Mulliken charges:
               1
     1  C   -0.559372
     2  C    0.422606
     3  N   -0.763221
     4  O   -0.625682
     5  C    0.584910
     6  O   -0.563881
     7  O   -0.548348
     8  H    0.205722
     9  H    0.178744
    10  H    0.188824
    11  H    0.341853
    12  H    0.304310
    13  H    0.408610
    14  H    0.424926
 Sum of Mulliken charges =  -0.00000

 Dipole moment (field-independent basis, Debye):
    X=              3.6518    Y=             -0.7443    Z=             -0.0682  Tot=              3.7275
 Quadrupole moment (field-independent basis, Debye-Ang):
   XX=            -46.9659   YY=            -41.8320   ZZ=            -39.8864
   XY=              5.3960   XZ=              0.8902   YZ=              1.0563

 Normal termination of Gaussian 09 at Fri Aug 26 03:43:45 2022.
