 Gaussian 09, Revision E.01,
 Gaussian 09:  ES64L-G09RevE.01 30-Nov-2015

 -----
 #P G4
 -----

 ---------
 Frag_1007
 ---------
 Symbolic Z-matrix:
 Charge =  0 Multiplicity = 1

 SCF Done:  E(RB3LYP) =  -439.495566301     A.U. after   12 cycles
 SCF Done:  E(RB3LYP) =  -439.503842133     A.U. after   11 cycles
 SCF Done:  E(RB3LYP) =  -439.504938005     A.U. after   10 cycles
 SCF Done:  E(RB3LYP) =  -439.505669865     A.U. after   10 cycles
 SCF Done:  E(RB3LYP) =  -439.506373092     A.U. after   11 cycles
 SCF Done:  E(RB3LYP) =  -439.506763565     A.U. after   11 cycles
 SCF Done:  E(RB3LYP) =  -439.507497323     A.U. after   11 cycles
 SCF Done:  E(RB3LYP) =  -439.494021636     A.U. after   13 cycles
 SCF Done:  E(RB3LYP) =  -439.507863694     A.U. after   11 cycles
 SCF Done:  E(RB3LYP) =  -439.507768820     A.U. after   12 cycles
 SCF Done:  E(RB3LYP) =  -439.516024043     A.U. after    7 cycles
 SCF Done:  E(RB3LYP) =  -439.516025215     A.U. after    7 cycles
 SCF Done:  E(RB3LYP) =  -439.516025271     A.U. after    6 cycles
 Optimization completed.
    -- Stationary point found.
 Normal termination of Gaussian 09 at Fri Aug 26 11:33:13 2022.

 ----------------------------------------------------------
 #P Geom=AllCheck Guess=TCheck SCRF=Check B3LYP/GTBas3 Freq
 ----------------------------------------------------------

 Structure from the checkpoint file:  "G4.Frag_1007.chk"
 ---------
 Frag_1007
 ---------
 Charge =  0 Multiplicity = 1

 SCF Done:  E(RB3LYP) =  -439.516025271     A.U. after    1 cycles

  Exact polarizability:  65.421   0.161  62.146  -1.437  -0.256  60.600
 Approx polarizability:  89.352  -0.128  87.663  -2.181  -1.317  88.950

                      1                      2                      3
                      A                      A                      A
 Frequencies --    101.8664               192.6566               212.8552
 Red. masses --      4.0472                 1.1965                 1.1587
 Frc consts  --      0.0247                 0.0262                 0.0309
 IR Inten    --      4.7468                50.3379                12.6365

                      4                      5                      6
                      A                      A                      A
 Frequencies --    242.1187               255.0837               284.1256
 Red. masses --      1.8068                 1.9881                 1.4886
 Frc consts  --      0.0624                 0.0762                 0.0708
 IR Inten    --     10.1409                16.3006                 2.2661

                      7                      8                      9
                      A                      A                      A
 Frequencies --    308.6885               338.4833               350.1787
 Red. masses --      1.3585                 1.8577                 2.7483
 Frc consts  --      0.0763                 0.1254                 0.1986
 IR Inten    --      9.5779                13.4969                10.2587

                     10                     11                     12
                      A                      A                      A
 Frequencies --    365.7801               388.4483               451.1423
 Red. masses --      2.3370                 1.5390                 3.1025
 Frc consts  --      0.1842                 0.1368                 0.3720
 IR Inten    --     10.3157                49.7236                10.7719

                     13                     14                     15
                      A                      A                      A
 Frequencies --    484.9531               536.5650               575.7799
 Red. masses --      2.7135                 1.9396                 4.7196
 Frc consts  --      0.3760                 0.3290                 0.9219
 IR Inten    --     42.5926                38.2740                10.4344

                     16                     17                     18
                      A                      A                      A
 Frequencies --    584.4667               605.5384               732.3269
 Red. masses --      4.0106                 1.5631                 4.8705
 Frc consts  --      0.8072                 0.3377                 1.5390
 IR Inten    --     26.3098                60.5764                13.4577

                     19                     20                     21
                      A                      A                      A
 Frequencies --    843.9013               924.7081               940.3584
 Red. masses --      2.6394                 1.3109                 1.5118
 Frc consts  --      1.1075                 0.6605                 0.7877
 IR Inten    --     28.0684                90.7868                 4.1156

                     22                     23                     24
                      A                      A                      A
 Frequencies --    973.6775              1010.0831              1023.7750
 Red. masses --      1.7586                 1.5449                 2.4575
 Frc consts  --      0.9823                 0.9287                 1.5176
 IR Inten    --      1.1239                30.3216                93.8608

                     25                     26                     27
                      A                      A                      A
 Frequencies --   1068.3780              1090.6871              1111.7811
 Red. masses --      1.9977                 3.7112                 1.9352
 Frc consts  --      1.3435                 2.6011                 1.4094
 IR Inten    --    115.9192               105.8466               135.4076

                     28                     29                     30
                      A                      A                      A
 Frequencies --   1220.4420              1254.6942              1273.6928
 Red. masses --      2.5768                 2.4391                 1.2700
 Frc consts  --      2.2613                 2.2623                 1.2139
 IR Inten    --     42.8442                 1.5551                94.6487

                     31                     32                     33
                      A                      A                      A
 Frequencies --   1334.3234              1388.6597              1394.6383
 Red. masses --      1.8476                 1.6544                 1.4642
 Frc consts  --      1.9382                 1.8797                 1.6779
 IR Inten    --     28.3513                66.0475                52.5276

                     34                     35                     36
                      A                      A                      A
 Frequencies --   1409.4635              1465.2885              1479.6765
 Red. masses --      1.2602                 1.6334                 1.0515
 Frc consts  --      1.4751                 2.0663                 1.3564
 IR Inten    --     10.0714               120.5434                 1.1864

                     37                     38                     39
                      A                      A                      A
 Frequencies --   1490.6701              1499.6662              1518.9153
 Red. masses --      1.0504                 1.0631                 1.1055
 Frc consts  --      1.3752                 1.4086                 1.5027
 IR Inten    --      3.0659                 5.8025                24.3310

                     40                     41                     42
                      A                      A                      A
 Frequencies --   1633.1752              3032.5471              3040.0183
 Red. masses --      1.1010                 1.0356                 1.0421
 Frc consts  --      1.7303                 5.6112                 5.6745
 IR Inten    --     40.3536                19.4705                23.7685

                     43                     44                     45
                      A                      A                      A
 Frequencies --   3100.8461              3111.7901              3117.2166
 Red. masses --      1.1011                 1.1007                 1.0936
 Frc consts  --      6.2376                 6.2795                 6.2610
 IR Inten    --     25.7202                11.2450                26.1244

                     46                     47                     48
                      A                      A                      A
 Frequencies --   3147.0501              3494.9812              3580.8832
 Red. masses --      1.1020                 1.0485                 1.0932
 Frc consts  --      6.4306                 7.5462                 8.2594
 IR Inten    --     12.7183                 0.6577                 2.2031

                     49                     50                     51
                      A                      A                      A
 Frequencies --   3655.3683              3796.2117              3820.1366
 Red. masses --      1.0640                 1.0650                 1.0652
 Frc consts  --      8.3765                 9.0428                 9.1589
 IR Inten    --    109.5542                43.7996                25.3744

 - Thermochemistry -
 -------------------
 Temperature   298.150 Kelvin.  Pressure   1.00000 Atm.
 Atom     1 has atomic number  6 and mass  12.00000

 Molecular mass:   121.07389 amu.
 Principal axes and moments of inertia in atomic units:
                           1         2         3
     Eigenvalues --   713.86139 988.75327 995.95368
           X            0.99999   0.00190   0.00414
           Y           -0.00293   0.96414   0.26538
           Z           -0.00349  -0.26539   0.96413
 This molecule is an asymmetric top.
 Rotational symmetry number  1.
 Warning -- assumption of classical behavior for rotation
           may cause significant error
 Rotational temperatures (Kelvin)      0.12133     0.08760     0.08697
 Rotational constants (GHZ):           2.52814     1.82527     1.81207
 Zero-point vibrational energy     426222.0 (Joules/Mol)
                                  101.86951 (Kcal/Mol)
 Warning -- explicit consideration of  17 degrees of freedom as
           vibrations may cause significant error
 Vibrational temperatures:    146.56   277.19   306.25   348.35   367.01
          (Kelvin)            408.79   444.13   487.00   503.83   526.28
                              558.89   649.09   697.74   772.00   828.42
                              840.92   871.23  1053.65  1214.18  1330.45
                             1352.96  1400.90  1453.28  1472.98  1537.16
                             1569.25  1599.60  1755.94  1805.22  1832.56
                             1919.79  1997.97  2006.57  2027.90  2108.22
                             2128.92  2144.74  2157.68  2185.38  2349.77
                             4363.15  4373.90  4461.42  4477.17  4484.97
                             4527.90  5028.49  5152.09  5259.25  5461.90
                             5496.32

 Zero-point correction=                           0.162339 (Hartree/Particle)
 Thermal correction to Energy=                    0.171992
 Thermal correction to Enthalpy=                  0.172936
 Thermal correction to Gibbs Free Energy=         0.129365
 Sum of electronic and zero-point Energies=           -439.353686
 Sum of electronic and thermal Energies=              -439.344034
 Sum of electronic and thermal Enthalpies=            -439.343089
 Sum of electronic and thermal Free Energies=         -439.386661

                     E (Thermal)             CV                S
                      KCal/Mol        Cal/Mol-Kelvin    Cal/Mol-Kelvin
 Total                  107.926             37.330             91.704
 Electronic               0.000              0.000              0.000
 Translational            0.889              2.981             40.288
 Rotational               0.889              2.981             28.043
 Vibrational            106.149             31.368             23.372
 Vibration     1          0.604              1.948              3.418
 Vibration     2          0.635              1.850              2.202
 Vibration     3          0.644              1.821              2.019
 Vibration     4          0.658              1.776              1.787
 Vibration     5          0.665              1.754              1.695
 Vibration     6          0.683              1.703              1.509
 Vibration     7          0.698              1.657              1.369
 Vibration     8          0.719              1.599              1.219
 Vibration     9          0.727              1.575              1.165
 Vibration    10          0.739              1.543              1.097
 Vibration    11          0.757              1.495              1.006
 Vibration    12          0.810              1.358              0.792
 Vibration    13          0.841              1.283              0.697
 Vibration    14          0.892              1.169              0.573
 Vibration    15          0.932              1.084              0.493
 Vibration    16          0.941              1.065              0.477
 Vibration    17          0.964              1.020              0.440

 Optimization completed.
    -- Stationary point found.
 Normal termination of Gaussian 09 at Fri Aug 26 11:34:27 2022.

 -----------------------------------------------------------------
 #P Geom=AllCheck Guess=TCheck SCRF=Check CCSD(T,E4T,FrzG4)/GTBas1
 -----------------------------------------------------------------

 Structure from the checkpoint file:  "G4.Frag_1007.chk"
 ---------
 Frag_1007
 ---------
 Charge =  0 Multiplicity = 1

 SCF Done:  E(RHF) =  -436.907427915     A.U. after   12 cycles
 E2 =    -0.1233615487D+01 EUMP2 =    -0.43814104340189D+03
 CCSD(T)
 CCSD(T)= -0.43823582900D+03
 2367743\MP4SDQ=-438.2008967\CCSD=-438.2009317\CCSD(T)=-438.235829\RMSD
 Normal termination of Gaussian 09 at Fri Aug 26 11:42:55 2022.

 ---------------------------------------------------------
 #P Geom=AllCheck Guess=TCheck SCRF=Check MP4=FrzG4/GTBas2
 ---------------------------------------------------------

 Structure from the checkpoint file:  "G4.Frag_1007.chk"
 ---------
 Frag_1007
 ---------
 Charge =  0 Multiplicity = 1

 SCF Done:  E(RHF) =  -436.921170328     A.U. after   12 cycles
 E2 =    -0.1256474725D+01 EUMP2 =    -0.43817764505310D+03
 Normal termination of Gaussian 09 at Fri Aug 26 11:46:00 2022.

 ---------------------------------------------------------
 #P Geom=AllCheck Guess=TCheck SCRF=Check MP4=FrzG4/GTBas3
 ---------------------------------------------------------

 Structure from the checkpoint file:  "G4.Frag_1007.chk"
 ---------
 Frag_1007
 ---------
 Charge =  0 Multiplicity = 1

 SCF Done:  E(RHF) =  -436.969965949     A.U. after   10 cycles
 E2 =    -0.1532657998D+01 EUMP2 =    -0.43850262394688D+03
 Normal termination of Gaussian 09 at Fri Aug 26 12:12:10 2022.

 -----------------------------------------------------------
 #P Geom=AllCheck Guess=TCheck SCRF=Check MP2=Full/GTLargeXP
 -----------------------------------------------------------

 Structure from the checkpoint file:  "G4.Frag_1007.chk"
 ---------
 Frag_1007
 ---------
 Charge =  0 Multiplicity = 1

 SCF Done:  E(RHF) =  -437.088107414     A.U. after   12 cycles
 E2 =    -0.1996619587D+01 EUMP2 =    -0.43908472700072D+03
 Normal termination of Gaussian 09 at Fri Aug 26 12:19:11 2022.
 SCF Done:  E(RHF) =  -437.122928917     A.U. after    8 cycles
 Normal termination of Gaussian 09 at Fri Aug 26 12:24:53 2022.

                         Standard orientation:
 ---------------------------------------------------------------------
 Center     Atomic      Atomic             Coordinates (Angstroms)
 Number     Number       Type             X           Y           Z
 ---------------------------------------------------------------------
      1          6           0        1.284916   -1.376249    0.477287
      2          6           0        0.761727   -0.013630   -0.006474
      3          6           0        1.338608    1.114424    0.857268
      4          7           0        1.088424    0.268121   -1.419179
      5          6           0       -0.797779    0.031218    0.023758
      6          8           0       -1.232752   -0.073549    1.341546
      7          8           0       -1.261245    1.211751   -0.527155
      8          8           0       -1.338775   -1.028931   -0.757459
      9          1           0        0.948515   -1.590913    1.496153
     10          1           0        0.946864   -2.184647   -0.178546
     11          1           0        2.379854   -1.382064    0.474636
     12          1           0        1.071321    0.967522    1.905002
     13          1           0        0.952647    2.083585    0.535378
     14          1           0        2.431763    1.129425    0.779090
     15          1           0        0.827151   -0.529818   -1.991491
     16          1           0        2.086469    0.414088   -1.529979
     17          1           0       -2.147825    0.233345    1.349308
     18          1           0       -0.657876    1.390000   -1.269300
     19          1           0       -1.320502   -1.816125   -0.202488
 ---------------------------------------------------------------------

 SCF Done:  E(RHF) =  -437.130694692     A.U. after    7 cycles

 The electronic state is 1-A.
 Alpha  occ. eigenvalues --  -20.57171 -20.56149 -20.55497 -15.55229 -11.38833
 Alpha  occ. eigenvalues --  -11.27383 -11.22252 -11.21447  -1.45632  -1.34619
 Alpha  occ. eigenvalues --   -1.33788  -1.20141  -1.03159  -0.94172  -0.89767
 Alpha  occ. eigenvalues --   -0.79092  -0.74978  -0.71824  -0.68259  -0.64398
 Alpha  occ. eigenvalues --   -0.63330  -0.60310  -0.58806  -0.56900  -0.56385
 Alpha  occ. eigenvalues --   -0.54091  -0.53932  -0.52041  -0.49140  -0.48941
 Alpha  occ. eigenvalues --   -0.48075  -0.44820  -0.41037
 Alpha virt. eigenvalues --    0.02981   0.04117   0.04425   0.04924   0.06301
 Alpha virt. eigenvalues --    0.06707   0.07046   0.07133   0.07339   0.09538
 Alpha virt. eigenvalues --    0.09908   0.10399   0.10846   0.13126   0.13232

 Mulliken charges:
               1
     1  C   -0.637035
     2  C    0.419989
     3  C   -0.598315
     4  N   -0.821366
     5  C    0.643384
     6  O   -0.635669
     7  O   -0.629289
     8  O   -0.638997
     9  H    0.201886
    10  H    0.167635
    11  H    0.172890
    12  H    0.197105
    13  H    0.187225
    14  H    0.159469
    15  H    0.319005
    16  H    0.302366
    17  H    0.391852
    18  H    0.413135
    19  H    0.384728
 Sum of Mulliken charges =  -0.00000

 Dipole moment (field-independent basis, Debye):
    X=              2.0259    Y=             -1.4267    Z=              0.3042  Tot=              2.4965
 Quadrupole moment (field-independent basis, Debye-Ang):
   XX=            -46.8100   YY=            -48.6260   ZZ=            -50.9139
   XY=              1.2186   XZ=             -4.8808   YZ=              0.1351

 Normal termination of Gaussian 09 at Fri Aug 26 12:41:49 2022.
