 Gaussian 09, Revision E.01,
 Gaussian 09:  ES64L-G09RevE.01 30-Nov-2015

 -----
 #P G4
 -----

 --------
 Frag_762
 --------
 Symbolic Z-matrix:
 Charge =  0 Multiplicity = 1

 SCF Done:  E(RB3LYP) =  -305.067422680     A.U. after   12 cycles
 SCF Done:  E(RB3LYP) =  -305.074536820     A.U. after   11 cycles
 SCF Done:  E(RB3LYP) =  -305.075191268     A.U. after   11 cycles
 SCF Done:  E(RB3LYP) =  -305.075367861     A.U. after   10 cycles
 SCF Done:  E(RB3LYP) =  -305.075509272     A.U. after   10 cycles
 SCF Done:  E(RB3LYP) =  -305.075686290     A.U. after   11 cycles
 SCF Done:  E(RB3LYP) =  -305.075799678     A.U. after   11 cycles
 SCF Done:  E(RB3LYP) =  -305.071354277     A.U. after   13 cycles
 SCF Done:  E(RB3LYP) =  -305.077149198     A.U. after   12 cycles
 SCF Done:  E(RB3LYP) =  -305.038571844     A.U. after   13 cycles
 SCF Done:  E(RB3LYP) =  -305.083857956     A.U. after    7 cycles
 SCF Done:  E(RB3LYP) =  -305.083858203     A.U. after    7 cycles
 SCF Done:  E(RB3LYP) =  -305.083858340     A.U. after    6 cycles
 Optimization completed.
    -- Stationary point found.
 Normal termination of Gaussian 09 at Wed Aug 24 03:42:19 2022.

 ----------------------------------------------------------
 #P Geom=AllCheck Guess=TCheck SCRF=Check B3LYP/GTBas3 Freq
 ----------------------------------------------------------

 Structure from the checkpoint file:  "G4.Frag_762.chk"
 --------
 Frag_762
 --------
 Charge =  0 Multiplicity = 1

 SCF Done:  E(RB3LYP) =  -305.083858340     A.U. after    1 cycles

  Exact polarizability:  57.616  -1.498  51.278  -1.508  -0.683  49.246
 Approx polarizability:  73.928  -1.271  72.029  -2.004  -1.578  73.641

                      1                      2                      3
                      A                      A                      A
 Frequencies --    141.3295               189.4863               214.1417
 Red. masses --      2.7084                 1.0835                 1.0416
 Frc consts  --      0.0319                 0.0229                 0.0281
 IR Inten    --      2.2330                13.4946                 4.6673

                      4                      5                      6
                      A                      A                      A
 Frequencies --    258.1821               287.9847               354.4840
 Red. masses --      2.9379                 1.1057                 2.6805
 Frc consts  --      0.1154                 0.0540                 0.1985
 IR Inten    --      1.0085                39.4652                 1.8004

                      7                      8                      9
                      A                      A                      A
 Frequencies --    382.9127               433.3551               494.3918
 Red. masses --      2.8129                 2.2093                 3.9099
 Frc consts  --      0.2430                 0.2445                 0.5631
 IR Inten    --      7.9048                 4.8782                 4.5041

                     10                     11                     12
                      A                      A                      A
 Frequencies --    581.5018               616.4827               759.7811
 Red. masses --      1.9914                 1.3041                 3.1982
 Frc consts  --      0.3967                 0.2920                 1.0878
 IR Inten    --     47.5456                49.7529                13.5921

                     13                     14                     15
                      A                      A                      A
 Frequencies --    844.0984               863.0547               913.4089
 Red. masses --      1.2581                 1.4630                 2.0251
 Frc consts  --      0.5281                 0.6420                 0.9955
 IR Inten    --    119.3551               124.2983                11.8005

                     16                     17                     18
                      A                      A                      A
 Frequencies --    939.6085               983.2274              1042.6065
 Red. masses --      2.1155                 1.3876                 2.0384
 Frc consts  --      1.1004                 0.7903                 1.3055
 IR Inten    --     60.8800                 4.3531                39.3866

                     19                     20                     21
                      A                      A                      A
 Frequencies --   1074.7090              1103.6426              1159.2308
 Red. masses --      2.5222                 1.3294                 1.7376
 Frc consts  --      1.7163                 0.9540                 1.3757
 IR Inten    --      6.7910                11.0917                18.6409

                     22                     23                     24
                      A                      A                      A
 Frequencies --   1253.3162              1288.3416              1337.5551
 Red. masses --      2.1569                 1.6382                 1.4185
 Frc consts  --      1.9962                 1.6021                 1.4952
 IR Inten    --     33.6830                26.4286                72.9784

                     25                     26                     27
                      A                      A                      A
 Frequencies --   1385.0159              1409.0856              1456.4147
 Red. masses --      1.2508                 1.3054                 1.6030
 Frc consts  --      1.4136                 1.5271                 2.0033
 IR Inten    --     17.7176                10.0297                83.2017

                     28                     29                     30
                      A                      A                      A
 Frequencies --   1481.1391              1491.0884              1495.6955
 Red. masses --      1.0862                 1.0608                 1.0830
 Frc consts  --      1.4040                 1.3897                 1.4274
 IR Inten    --      7.5670                 1.7848                 5.7618

                     31                     32                     33
                      A                      A                      A
 Frequencies --   1632.9708              1653.7292              2976.4207
 Red. masses --      1.1098                 1.0947                 1.0694
 Frc consts  --      1.7436                 1.7638                 5.5817
 IR Inten    --     24.5081                23.2203                57.2833

                     34                     35                     36
                      A                      A                      A
 Frequencies --   3043.6035              3072.9082              3114.4077
 Red. masses --      1.0370                 1.0929                 1.0996
 Frc consts  --      5.6601                 6.0803                 6.2839
 IR Inten    --     17.7146                23.5034                27.9262

                     37                     38                     39
                      A                      A                      A
 Frequencies --   3139.5474              3471.6885              3514.5960
 Red. masses --      1.1018                 1.0483                 1.0500
 Frc consts  --      6.3987                 7.4440                 7.6415
 IR Inten    --     14.7849                 1.0962                 0.6792

                     40                     41                     42
                      A                      A                      A
 Frequencies --   3564.9544              3594.4215              3676.1789
 Red. masses --      1.0928                 1.0925                 1.0646
 Frc consts  --      8.1825                 8.3162                 8.4768
 IR Inten    --      0.4464                 3.1989                80.2934

 - Thermochemistry -
 -------------------
 Temperature   298.150 Kelvin.  Pressure   1.00000 Atm.
 Atom     1 has atomic number  6 and mass  12.00000

 Molecular mass:    90.07931 amu.
 Principal axes and moments of inertia in atomic units:
                           1         2         3
     Eigenvalues --   373.95658 667.39000 683.42732
           X            0.99943  -0.02974  -0.01570
           Y            0.03057   0.99797   0.05591
           Z            0.01401  -0.05636   0.99831
 This molecule is an asymmetric top.
 Rotational symmetry number  1.
 Rotational temperatures (Kelvin)      0.23161     0.12978     0.12673
 Rotational constants (GHZ):           4.82607     2.70418     2.64072
 Zero-point vibrational energy     374973.6 (Joules/Mol)
                                   89.62085 (Kcal/Mol)
 Warning -- explicit consideration of  11 degrees of freedom as
           vibrations may cause significant error
 Vibrational temperatures:    203.34   272.63   308.10   371.47   414.35
          (Kelvin)            510.02   550.93   623.50   711.32   836.65
                              886.98  1093.15  1214.47  1241.74  1314.19
                             1351.89  1414.64  1500.08  1546.26  1587.89
                             1667.87  1803.24  1853.63  1924.44  1992.73
                             2027.36  2095.45  2131.03  2145.34  2151.97
                             2349.48  2379.34  4282.40  4379.06  4421.22
                             4480.93  4517.10  4994.98  5056.71  5129.17
                             5171.56  5289.19

 Zero-point correction=                           0.142820 (Hartree/Particle)
 Thermal correction to Energy=                    0.150385
 Thermal correction to Enthalpy=                  0.151329
 Thermal correction to Gibbs Free Energy=         0.112272
 Sum of electronic and zero-point Energies=           -304.941038
 Sum of electronic and thermal Energies=              -304.933473
 Sum of electronic and thermal Enthalpies=            -304.932529
 Sum of electronic and thermal Free Energies=         -304.971586

                     E (Thermal)             CV                S
                      KCal/Mol        Cal/Mol-Kelvin    Cal/Mol-Kelvin
 Total                   94.368             28.200             82.202
 Electronic               0.000              0.000              0.000
 Translational            0.889              2.981             39.407
 Rotational               0.889              2.981             26.636
 Vibrational             92.590             22.238             16.159
 Vibration     1          0.615              1.912              2.786
 Vibration     2          0.633              1.854              2.233
 Vibration     3          0.644              1.819              2.008
 Vibration     4          0.667              1.749              1.674
 Vibration     5          0.685              1.696              1.486
 Vibration     6          0.730              1.566              1.146
 Vibration     7          0.752              1.507              1.028
 Vibration     8          0.794              1.398              0.848
 Vibration     9          0.850              1.262              0.672
 Vibration    10          0.938              1.071              0.483
 Vibration    11          0.976              0.997              0.422

 Optimization completed.
    -- Stationary point found.
 Normal termination of Gaussian 09 at Wed Aug 24 03:45:28 2022.

 -----------------------------------------------------------------
 #P Geom=AllCheck Guess=TCheck SCRF=Check CCSD(T,E4T,FrzG4)/GTBas1
 -----------------------------------------------------------------

 Structure from the checkpoint file:  "G4.Frag_762.chk"
 --------
 Frag_762
 --------
 Charge =  0 Multiplicity = 1

 SCF Done:  E(RHF) =  -303.163336557     A.U. after   12 cycles
 E2 =    -0.9057439483D+00 EUMP2 =    -0.30406908050518D+03
 CCSD(T)
 CCSD(T)= -0.30415070211D+03
 P4SDTQ=-304.1498332\MP4SDQ=-304.124327\CCSD=-304.1251306\CCSD(T)=-304.
 Normal termination of Gaussian 09 at Wed Aug 24 03:52:13 2022.

 ---------------------------------------------------------
 #P Geom=AllCheck Guess=TCheck SCRF=Check MP4=FrzG4/GTBas2
 ---------------------------------------------------------

 Structure from the checkpoint file:  "G4.Frag_762.chk"
 --------
 Frag_762
 --------
 Charge =  0 Multiplicity = 1

 SCF Done:  E(RHF) =  -303.175398082     A.U. after   12 cycles
 E2 =    -0.9221409154D+00 EUMP2 =    -0.30409753899702D+03
 Normal termination of Gaussian 09 at Wed Aug 24 04:02:02 2022.

 ---------------------------------------------------------
 #P Geom=AllCheck Guess=TCheck SCRF=Check MP4=FrzG4/GTBas3
 ---------------------------------------------------------

 Structure from the checkpoint file:  "G4.Frag_762.chk"
 --------
 Frag_762
 --------
 Charge =  0 Multiplicity = 1

 SCF Done:  E(RHF) =  -303.210153076     A.U. after   11 cycles
 E2 =    -0.1122943451D+01 EUMP2 =    -0.30433309652728D+03
 Normal termination of Gaussian 09 at Wed Aug 24 07:44:09 2022.

 -----------------------------------------------------------
 #P Geom=AllCheck Guess=TCheck SCRF=Check MP2=Full/GTLargeXP
 -----------------------------------------------------------

 Structure from the checkpoint file:  "G4.Frag_762.chk"
 --------
 Frag_762
 --------
 Charge =  0 Multiplicity = 1

 SCF Done:  E(RHF) =  -303.291312953     A.U. after   12 cycles
 E2 =    -0.1464821848D+01 EUMP2 =    -0.30475613480043D+03
 Normal termination of Gaussian 09 at Wed Aug 24 07:51:19 2022.
 SCF Done:  E(RHF) =  -303.315201387     A.U. after    8 cycles
 Normal termination of Gaussian 09 at Wed Aug 24 07:57:51 2022.

                         Standard orientation:
 ---------------------------------------------------------------------
 Center     Atomic      Atomic             Coordinates (Angstroms)
 Number     Number       Type             X           Y           Z
 ---------------------------------------------------------------------
      1          6           0        1.724398   -0.721365   -0.334287
      2          6           0        0.446086    0.023694    0.036736
      3          7           0        0.574614    1.422668   -0.416096
      4          8           0        0.325918    0.024454    1.439420
      5          6           0       -0.801852   -0.685357   -0.548130
      6          7           0       -2.010077   -0.061138    0.006585
      7          1           0        1.878987   -0.719128   -1.418461
      8          1           0        1.677605   -1.757554    0.010998
      9          1           0        2.575689   -0.226272    0.136921
     10          1           0        0.508864    1.480077   -1.429652
     11          1           0       -0.187745    1.972256   -0.029503
     12          1           0       -0.625025    0.129208    1.604609
     13          1           0       -0.789479   -1.732002   -0.226603
     14          1           0       -0.757266   -0.674878   -1.648605
     15          1           0       -2.807166   -0.681970   -0.068424
     16          1           0       -2.245364    0.782088   -0.505978
 ---------------------------------------------------------------------

 SCF Done:  E(RHF) =  -303.320567383     A.U. after    8 cycles

 The electronic state is 1-A.
 Alpha  occ. eigenvalues --  -20.53804 -15.56118 -15.53699 -11.30722 -11.25844
 Alpha  occ. eigenvalues --  -11.20684  -1.36440  -1.19694  -1.15902  -0.99861
 Alpha  occ. eigenvalues --   -0.91209  -0.78129  -0.69937  -0.66893  -0.66217
 Alpha  occ. eigenvalues --   -0.64337  -0.61531  -0.54799  -0.53762  -0.53123
 Alpha  occ. eigenvalues --   -0.52055  -0.48588  -0.45623  -0.42231  -0.38851
 Alpha virt. eigenvalues --    0.02843   0.04254   0.04724   0.05227   0.06831
 Alpha virt. eigenvalues --    0.07471   0.07628   0.07686   0.08617   0.10047
 Alpha virt. eigenvalues --    0.10913   0.11354   0.12792   0.13086   0.13651

 Mulliken charges:
               1
     1  C   -0.545559
     2  C    0.508024
     3  N   -0.750374
     4  O   -0.629111
     5  C   -0.248087
     6  N   -0.726781
     7  H    0.157509
     8  H    0.161366
     9  H    0.194791
    10  H    0.289975
    11  H    0.288143
    12  H    0.396282
    13  H    0.165077
    14  H    0.148498
    15  H    0.302274
    16  H    0.287974
 Sum of Mulliken charges =  -0.00000

 Dipole moment (field-independent basis, Debye):
    X=             -3.0348    Y=             -0.7490    Z=             -2.9108  Tot=              4.2713
 Quadrupole moment (field-independent basis, Debye-Ang):
   XX=            -36.2395   YY=            -37.9877   ZZ=            -39.9661
   XY=             -2.3218   XZ=             -0.5740   YZ=             -1.0545

 Normal termination of Gaussian 09 at Wed Aug 24 11:13:26 2022.
