 Gaussian 09, Revision E.01,
 Gaussian 09:  ES64L-G09RevE.01 30-Nov-2015

 -----
 #P G4
 -----

 --------
 Frag_694
 --------
 Symbolic Z-matrix:
 Charge =  0 Multiplicity = 1

 SCF Done:  E(RB3LYP) =  -263.303350419     A.U. after   15 cycles
 SCF Done:  E(RB3LYP) =  -263.318505636     A.U. after   13 cycles
 SCF Done:  E(RB3LYP) =  -263.319608689     A.U. after   13 cycles
 SCF Done:  E(RB3LYP) =  -263.320195798     A.U. after   13 cycles
 SCF Done:  E(RB3LYP) =  -263.320608068     A.U. after   13 cycles
 SCF Done:  E(RB3LYP) =  -263.320935591     A.U. after   13 cycles
 SCF Done:  E(RB3LYP) =  -263.321347775     A.U. after   13 cycles
 SCF Done:  E(RB3LYP) =  -263.324295747     A.U. after   15 cycles
 SCF Done:  E(RB3LYP) =  -263.301190336     A.U. after   15 cycles
 SCF Done:  E(RB3LYP) =  -263.325279178     A.U. after   11 cycles
 SCF Done:  E(RB3LYP) =  -263.332213840     A.U. after    9 cycles
 SCF Done:  E(RB3LYP) =  -263.332214190     A.U. after    8 cycles
 SCF Done:  E(RB3LYP) =  -263.332214217     A.U. after    7 cycles
 Optimization completed.
    -- Stationary point found.
 Normal termination of Gaussian 09 at Fri Aug 26 10:59:17 2022.

 ----------------------------------------------------------
 #P Geom=AllCheck Guess=TCheck SCRF=Check B3LYP/GTBas3 Freq
 ----------------------------------------------------------

 Structure from the checkpoint file:  "G4.Frag_694.chk"
 --------
 Frag_694
 --------
 Charge =  0 Multiplicity = 1

 SCF Done:  E(RB3LYP) =  -263.332214217     A.U. after    1 cycles

  Exact polarizability:  51.461   1.390  42.870   1.164  -1.400  21.029
 Approx polarizability:  72.577  -1.962  71.355   2.604  -2.232  32.401

                      1                      2                      3
                      A                      A                      A
 Frequencies --     83.3539               326.7451               475.7406
 Red. masses --      3.6227                 3.0658                 2.2870
 Frc consts  --      0.0148                 0.1928                 0.3050
 IR Inten    --     13.1687                15.2657                 8.1958

                      4                      5                      6
                      A                      A                      A
 Frequencies --    518.3553               538.5013               654.4152
 Red. masses --      1.4737                 1.5989                 2.9994
 Frc consts  --      0.2333                 0.2732                 0.7568
 IR Inten    --     76.4187                57.9049                10.3199

                      7                      8                      9
                      A                      A                      A
 Frequencies --    841.7624               863.6116               874.5822
 Red. masses --      2.9620                 1.3556                 2.4036
 Frc consts  --      1.2365                 0.5957                 1.0832
 IR Inten    --     15.9741                39.4058                44.1672

                     10                     11                     12
                      A                      A                      A
 Frequencies --   1098.3054              1109.2198              1228.0966
 Red. masses --      2.0942                 1.4332                 1.4582
 Frc consts  --      1.4884                 1.0390                 1.2958
 IR Inten    --     57.0750                16.3075                16.1970

                     13                     14                     15
                      A                      A                      A
 Frequencies --   1234.5905              1382.8030              1483.5990
 Red. masses --      1.3329                 2.3891                 1.1885
 Frc consts  --      1.1970                 2.6915                 1.5413
 IR Inten    --     19.4318               362.1055                85.0114

                     16                     17                     18
                      A                      A                      A
 Frequencies --   1720.9380              1766.0869              3067.2712
 Red. masses --      7.2818                 6.8323                 1.0566
 Frc consts  --     12.7063                12.5557                 5.8569
 IR Inten    --     75.8494               148.1405                16.9209

                     19                     20                     21
                      A                      A                      A
 Frequencies --   3173.0032              3501.8148              3770.7234
 Red. masses --      1.1166                 1.0744                 1.0646
 Frc consts  --      6.6238                 7.7625                 8.9182
 IR Inten    --     11.8416                 4.9288                65.3540

 - Thermochemistry -
 -------------------
 Temperature   298.150 Kelvin.  Pressure   1.00000 Atm.
 Atom     1 has atomic number  6 and mass  12.00000

 Molecular mass:    72.03236 amu.
 Principal axes and moments of inertia in atomic units:
                           1         2         3
     Eigenvalues --   172.15504 382.51431 547.13031
           X            0.99997   0.00306   0.00702
           Y           -0.00298   0.99994  -0.01029
           Z           -0.00705   0.01027   0.99992
 This molecule is an asymmetric top.
 Rotational symmetry number  1.
 Rotational temperatures (Kelvin)      0.50312     0.22643     0.15831
 Rotational constants (GHZ):          10.48323     4.71810     3.29856
 Zero-point vibrational energy     177726.3 (Joules/Mol)
                                   42.47761 (Kcal/Mol)
 Warning -- explicit consideration of   5 degrees of freedom as
           vibrations may cause significant error
 Vibrational temperatures:    119.93   470.11   684.48   745.80   774.78
          (Kelvin)            941.56  1211.11  1242.54  1258.33  1580.21
                             1595.92  1766.95  1776.30  1989.54  2134.57
                             2476.04  2541.00  4413.11  4565.24  5038.32
                             5425.22

 Zero-point correction=                           0.067692 (Hartree/Particle)
 Thermal correction to Energy=                    0.072747
 Thermal correction to Enthalpy=                  0.073691
 Thermal correction to Gibbs Free Energy=         0.039522
 Sum of electronic and zero-point Energies=           -263.264522
 Sum of electronic and thermal Energies=              -263.259467
 Sum of electronic and thermal Enthalpies=            -263.258523
 Sum of electronic and thermal Free Energies=         -263.292692

                     E (Thermal)             CV                S
                      KCal/Mol        Cal/Mol-Kelvin    Cal/Mol-Kelvin
 Total                   45.649             16.992             71.914
 Electronic               0.000              0.000              0.000
 Translational            0.889              2.981             38.740
 Rotational               0.889              2.981             25.091
 Vibrational             43.872             11.030              8.083
 Vibration     1          0.600              1.961              3.810
 Vibration     2          0.710              1.622              1.276
 Vibration     3          0.832              1.304              0.722
 Vibration     4          0.873              1.209              0.614
 Vibration     5          0.894              1.165              0.569

 Optimization completed.
    -- Stationary point found.
 Normal termination of Gaussian 09 at Fri Aug 26 10:59:34 2022.

 -----------------------------------------------------------------
 #P Geom=AllCheck Guess=TCheck SCRF=Check CCSD(T,E4T,FrzG4)/GTBas1
 -----------------------------------------------------------------

 Structure from the checkpoint file:  "G4.Frag_694.chk"
 --------
 Frag_694
 --------
 Charge =  0 Multiplicity = 1

 SCF Done:  E(RHF) =  -261.789829863     A.U. after   13 cycles
 E2 =    -0.7458367227D+00 EUMP2 =    -0.26253566658624D+03
 CCSD(T)
 CCSD(T)= -0.26259161820D+03
 46099\CCSD=-262.5646835\CCSD(T)=-262.5916182\RMSD=7.971e-09\PG=C01 [X(
 Normal termination of Gaussian 09 at Fri Aug 26 11:00:19 2022.

 ---------------------------------------------------------
 #P Geom=AllCheck Guess=TCheck SCRF=Check MP4=FrzG4/GTBas2
 ---------------------------------------------------------

 Structure from the checkpoint file:  "G4.Frag_694.chk"
 --------
 Frag_694
 --------
 Charge =  0 Multiplicity = 1

 SCF Done:  E(RHF) =  -261.799381131     A.U. after   13 cycles
 E2 =    -0.7570802997D+00 EUMP2 =    -0.26255646143053D+03
 Normal termination of Gaussian 09 at Fri Aug 26 11:00:31 2022.

 ---------------------------------------------------------
 #P Geom=AllCheck Guess=TCheck SCRF=Check MP4=FrzG4/GTBas3
 ---------------------------------------------------------

 Structure from the checkpoint file:  "G4.Frag_694.chk"
 --------
 Frag_694
 --------
 Charge =  0 Multiplicity = 1

 SCF Done:  E(RHF) =  -261.823556868     A.U. after   12 cycles
 E2 =    -0.8984556867D+00 EUMP2 =    -0.26272201255472D+03
 Normal termination of Gaussian 09 at Fri Aug 26 11:01:29 2022.

 -----------------------------------------------------------
 #P Geom=AllCheck Guess=TCheck SCRF=Check MP2=Full/GTLargeXP
 -----------------------------------------------------------

 Structure from the checkpoint file:  "G4.Frag_694.chk"
 --------
 Frag_694
 --------
 Charge =  0 Multiplicity = 1

 SCF Done:  E(RHF) =  -261.894513445     A.U. after   12 cycles
 E2 =    -0.1178769693D+01 EUMP2 =    -0.26307328313803D+03
 Normal termination of Gaussian 09 at Fri Aug 26 11:02:03 2022.
 SCF Done:  E(RHF) =  -261.914938159     A.U. after    9 cycles
 Normal termination of Gaussian 09 at Fri Aug 26 11:02:42 2022.

                         Standard orientation:
 ---------------------------------------------------------------------
 Center     Atomic      Atomic             Coordinates (Angstroms)
 Number     Number       Type             X           Y           Z
 ---------------------------------------------------------------------
      1          6           0        1.842360    0.009510    0.104603
      2          7           0        0.770159    0.623665   -0.183770
      3          6           0       -0.450590   -0.090742   -0.035938
      4          7           0       -0.543347   -1.351786   -0.065621
      5          8           0       -1.491439    0.758539    0.104207
      6          1           0        1.850376   -1.024771    0.460273
      7          1           0        2.792421    0.529052   -0.016592
      8          1           0       -1.516168   -1.642000    0.027121
      9          1           0       -1.133415    1.653648    0.029289
 ---------------------------------------------------------------------

 SCF Done:  E(RHF) =  -261.919159788     A.U. after    8 cycles

 The electronic state is 1-A.
 Alpha  occ. eigenvalues --  -20.60370 -15.58774 -15.53478 -11.37118 -11.31157
 Alpha  occ. eigenvalues --   -1.44038  -1.26720  -1.17827  -0.91835  -0.79668
 Alpha  occ. eigenvalues --   -0.74941  -0.69733  -0.65368  -0.61841  -0.57788
 Alpha  occ. eigenvalues --   -0.49161  -0.46597  -0.44486  -0.39913
 Alpha virt. eigenvalues --    0.03710   0.04658   0.04813   0.05303   0.06569
 Alpha virt. eigenvalues --    0.07136   0.07816   0.09598   0.11361   0.12164
 Alpha virt. eigenvalues --    0.13132   0.13713   0.14673   0.15516   0.15820

 Mulliken charges:
               1
     1  C   -0.121403
     2  N   -0.415088
     3  C    0.588468
     4  N   -0.682572
     5  O   -0.547090
     6  H    0.235880
     7  H    0.229003
     8  H    0.303243
     9  H    0.409559
 Sum of Mulliken charges =  -0.00000

 Dipole moment (field-independent basis, Debye):
    X=              1.6281    Y=              1.2010    Z=              0.6608  Tot=              2.1283
 Quadrupole moment (field-independent basis, Debye-Ang):
   XX=            -23.9711   YY=            -30.0391   ZZ=            -30.6962
   XY=             -0.3213   XZ=              1.0463   YZ=             -0.3536

 Normal termination of Gaussian 09 at Fri Aug 26 11:06:30 2022.
