 Gaussian 09, Revision E.01,
 Gaussian 09:  ES64L-G09RevE.01 30-Nov-2015

 -----
 #P G4
 -----

 ---------
 Frag_1040
 ---------
 Symbolic Z-matrix:
 Charge =  0 Multiplicity = 1

 SCF Done:  E(RB3LYP) =  -344.835376033     A.U. after   12 cycles
 SCF Done:  E(RB3LYP) =  -344.840629607     A.U. after   11 cycles
 SCF Done:  E(RB3LYP) =  -344.841106129     A.U. after   10 cycles
 SCF Done:  E(RB3LYP) =  -344.841387303     A.U. after   10 cycles
 SCF Done:  E(RB3LYP) =  -344.841570224     A.U. after   10 cycles
 SCF Done:  E(RB3LYP) =  -344.841618980     A.U. after   10 cycles
 SCF Done:  E(RB3LYP) =  -344.841667389     A.U. after   10 cycles
 SCF Done:  E(RB3LYP) =  -344.841682102     A.U. after    9 cycles
 SCF Done:  E(RB3LYP) =  -344.841691188     A.U. after    9 cycles
 SCF Done:  E(RB3LYP) =  -344.841697913     A.U. after    8 cycles
 SCF Done:  E(RB3LYP) =  -344.841701517     A.U. after    7 cycles
 SCF Done:  E(RB3LYP) =  -344.841702022     A.U. after    7 cycles
 SCF Done:  E(RB3LYP) =  -344.841702295     A.U. after    7 cycles
 Optimization completed.
    -- Stationary point found.
 Normal termination of Gaussian 09 at Fri Aug 26 14:21:28 2022.

 ----------------------------------------------------------
 #P Geom=AllCheck Guess=TCheck SCRF=Check B3LYP/GTBas3 Freq
 ----------------------------------------------------------

 Structure from the checkpoint file:  "G4.Frag_1040.chk"
 ---------
 Frag_1040
 ---------
 Charge =  0 Multiplicity = 1

 SCF Done:  E(RB3LYP) =  -344.841702295     A.U. after    1 cycles

  Exact polarizability:  48.285  -0.022  44.088   0.189  -0.356  43.389
 Approx polarizability:  60.278   0.560  62.384   1.714  -0.958  63.564

                      1                      2                      3
                      A                      A                      A
 Frequencies --    117.1991               174.0879               211.8224
 Red. masses --      2.1156                 1.1417                 1.1914
 Frc consts  --      0.0171                 0.0204                 0.0315
 IR Inten    --      1.1070               126.7973                 1.1741

                      4                      5                      6
                      A                      A                      A
 Frequencies --    238.9630               265.0371               329.2013
 Red. masses --      3.2708                 1.0970                 1.3336
 Frc consts  --      0.1100                 0.0454                 0.0852
 IR Inten    --      2.1592                29.0103                61.4280

                      7                      8                      9
                      A                      A                      A
 Frequencies --    387.2036               440.1820               529.2301
 Red. masses --      2.6103                 2.8250                 3.5396
 Frc consts  --      0.2306                 0.3225                 0.5841
 IR Inten    --     11.3067                37.8057                18.8338

                     10                     11                     12
                      A                      A                      A
 Frequencies --    544.9110               603.8303               792.3137
 Red. masses --      3.2586                 4.6812                 2.8506
 Frc consts  --      0.5701                 1.0056                 1.0543
 IR Inten    --     28.0749                17.0593                 4.0736

                     13                     14                     15
                      A                      A                      A
 Frequencies --    800.2122               979.9116              1001.9994
 Red. masses --      1.4235                 1.8796                 2.6257
 Frc consts  --      0.5371                 1.0634                 1.5532
 IR Inten    --      0.5275                43.7203               113.8649

                     16                     17                     18
                      A                      A                      A
 Frequencies --   1033.2728              1066.6028              1109.3389
 Red. masses --      2.6103                 2.1156                 1.8394
 Frc consts  --      1.6420                 1.4180                 1.3337
 IR Inten    --     96.5495                69.9058                67.7579

                     19                     20                     21
                      A                      A                      A
 Frequencies --   1170.7457              1269.4175              1292.9854
 Red. masses --      1.9885                 1.2439                 1.3069
 Frc consts  --      1.6059                 1.1810                 1.2873
 IR Inten    --    142.9661                11.2670                47.6182

                     22                     23                     24
                      A                      A                      A
 Frequencies --   1374.1878              1383.3110              1407.1280
 Red. masses --      1.4722                 1.7204                 1.3302
 Frc consts  --      1.6380                 1.9396                 1.5518
 IR Inten    --     54.6927                49.0764                13.4265

                     25                     26                     27
                      A                      A                      A
 Frequencies --   1444.0082              1476.7965              1493.1424
 Red. masses --      1.8332                 1.0854                 1.0406
 Frc consts  --      2.2522                 1.3948                 1.3669
 IR Inten    --    147.9270                 1.1871                 2.3340

                     28                     29                     30
                      A                      A                      A
 Frequencies --   1513.1434              3032.0647              3049.2695
 Red. masses --      1.0696                 1.0625                 1.0354
 Frc consts  --      1.4429                 5.7550                 5.6723
 IR Inten    --      9.0461                26.3902                23.1110

                     31                     32                     33
                      A                      A                      A
 Frequencies --   3079.1164              3118.5345              3132.6922
 Red. masses --      1.0997                 1.1009                 1.1023
 Frc consts  --      6.1431                 6.3078                 6.3734
 IR Inten    --     17.1291                25.0836                23.6968

                     34                     35                     36
                      A                      A                      A
 Frequencies --   3791.2703              3820.6208              3825.9597
 Red. masses --      1.0647                 1.0662                 1.0645
 Frc consts  --      9.0167                 9.1701                 9.1808
 IR Inten    --     32.1131                32.0859                43.2587

 - Thermochemistry -
 -------------------
 Temperature   298.150 Kelvin.  Pressure   1.00000 Atm.
 Atom     1 has atomic number  6 and mass  12.00000

 Molecular mass:    92.04734 amu.
 Principal axes and moments of inertia in atomic units:
                           1         2         3
     Eigenvalues --   354.56611 664.46041 669.92670
           X            0.99990  -0.01156  -0.00798
           Y            0.01083   0.99625  -0.08579
           Z            0.00894   0.08570   0.99628
 This molecule is an asymmetric top.
 Rotational symmetry number  1.
 Rotational temperatures (Kelvin)      0.24428     0.13035     0.12929
 Rotational constants (GHZ):           5.09000     2.71610     2.69394
 Zero-point vibrational energy     306840.4 (Joules/Mol)
                                   73.33662 (Kcal/Mol)
 Warning -- explicit consideration of  11 degrees of freedom as
           vibrations may cause significant error
 Vibrational temperatures:    168.62   250.47   304.76   343.81   381.33
          (Kelvin)            473.65   557.10   633.32   761.44   784.00
                              868.78  1139.96  1151.33  1409.87  1441.65
                             1486.65  1534.60  1596.09  1684.44  1826.41
                             1860.32  1977.15  1990.27  2024.54  2077.60
                             2124.78  2148.30  2177.07  4362.46  4387.21
                             4430.16  4486.87  4507.24  5454.79  5497.01
                             5504.70

 Zero-point correction=                           0.116869 (Hartree/Particle)
 Thermal correction to Energy=                    0.124458
 Thermal correction to Enthalpy=                  0.125402
 Thermal correction to Gibbs Free Energy=         0.086079
 Sum of electronic and zero-point Energies=           -344.724833
 Sum of electronic and thermal Energies=              -344.717244
 Sum of electronic and thermal Enthalpies=            -344.716300
 Sum of electronic and thermal Free Energies=         -344.755624

                     E (Thermal)             CV                S
                      KCal/Mol        Cal/Mol-Kelvin    Cal/Mol-Kelvin
 Total                   78.099             27.174             82.764
 Electronic               0.000              0.000              0.000
 Translational            0.889              2.981             39.471
 Rotational               0.889              2.981             26.559
 Vibrational             76.321             21.212             16.734
 Vibration     1          0.608              1.935              3.146
 Vibration     2          0.627              1.874              2.391
 Vibration     3          0.643              1.823              2.028
 Vibration     4          0.657              1.781              1.811
 Vibration     5          0.671              1.737              1.628
 Vibration     6          0.712              1.617              1.264
 Vibration     7          0.756              1.498              1.011
 Vibration     8          0.800              1.383              0.826
 Vibration     9          0.884              1.185              0.589
 Vibration    10          0.900              1.151              0.555
 Vibration    11          0.962              1.024              0.443

 Normal termination of Gaussian 09 at Fri Aug 26 14:22:03 2022.

 -----------------------------------------------------------------
 #P Geom=AllCheck Guess=TCheck SCRF=Check CCSD(T,E4T,FrzG4)/GTBas1
 -----------------------------------------------------------------

 Structure from the checkpoint file:  "G4.Frag_1040.chk"
 ---------
 Frag_1040
 ---------
 Charge =  0 Multiplicity = 1

 SCF Done:  E(RHF) =  -342.847684900     A.U. after   11 cycles
 E2 =    -0.9299844131D+00 EUMP2 =    -0.34377766931299D+03
 CCSD(T)
 CCSD(T)= -0.34384670939D+03
 4SDQ=-343.8223341\CCSD=-343.8223585\CCSD(T)=-343.8467094\RMSD=7.336e-0
 Normal termination of Gaussian 09 at Fri Aug 26 14:24:14 2022.

 ---------------------------------------------------------
 #P Geom=AllCheck Guess=TCheck SCRF=Check MP4=FrzG4/GTBas2
 ---------------------------------------------------------

 Structure from the checkpoint file:  "G4.Frag_1040.chk"
 ---------
 Frag_1040
 ---------
 Charge =  0 Multiplicity = 1

 SCF Done:  E(RHF) =  -342.859146444     A.U. after   11 cycles
 E2 =    -0.9470780198D+00 EUMP2 =    -0.34380622446361D+03
 Normal termination of Gaussian 09 at Fri Aug 26 14:24:59 2022.

 ---------------------------------------------------------
 #P Geom=AllCheck Guess=TCheck SCRF=Check MP4=FrzG4/GTBas3
 ---------------------------------------------------------

 Structure from the checkpoint file:  "G4.Frag_1040.chk"
 ---------
 Frag_1040
 ---------
 Charge =  0 Multiplicity = 1

 SCF Done:  E(RHF) =  -342.896757908     A.U. after   10 cycles
 E2 =    -0.1160656371D+01 EUMP2 =    -0.34405741427828D+03
 Normal termination of Gaussian 09 at Fri Aug 26 14:28:53 2022.

 -----------------------------------------------------------
 #P Geom=AllCheck Guess=TCheck SCRF=Check MP2=Full/GTLargeXP
 -----------------------------------------------------------

 Structure from the checkpoint file:  "G4.Frag_1040.chk"
 ---------
 Frag_1040
 ---------
 Charge =  0 Multiplicity = 1

 SCF Done:  E(RHF) =  -342.993187593     A.U. after   11 cycles
 E2 =    -0.1513428923D+01 EUMP2 =    -0.34450661651617D+03
 Normal termination of Gaussian 09 at Fri Aug 26 14:30:45 2022.
 SCF Done:  E(RHF) =  -343.021554352     A.U. after    8 cycles
 Normal termination of Gaussian 09 at Fri Aug 26 14:32:37 2022.

                         Standard orientation:
 ---------------------------------------------------------------------
 Center     Atomic      Atomic             Coordinates (Angstroms)
 Number     Number       Type             X           Y           Z
 ---------------------------------------------------------------------
      1          6           0        2.119312    0.074372   -0.040517
      2          6           0        0.869623   -0.806449   -0.024501
      3          6           0       -0.436819   -0.004578    0.017704
      4          8           0       -0.552298    0.896343   -1.050233
      5          8           0       -1.567498   -0.850142   -0.094195
      6          8           0       -0.451235    0.719658    1.204442
      7          1           0        3.024291   -0.536787   -0.104822
      8          1           0        2.097533    0.750274   -0.899377
      9          1           0        2.175717    0.681526    0.866093
     10          1           0        0.886045   -1.474293    0.845903
     11          1           0        0.827686   -1.439977   -0.916685
     12          1           0       -1.050385    0.445805   -1.741050
     13          1           0       -1.528970   -1.485695    0.628566
     14          1           0       -1.176362    1.352198    1.125144
 ---------------------------------------------------------------------

 SCF Done:  E(RHF) =  -343.027851516     A.U. after    7 cycles

 The electronic state is 1-A.
 Alpha  occ. eigenvalues --  -20.57462 -20.56920 -20.56904 -11.39540 -11.22892
 Alpha  occ. eigenvalues --  -11.21058  -1.46154  -1.35074  -1.34400  -1.04732
 Alpha  occ. eigenvalues --   -0.90497  -0.81963  -0.75952  -0.73002  -0.66717
 Alpha  occ. eigenvalues --   -0.63030  -0.59866  -0.56900  -0.56561  -0.54435
 Alpha  occ. eigenvalues --   -0.51850  -0.50269  -0.49230  -0.48299  -0.45561
 Alpha virt. eigenvalues --    0.03858   0.04289   0.04814   0.05115   0.06628
 Alpha virt. eigenvalues --    0.07280   0.07566   0.08109   0.08827   0.10285
 Alpha virt. eigenvalues --    0.12811   0.13159   0.14640   0.14761   0.15719

 Mulliken charges:
               1
     1  C   -0.540127
     2  C   -0.255186
     3  C    0.601036
     4  O   -0.616681
     5  O   -0.611483
     6  O   -0.595700
     7  H    0.161986
     8  H    0.184466
     9  H    0.186686
    10  H    0.151680
    11  H    0.180880
    12  H    0.392038
    13  H    0.377244
    14  H    0.383160
 Sum of Mulliken charges =  -0.00000

 Dipole moment (field-independent basis, Debye):
    X=             -0.3414    Y=             -1.4150    Z=             -0.0717  Tot=              1.4573
 Quadrupole moment (field-independent basis, Debye-Ang):
   XX=            -36.7800   YY=            -35.4941   ZZ=            -35.8427
   XY=             -1.6178   XZ=             -1.1792   YZ=             -0.4413

 Normal termination of Gaussian 09 at Fri Aug 26 14:38:56 2022.
