 Gaussian 09, Revision E.01,
 Gaussian 09:  ES64L-G09RevE.01 30-Nov-2015

 -----
 #P G4
 -----

 --------
 Frag_584
 --------
 Symbolic Z-matrix:
 Charge =  0 Multiplicity = 1

 SCF Done:  E(RB3LYP) =  -285.627808961     A.U. after   12 cycles
 SCF Done:  E(RB3LYP) =  -285.634271890     A.U. after   11 cycles
 SCF Done:  E(RB3LYP) =  -285.635323671     A.U. after   10 cycles
 SCF Done:  E(RB3LYP) =  -285.635820209     A.U. after   10 cycles
 SCF Done:  E(RB3LYP) =  -285.636006593     A.U. after   10 cycles
 SCF Done:  E(RB3LYP) =  -285.636113134     A.U. after   10 cycles
 SCF Done:  E(RB3LYP) =  -285.636159237     A.U. after    9 cycles
 SCF Done:  E(RB3LYP) =  -285.636167899     A.U. after    9 cycles
 SCF Done:  E(RB3LYP) =  -285.636171838     A.U. after    8 cycles
 SCF Done:  E(RB3LYP) =  -285.636173939     A.U. after    7 cycles
 SCF Done:  E(RB3LYP) =  -285.636174394     A.U. after    7 cycles
 SCF Done:  E(RB3LYP) =  -285.636174460     A.U. after    6 cycles
 Optimization completed.
    -- Stationary point found.
 Normal termination of Gaussian 09 at Mon Aug 22 15:29:52 2022.

 ----------------------------------------------------------
 #P Geom=AllCheck Guess=TCheck SCRF=Check B3LYP/GTBas3 Freq
 ----------------------------------------------------------

 Structure from the checkpoint file:  "G4.Frag_584.chk"
 --------
 Frag_584
 --------
 Charge =  0 Multiplicity = 1

 SCF Done:  E(RB3LYP) =  -285.636174460     A.U. after    1 cycles

  Exact polarizability:  43.276   0.678  37.062   1.260   0.053  35.843
 Approx polarizability:  53.763   0.596  52.789   2.415   0.696  51.772

                      1                      2                      3
                      A                      A                      A
 Frequencies --    121.1788               196.8488               258.4676
 Red. masses --      2.2937                 1.1741                 1.9120
 Frc consts  --      0.0198                 0.0268                 0.0753
 IR Inten    --      0.2742                 0.5944                41.6442

                      4                      5                      6
                      A                      A                      A
 Frequencies --    295.3981               376.7371               483.7956
 Red. masses --      1.4524                 1.2052                 2.9651
 Frc consts  --      0.0747                 0.1008                 0.4089
 IR Inten    --     42.0048                88.1504                27.4922

                      7                      8                      9
                      A                      A                      A
 Frequencies --    528.1577               602.2087               784.3772
 Red. masses --      3.4038                 3.2200                 1.6399
 Frc consts  --      0.5594                 0.6880                 0.5944
 IR Inten    --     22.4699                 8.9446               108.3428

                     10                     11                     12
                      A                      A                      A
 Frequencies --    972.8139              1007.6150              1087.1349
 Red. masses --      1.7560                 3.0811                 3.4856
 Frc consts  --      0.9791                 1.8431                 2.4271
 IR Inten    --     35.3707               137.5254                97.0549

                     13                     14                     15
                      A                      A                      A
 Frequencies --   1130.7983              1157.5932              1167.6698
 Red. masses --      3.9334                 1.4799                 1.3899
 Frc consts  --      2.9634                 1.1684                 1.1165
 IR Inten    --    107.5188                30.1645                23.1725

                     16                     17                     18
                      A                      A                      A
 Frequencies --   1278.5918              1345.1040              1372.6384
 Red. masses --      1.4710                 1.3937                 1.3091
 Frc consts  --      1.4169                 1.4857                 1.4532
 IR Inten    --     79.9551                66.4898                31.9276

                     19                     20                     21
                      A                      A                      A
 Frequencies --   1437.3280              1461.2052              1486.2080
 Red. masses --      1.1903                 1.2169                 1.0927
 Frc consts  --      1.4489                 1.5309                 1.4220
 IR Inten    --     38.6304                23.6345                18.8362

                     22                     23                     24
                      A                      A                      A
 Frequencies --   1498.5164              1522.4612              3000.1763
 Red. masses --      1.2239                 1.0610                 1.0556
 Frc consts  --      1.6193                 1.4490                 5.5981
 IR Inten    --     34.3802                21.2372                38.7262

                     25                     26                     27
                      A                      A                      A
 Frequencies --   3007.0593              3074.5765              3112.6103
 Red. masses --      1.0732                 1.0905                 1.1014
 Frc consts  --      5.7175                 6.0734                 6.2871
 IR Inten    --     64.5131                30.4896                25.4185

                     28                     29                     30
                      A                      A                      A
 Frequencies --   3491.8052              3784.1398              3810.1236
 Red. masses --      1.0730                 1.0649                 1.0647
 Frc consts  --      7.7079                 8.9846                 9.1066
 IR Inten    --      0.3118                24.7071                30.7902

 - Thermochemistry -
 -------------------
 Temperature   298.150 Kelvin.  Pressure   1.00000 Atm.
 Atom     1 has atomic number  6 and mass  12.00000

 Molecular mass:    77.04768 amu.
 Principal axes and moments of inertia in atomic units:
                           1         2         3
     Eigenvalues --   204.72469 475.28037 619.40197
           X            0.99990   0.01189   0.00724
           Y           -0.01183   0.99989  -0.00901
           Z           -0.00735   0.00892   0.99993
 This molecule is an asymmetric top.
 Rotational symmetry number  1.
 Rotational temperatures (Kelvin)      0.42307     0.18224     0.13983
 Rotational constants (GHZ):           8.81545     3.79721     2.91368
 Zero-point vibrational energy     268282.5 (Joules/Mol)
                                   64.12107 (Kcal/Mol)
 Warning -- explicit consideration of   8 degrees of freedom as
           vibrations may cause significant error
 Vibrational temperatures:    174.35   283.22   371.88   425.01   542.04
          (Kelvin)            696.07   759.90   866.44  1128.54  1399.66
                             1449.73  1564.14  1626.96  1665.52  1680.01
                             1839.61  1935.30  1974.92  2067.99  2102.35
                             2138.32  2156.03  2190.48  4316.58  4326.48
                             4423.62  4478.35  5023.92  5444.53  5481.91

 Zero-point correction=                           0.102183 (Hartree/Particle)
 Thermal correction to Energy=                    0.108413
 Thermal correction to Enthalpy=                  0.109357
 Thermal correction to Gibbs Free Energy=         0.073028
 Sum of electronic and zero-point Energies=           -285.533991
 Sum of electronic and thermal Energies=              -285.527762
 Sum of electronic and thermal Enthalpies=            -285.526818
 Sum of electronic and thermal Free Energies=         -285.563147

                     E (Thermal)             CV                S
                      KCal/Mol        Cal/Mol-Kelvin    Cal/Mol-Kelvin
 Total                   68.030             21.455             76.461
 Electronic               0.000              0.000              0.000
 Translational            0.889              2.981             38.941
 Rotational               0.889              2.981             25.603
 Vibrational             66.253             15.493             11.918
 Vibration     1          0.609              1.932              3.081
 Vibration     2          0.636              1.844              2.162
 Vibration     3          0.667              1.748              1.672
 Vibration     4          0.690              1.682              1.443
 Vibration     5          0.747              1.520              1.052
 Vibration     6          0.840              1.286              0.700
 Vibration     7          0.883              1.188              0.591
 Vibration     8          0.961              1.027              0.446

 Optimization completed.
    -- Stationary point found.
 Normal termination of Gaussian 09 at Mon Aug 22 15:31:21 2022.

 -----------------------------------------------------------------
 #P Geom=AllCheck Guess=TCheck SCRF=Check CCSD(T,E4T,FrzG4)/GTBas1
 -----------------------------------------------------------------

 Structure from the checkpoint file:  "G4.Frag_584.chk"
 --------
 Frag_584
 --------
 Charge =  0 Multiplicity = 1

 SCF Done:  E(RHF) =  -283.963109310     A.U. after   12 cycles
 E2 =    -0.7819685786D+00 EUMP2 =    -0.28474507788844D+03
 CCSD(T)
 CCSD(T)= -0.28480492423D+03
 CSD=-284.7847014\CCSD(T)=-284.8049242\RMSD=3.751e-09\PG=C01 [X(C2H7N1O
 Normal termination of Gaussian 09 at Mon Aug 22 15:33:29 2022.

 ---------------------------------------------------------
 #P Geom=AllCheck Guess=TCheck SCRF=Check MP4=FrzG4/GTBas2
 ---------------------------------------------------------

 Structure from the checkpoint file:  "G4.Frag_584.chk"
 --------
 Frag_584
 --------
 Charge =  0 Multiplicity = 1

 SCF Done:  E(RHF) =  -283.973906372     A.U. after   11 cycles
 E2 =    -0.7968254478D+00 EUMP2 =    -0.28477073181949D+03
 Normal termination of Gaussian 09 at Mon Aug 22 15:36:01 2022.

 ---------------------------------------------------------
 #P Geom=AllCheck Guess=TCheck SCRF=Check MP4=FrzG4/GTBas3
 ---------------------------------------------------------

 Structure from the checkpoint file:  "G4.Frag_584.chk"
 --------
 Frag_584
 --------
 Charge =  0 Multiplicity = 1

 SCF Done:  E(RHF) =  -284.004271017     A.U. after   11 cycles
 E2 =    -0.9729350614D+00 EUMP2 =    -0.28497720607794D+03
 Normal termination of Gaussian 09 at Mon Aug 22 16:24:18 2022.

 -----------------------------------------------------------
 #P Geom=AllCheck Guess=TCheck SCRF=Check MP2=Full/GTLargeXP
 -----------------------------------------------------------

 Structure from the checkpoint file:  "G4.Frag_584.chk"
 --------
 Frag_584
 --------
 Charge =  0 Multiplicity = 1

 SCF Done:  E(RHF) =  -284.085580599     A.U. after   11 cycles
 E2 =    -0.1267519698D+01 EUMP2 =    -0.28535310029682D+03
 Normal termination of Gaussian 09 at Mon Aug 22 16:27:10 2022.
 SCF Done:  E(RHF) =  -284.108806301     A.U. after    8 cycles
 Normal termination of Gaussian 09 at Mon Aug 22 16:30:10 2022.

                         Standard orientation:
 ---------------------------------------------------------------------
 Center     Atomic      Atomic             Coordinates (Angstroms)
 Number     Number       Type             X           Y           Z
 ---------------------------------------------------------------------
      1          6           0        1.963794    0.015629    0.085363
      2          7           0        0.694125   -0.622564   -0.260811
      3          6           0       -0.462653    0.009296    0.331472
      4          8           0       -1.601582   -0.745612    0.006813
      5          8           0       -0.716037    1.328805   -0.070506
      6          1           0        2.780540   -0.512112   -0.413940
      7          1           0        2.126380   -0.066210    1.165420
      8          1           0        2.009742    1.080094   -0.185230
      9          1           0        0.570149   -0.628856   -1.270683
     10          1           0       -0.289606    0.067859    1.416616
     11          1           0       -1.327478   -1.669671    0.029353
     12          1           0       -1.194500    1.271750   -0.907328
 ---------------------------------------------------------------------

 SCF Done:  E(RHF) =  -284.114008295     A.U. after    8 cycles

 The electronic state is 1-A.
 Alpha  occ. eigenvalues --  -20.56935 -20.56245 -15.55661 -11.36319 -11.25123
 Alpha  occ. eigenvalues --   -1.42694  -1.33803  -1.20276  -0.93524  -0.86711
 Alpha  occ. eigenvalues --   -0.74259  -0.70061  -0.66757  -0.63001  -0.58932
 Alpha  occ. eigenvalues --   -0.56027  -0.54011  -0.53129  -0.50965  -0.46247
 Alpha  occ. eigenvalues --   -0.40095
 Alpha virt. eigenvalues --    0.03990   0.04554   0.04923   0.05596   0.07142
 Alpha virt. eigenvalues --    0.07580   0.07935   0.10366   0.10779   0.13209
 Alpha virt. eigenvalues --    0.13793   0.14817   0.15466   0.16537   0.17116

 Mulliken charges:
               1
     1  C   -0.450906
     2  N   -0.416156
     3  C    0.321859
     4  O   -0.589542
     5  O   -0.572295
     6  H    0.174950
     7  H    0.162772
     8  H    0.181789
     9  H    0.270867
    10  H    0.155819
    11  H    0.391048
    12  H    0.369796
 Sum of Mulliken charges =  -0.00000

 Dipole moment (field-independent basis, Debye):
    X=              1.3629    Y=             -1.0526    Z=             -1.0932  Tot=              2.0397
 Quadrupole moment (field-independent basis, Debye-Ang):
   XX=            -32.8172   YY=            -32.5232   ZZ=            -27.4363
   XY=              1.1240   XZ=              1.1525   YZ=             -1.3062

 Normal termination of Gaussian 09 at Mon Aug 22 17:58:22 2022.
