 Gaussian 09, Revision E.01,
 Gaussian 09:  ES64L-G09RevE.01 30-Nov-2015

 -----
 #P G4
 -----

 --------
 Frag_520
 --------
 Symbolic Z-matrix:
 Charge =  0 Multiplicity = 1

 SCF Done:  E(RB3LYP) =  -248.478714563     A.U. after   13 cycles
 SCF Done:  E(RB3LYP) =  -248.494720686     A.U. after   13 cycles
 SCF Done:  E(RB3LYP) =  -248.495356547     A.U. after   10 cycles
 SCF Done:  E(RB3LYP) =  -248.495544039     A.U. after   10 cycles
 SCF Done:  E(RB3LYP) =  -248.495673229     A.U. after   10 cycles
 SCF Done:  E(RB3LYP) =  -248.495717965     A.U. after    9 cycles
 SCF Done:  E(RB3LYP) =  -248.495740834     A.U. after    9 cycles
 SCF Done:  E(RB3LYP) =  -248.495731011     A.U. after    9 cycles
 SCF Done:  E(RB3LYP) =  -248.495701284     A.U. after   11 cycles
 SCF Done:  E(RB3LYP) =  -248.495778705     A.U. after   11 cycles
 SCF Done:  E(RB3LYP) =  -248.498552195     A.U. after    9 cycles
 SCF Done:  E(RB3LYP) =  -248.498555177     A.U. after    8 cycles
 SCF Done:  E(RB3LYP) =  -248.498555341     A.U. after    7 cycles
 Optimization completed.
    -- Stationary point found.
 Normal termination of Gaussian 09 at Tue Aug 30 09:28:16 2022.

 ----------------------------------------------------------
 #P Geom=AllCheck Guess=TCheck SCRF=Check B3LYP/GTBas3 Freq
 ----------------------------------------------------------

 Structure from the checkpoint file:  "G4.Frag_520.chk"
 --------
 Frag_520
 --------
 Charge =  0 Multiplicity = 1

 SCF Done:  E(RB3LYP) =  -248.498555341     A.U. after    1 cycles

  Exact polarizability:  60.993   4.556  47.083  -0.477  -0.371  29.182
 Approx polarizability:  92.333   8.977  63.096  -1.161  -0.728  43.543

                      1                      2                      3
                      A                      A                      A
 Frequencies --    167.2253               230.8648               263.4523
 Red. masses --      1.0331                 1.1448                 2.7091
 Frc consts  --      0.0170                 0.0359                 0.1108
 IR Inten    --     10.9370               136.4404                12.1214

                      4                      5                      6
                      A                      A                      A
 Frequencies --    294.9894               327.0306               415.2293
 Red. masses --      2.6170                 1.2769                 2.4719
 Frc consts  --      0.1342                 0.0805                 0.2511
 IR Inten    --     21.4104                16.0407                 8.5195

                      7                      8                      9
                      A                      A                      A
 Frequencies --    474.7433               594.1366               767.9082
 Red. masses --      2.2013                 4.9609                 1.3970
 Frc consts  --      0.2923                 1.0318                 0.4854
 IR Inten    --     19.7462                 7.4304               194.4246

                     10                     11                     12
                      A                      A                      A
 Frequencies --    820.5049               842.5796              1020.6015
 Red. masses --      1.5076                 3.0950                 1.3833
 Frc consts  --      0.5980                 1.2946                 0.8489
 IR Inten    --     67.8977                 8.7300                 4.9529

                     13                     14                     15
                      A                      A                      A
 Frequencies --   1065.9244              1102.5727              1202.7810
 Red. masses --      1.4713                 2.1609                 2.0966
 Frc consts  --      0.9849                 1.5477                 1.7871
 IR Inten    --      2.2016                54.8629               188.1460

                     16                     17                     18
                      A                      A                      A
 Frequencies --   1229.9383              1326.5746              1387.2299
 Red. masses --      1.2007                 2.1919                 1.2176
 Frc consts  --      1.0702                 2.2726                 1.3805
 IR Inten    --     20.6143                 3.9828                 1.0372

                     19                     20                     21
                      A                      A                      A
 Frequencies --   1431.0999              1484.1198              1489.6233
 Red. masses --      1.6696                 1.0517                 1.0552
 Frc consts  --      2.0147                 1.3648                 1.3795
 IR Inten    --      5.1974                 5.2846                 4.4595

                     22                     23                     24
                      A                      A                      A
 Frequencies --   1646.3638              1769.5323              3014.9237
 Red. masses --      1.1209                 5.8334                 1.0461
 Frc consts  --      1.7900                10.7619                 5.6025
 IR Inten    --     38.2641                 1.4587                42.1258

                     25                     26                     27
                      A                      A                      A
 Frequencies --   3068.7384              3117.5115              3153.5757
 Red. masses --      1.0929                 1.0896                 1.0958
 Frc consts  --      6.0638                 6.2393                 6.4209
 IR Inten    --     22.1619                35.8503                 6.6374

                     28                     29                     30
                      A                      A                      A
 Frequencies --   3500.3744              3596.2786              3815.8243
 Red. masses --      1.0480                 1.0944                 1.0664
 Frc consts  --      7.5656                 8.3395                 9.1485
 IR Inten    --      0.5530                 0.8456                42.0386

 - Thermochemistry -
 -------------------
 Temperature   298.150 Kelvin.  Pressure   1.00000 Atm.
 Atom     1 has atomic number  6 and mass  12.00000

 Molecular mass:    73.05276 amu.
 Principal axes and moments of inertia in atomic units:
                           1         2         3
     Eigenvalues --   205.79469 470.97597 659.49483
           X            0.99966   0.02599  -0.00048
           Y           -0.02599   0.99962  -0.00900
           Z            0.00025   0.00901   0.99996
 This molecule is an asymmetric top.
 Rotational symmetry number  1.
 Rotational temperatures (Kelvin)      0.42087     0.18390     0.13133
 Rotational constants (GHZ):           8.76962     3.83192     2.73655
 Zero-point vibrational energy     266900.3 (Joules/Mol)
                                   63.79071 (Kcal/Mol)
 Warning -- explicit consideration of   8 degrees of freedom as
           vibrations may cause significant error
 Vibrational temperatures:    240.60   332.16   379.05   424.42   470.52
          (Kelvin)            597.42   683.05   854.83  1104.85  1180.52
                             1212.28  1468.42  1533.63  1586.35  1730.53
                             1769.60  1908.64  1995.91  2059.03  2135.31
                             2143.23  2368.75  2545.96  4337.80  4415.22
                             4485.40  4537.29  5036.25  5174.24  5490.11

 Zero-point correction=                           0.101657 (Hartree/Particle)
 Thermal correction to Energy=                    0.107986
 Thermal correction to Enthalpy=                  0.108930
 Thermal correction to Gibbs Free Energy=         0.072713
 Sum of electronic and zero-point Energies=           -248.396898
 Sum of electronic and thermal Energies=              -248.390569
 Sum of electronic and thermal Enthalpies=            -248.389625
 Sum of electronic and thermal Free Energies=         -248.425842

                     E (Thermal)             CV                S
                      KCal/Mol        Cal/Mol-Kelvin    Cal/Mol-Kelvin
 Total                   67.762             22.280             76.226
 Electronic               0.000              0.000              0.000
 Translational            0.889              2.981             38.782
 Rotational               0.889              2.981             25.661
 Vibrational             65.985             16.318             11.782
 Vibration     1          0.624              1.883              2.466
 Vibration     2          0.653              1.794              1.872
 Vibration     3          0.670              1.740              1.639
 Vibration     4          0.689              1.683              1.445
 Vibration     5          0.711              1.621              1.275
 Vibration     6          0.779              1.437              0.908
 Vibration     7          0.831              1.306              0.724
 Vibration     8          0.952              1.044              0.460

 Optimization completed.
    -- Stationary point found.
 Normal termination of Gaussian 09 at Tue Aug 30 09:28:37 2022.

 -----------------------------------------------------------------
 #P Geom=AllCheck Guess=TCheck SCRF=Check CCSD(T,E4T,FrzG4)/GTBas1
 -----------------------------------------------------------------

 Structure from the checkpoint file:  "G4.Frag_520.chk"
 --------
 Frag_520
 --------
 Charge =  0 Multiplicity = 1

 SCF Done:  E(RHF) =  -246.946149425     A.U. after   13 cycles
 E2 =    -0.7280240680D+00 EUMP2 =    -0.24767417349293D+03
 CCSD(T)
 CCSD(T)= -0.24774017245D+03
 SD=-247.7173231\CCSD(T)=-247.7401724\RMSD=3.083e-09\PG=C01 [X(C3H7N1O1
 Normal termination of Gaussian 09 at Tue Aug 30 09:29:35 2022.

 ---------------------------------------------------------
 #P Geom=AllCheck Guess=TCheck SCRF=Check MP4=FrzG4/GTBas2
 ---------------------------------------------------------

 Structure from the checkpoint file:  "G4.Frag_520.chk"
 --------
 Frag_520
 --------
 Charge =  0 Multiplicity = 1

 SCF Done:  E(RHF) =  -246.955764826     A.U. after   13 cycles
 E2 =    -0.7395390448D+00 EUMP2 =    -0.24769530387036D+03
 Normal termination of Gaussian 09 at Tue Aug 30 09:29:51 2022.

 ---------------------------------------------------------
 #P Geom=AllCheck Guess=TCheck SCRF=Check MP4=FrzG4/GTBas3
 ---------------------------------------------------------

 Structure from the checkpoint file:  "G4.Frag_520.chk"
 --------
 Frag_520
 --------
 Charge =  0 Multiplicity = 1

 SCF Done:  E(RHF) =  -246.983899836     A.U. after   11 cycles
 E2 =    -0.8957451550D+00 EUMP2 =    -0.24787964499100D+03
 Normal termination of Gaussian 09 at Tue Aug 30 09:31:16 2022.

 -----------------------------------------------------------
 #P Geom=AllCheck Guess=TCheck SCRF=Check MP2=Full/GTLargeXP
 -----------------------------------------------------------

 Structure from the checkpoint file:  "G4.Frag_520.chk"
 --------
 Frag_520
 --------
 Charge =  0 Multiplicity = 1

 SCF Done:  E(RHF) =  -247.050017259     A.U. after   12 cycles
 E2 =    -0.1175937102D+01 EUMP2 =    -0.24822595436112D+03
 Normal termination of Gaussian 09 at Tue Aug 30 09:32:03 2022.
 SCF Done:  E(RHF) =  -247.070247682     A.U. after    9 cycles
 Normal termination of Gaussian 09 at Tue Aug 30 09:33:07 2022.

                         Standard orientation:
 ---------------------------------------------------------------------
 Center     Atomic      Atomic             Coordinates (Angstroms)
 Number     Number       Type             X           Y           Z
 ---------------------------------------------------------------------
      1          6           0        0.604821    1.423139    0.008251
      2          6           0        0.434639   -0.067641    0.014853
      3          7           0        1.636265   -0.801588   -0.108742
      4          6           0       -0.761464   -0.665160    0.036156
      5          8           0       -1.939208    0.048480   -0.091846
      6          1           0        1.067583    1.759634   -0.926524
      7          1           0        1.264971    1.743695    0.825937
      8          1           0       -0.359056    1.918428    0.123953
      9          1           0        2.354276   -0.471531    0.527336
     10          1           0        1.505676   -1.797420    0.027211
     11          1           0       -0.855897   -1.751138    0.045088
     12          1           0       -2.585718   -0.320425    0.517399
 ---------------------------------------------------------------------

 SCF Done:  E(RHF) =  -247.074558328     A.U. after    8 cycles

 The electronic state is 1-A.
 Alpha  occ. eigenvalues --  -20.56728 -15.55576 -11.26012 -11.25835 -11.21626
 Alpha  occ. eigenvalues --   -1.37574  -1.20541  -1.01339  -0.92849  -0.75303
 Alpha  occ. eigenvalues --   -0.70747  -0.67992  -0.63976  -0.57675  -0.56746
 Alpha  occ. eigenvalues --   -0.53776  -0.53115  -0.48631  -0.46492  -0.30288
 Alpha virt. eigenvalues --    0.03640   0.04403   0.04938   0.06009   0.06929
 Alpha virt. eigenvalues --    0.07465   0.08024   0.09169   0.09743   0.10568
 Alpha virt. eigenvalues --    0.12841   0.13369   0.13830   0.14764   0.15504

 Mulliken charges:
               1
     1  C   -0.504121
     2  C    0.218147
     3  N   -0.709706
     4  C   -0.109953
     5  O   -0.555670
     6  H    0.187540
     7  H    0.156578
     8  H    0.204329
     9  H    0.299552
    10  H    0.294667
    11  H    0.146320
    12  H    0.372315
 Sum of Mulliken charges =  -0.00000

 Dipole moment (field-independent basis, Debye):
    X=              0.2669    Y=             -1.1575    Z=              2.0928  Tot=              2.4064
 Quadrupole moment (field-independent basis, Debye-Ang):
   XX=            -28.0071   YY=            -27.8461   ZZ=            -33.2347
   XY=              2.1418   XZ=             -0.1937   YZ=             -1.1406

 Normal termination of Gaussian 09 at Tue Aug 30 09:39:58 2022.
