 Gaussian 09, Revision E.01,
 Gaussian 09:  ES64L-G09RevE.01 30-Nov-2015

 -----
 #P G4
 -----

 --------
 Frag_976
 --------
 Symbolic Z-matrix:
 Charge =  0 Multiplicity = 1

 SCF Done:  E(RB3LYP) =  -305.485599959     A.U. after   12 cycles
 SCF Done:  E(RB3LYP) =  -305.490810895     A.U. after   11 cycles
 SCF Done:  E(RB3LYP) =  -305.491447284     A.U. after   10 cycles
 SCF Done:  E(RB3LYP) =  -305.492512165     A.U. after   11 cycles
 SCF Done:  E(RB3LYP) =  -305.493300145     A.U. after   11 cycles
 SCF Done:  E(RB3LYP) =  -305.493729109     A.U. after   10 cycles
 SCF Done:  E(RB3LYP) =  -305.493916845     A.U. after   10 cycles
 SCF Done:  E(RB3LYP) =  -305.494055297     A.U. after   10 cycles
 SCF Done:  E(RB3LYP) =  -305.494253834     A.U. after   10 cycles
 SCF Done:  E(RB3LYP) =  -305.495189581     A.U. after   13 cycles
 SCF Done:  E(RB3LYP) =  -305.498672600     A.U. after    9 cycles
 SCF Done:  E(RB3LYP) =  -305.498674474     A.U. after    8 cycles
 SCF Done:  E(RB3LYP) =  -305.498674600     A.U. after    6 cycles
 Optimization completed.
    -- Stationary point found.
 Normal termination of Gaussian 09 at Fri Aug 19 20:11:48 2022.

 ----------------------------------------------------------
 #P Geom=AllCheck Guess=TCheck SCRF=Check B3LYP/GTBas3 Freq
 ----------------------------------------------------------

 Structure from the checkpoint file:  "G4.Frag_976.chk"
 --------
 Frag_976
 --------
 Charge =  0 Multiplicity = 1

 SCF Done:  E(RB3LYP) =  -305.498674600     A.U. after    1 cycles

  Exact polarizability:  40.560   0.416  34.535  -1.220   0.234  30.289
 Approx polarizability:  52.015   1.553  48.628  -0.445   0.525  42.877

                      1                      2                      3
                      A                      A                      A
 Frequencies --    123.3495               237.2595               252.5691
 Red. masses --      2.9932                 1.1314                 1.2335
 Frc consts  --      0.0268                 0.0375                 0.0464
 IR Inten    --      9.9088                64.3567               110.5712

                      4                      5                      6
                      A                      A                      A
 Frequencies --    269.6276               357.6426               441.2428
 Red. masses --      2.9165                 1.1963                 3.1390
 Frc consts  --      0.1249                 0.0902                 0.3601
 IR Inten    --     30.2855               112.1930                14.8537

                      7                      8                      9
                      A                      A                      A
 Frequencies --    516.0438               585.1381               887.1810
 Red. masses --      3.0934                 4.7472                 2.3604
 Frc consts  --      0.4854                 0.9577                 1.0946
 IR Inten    --     21.8007                 2.5949                18.7981

                     10                     11                     12
                      A                      A                      A
 Frequencies --   1019.2492              1082.4881              1103.5430
 Red. masses --      2.2896                 5.6464                 2.8373
 Frc consts  --      1.4014                 3.8982                 2.0358
 IR Inten    --     33.9666               115.3997               120.7317

                     13                     14                     15
                      A                      A                      A
 Frequencies --   1129.4316              1194.3791              1243.9160
 Red. masses --      2.7410                 1.0597                 1.1624
 Frc consts  --      2.0601                 0.8907                 1.0597
 IR Inten    --     63.8434                79.1457                35.0806

                     16                     17                     18
                      A                      A                      A
 Frequencies --   1286.9422              1306.7942              1405.1036
 Red. masses --      1.1101                 1.2967                 1.2276
 Frc consts  --      1.0832                 1.3047                 1.4280
 IR Inten    --     37.4844                41.5333                20.9077

                     19                     20                     21
                      A                      A                      A
 Frequencies --   1423.4034              1506.6147              1511.6552
 Red. masses --      1.4091                 1.7770                 1.0865
 Frc consts  --      1.6821                 2.3765                 1.4629
 IR Inten    --     28.3672                51.5978                 3.5584

                     22                     23                     24
                      A                      A                      A
 Frequencies --   2922.5592              3006.4285              3055.7684
 Red. masses --      1.0816                 1.0549                 1.1086
 Frc consts  --      5.4431                 5.6177                 6.0993
 IR Inten    --     87.3223                40.1300                50.7122

                     25                     26                     27
                      A                      A                      A
 Frequencies --   3770.7196              3820.9330              3850.4486
 Red. masses --      1.0646                 1.0657                 1.0668
 Frc consts  --      8.9187                 9.1669                 9.3184
 IR Inten    --     47.1070                34.8945                38.0931

 - Thermochemistry -
 -------------------
 Temperature   298.150 Kelvin.  Pressure   1.00000 Atm.
 Atom     1 has atomic number  8 and mass  15.99491

 Molecular mass:    78.03169 amu.
 Principal axes and moments of inertia in atomic units:
                           1         2         3
     Eigenvalues --   197.82567 469.29536 619.19777
           X            0.99960  -0.01809  -0.02179
           Y            0.01835   0.99976   0.01187
           Z            0.02157  -0.01226   0.99969
 This molecule is an asymmetric top.
 Rotational symmetry number  1.
 Rotational temperatures (Kelvin)      0.43783     0.18456     0.13988
 Rotational constants (GHZ):           9.12289     3.84564     2.91464
 Zero-point vibrational energy     235128.6 (Joules/Mol)
                                   56.19708 (Kcal/Mol)
 Warning -- explicit consideration of   8 degrees of freedom as
           vibrations may cause significant error
 Vibrational temperatures:    177.47   341.36   363.39   387.93   514.57
          (Kelvin)            634.85   742.47   841.88  1276.45  1466.47
                             1557.46  1587.75  1625.00  1718.44  1789.72
                             1851.62  1880.18  2021.63  2047.96  2167.68
                             2174.93  4204.91  4325.57  4396.56  5425.22
                             5497.46  5539.93

 Zero-point correction=                           0.089556 (Hartree/Particle)
 Thermal correction to Energy=                    0.095773
 Thermal correction to Enthalpy=                  0.096717
 Thermal correction to Gibbs Free Energy=         0.060430
 Sum of electronic and zero-point Energies=           -305.409119
 Sum of electronic and thermal Energies=              -305.402902
 Sum of electronic and thermal Enthalpies=            -305.401957
 Sum of electronic and thermal Free Energies=         -305.438244

                     E (Thermal)             CV                S
                      KCal/Mol        Cal/Mol-Kelvin    Cal/Mol-Kelvin
 Total                   60.099             21.116             76.372
 Electronic               0.000              0.000              0.000
 Translational            0.889              2.981             38.979
 Rotational               0.889              2.981             25.556
 Vibrational             58.321             15.154             11.838
 Vibration     1          0.610              1.930              3.047
 Vibration     2          0.656              1.784              1.823
 Vibration     3          0.664              1.758              1.713
 Vibration     4          0.674              1.729              1.599
 Vibration     5          0.733              1.560              1.132
 Vibration     6          0.801              1.380              0.823
 Vibration     7          0.871              1.214              0.619
 Vibration     8          0.942              1.064              0.476

 Optimization completed.
    -- Stationary point found.
 Normal termination of Gaussian 09 at Fri Aug 19 20:13:01 2022.

 -----------------------------------------------------------------
 #P Geom=AllCheck Guess=TCheck SCRF=Check CCSD(T,E4T,FrzG4)/GTBas1
 -----------------------------------------------------------------

 Structure from the checkpoint file:  "G4.Frag_976.chk"
 --------
 Frag_976
 --------
 Charge =  0 Multiplicity = 1

 SCF Done:  E(RHF) =  -303.786590829     A.U. after   11 cycles
 E2 =    -0.7952811232D+00 EUMP2 =    -0.30458187195193D+03
 CCSD(T)
 CCSD(T)= -0.30463574589D+03
 MP4SDQ=-304.6166647\CCSD=-304.6166567\CCSD(T)=-304.6357459\RMSD=6.857e
 Normal termination of Gaussian 09 at Fri Aug 19 20:14:50 2022.

 ---------------------------------------------------------
 #P Geom=AllCheck Guess=TCheck SCRF=Check MP4=FrzG4/GTBas2
 ---------------------------------------------------------

 Structure from the checkpoint file:  "G4.Frag_976.chk"
 --------
 Frag_976
 --------
 Charge =  0 Multiplicity = 1

 SCF Done:  E(RHF) =  -303.799942067     A.U. after   11 cycles
 E2 =    -0.8117569570D+00 EUMP2 =    -0.30461169902426D+03
 Normal termination of Gaussian 09 at Fri Aug 19 20:17:11 2022.

 ---------------------------------------------------------
 #P Geom=AllCheck Guess=TCheck SCRF=Check MP4=FrzG4/GTBas3
 ---------------------------------------------------------

 Structure from the checkpoint file:  "G4.Frag_976.chk"
 --------
 Frag_976
 --------
 Charge =  0 Multiplicity = 1

 SCF Done:  E(RHF) =  -303.830805269     A.U. after   11 cycles
 E2 =    -0.9930151030D+00 EUMP2 =    -0.30482382037174D+03
 Normal termination of Gaussian 09 at Fri Aug 19 20:57:52 2022.

 -----------------------------------------------------------
 #P Geom=AllCheck Guess=TCheck SCRF=Check MP2=Full/GTLargeXP
 -----------------------------------------------------------

 Structure from the checkpoint file:  "G4.Frag_976.chk"
 --------
 Frag_976
 --------
 Charge =  0 Multiplicity = 1

 SCF Done:  E(RHF) =  -303.922314206     A.U. after   11 cycles
 E2 =    -0.1294290985D+01 EUMP2 =    -0.30521660519084D+03
 Normal termination of Gaussian 09 at Fri Aug 19 21:00:18 2022.
 SCF Done:  E(RHF) =  -303.947955511     A.U. after    8 cycles
 Normal termination of Gaussian 09 at Fri Aug 19 21:03:00 2022.

                         Standard orientation:
 ---------------------------------------------------------------------
 Center     Atomic      Atomic             Coordinates (Angstroms)
 Number     Number       Type             X           Y           Z
 ---------------------------------------------------------------------
      1          8           0        1.838012    0.088515    0.151922
      2          6           0        0.721663   -0.730211   -0.180488
      3          6           0       -0.509220    0.008861    0.334337
      4          8           0       -0.554976    1.317216   -0.186168
      5          8           0       -1.626339   -0.701778   -0.101630
      6          1           0        2.604239   -0.222824   -0.336624
      7          1           0        0.610958   -0.853135   -1.266014
      8          1           0        0.787064   -1.722099    0.286572
      9          1           0       -0.473804    0.052728    1.439369
     10          1           0        0.350073    1.652932   -0.136161
     11          1           0       -2.406765   -0.211130    0.176779
 ---------------------------------------------------------------------

 SCF Done:  E(RHF) =  -303.953653103     A.U. after    8 cycles

 The electronic state is 1-A.
 Alpha  occ. eigenvalues --  -20.57687 -20.56651 -20.55571 -11.33552 -11.28482
 Alpha  occ. eigenvalues --   -1.41774  -1.37721  -1.33328  -0.99408  -0.83637
 Alpha  occ. eigenvalues --   -0.74316  -0.71733  -0.69550  -0.64967  -0.60519
 Alpha  occ. eigenvalues --   -0.56740  -0.55186  -0.52524  -0.49204  -0.46989
 Alpha  occ. eigenvalues --   -0.44008
 Alpha virt. eigenvalues --    0.03403   0.04573   0.05575   0.05709   0.07421
 Alpha virt. eigenvalues --    0.07622   0.08423   0.11397   0.12407   0.13307
 Alpha virt. eigenvalues --    0.14517   0.15284   0.16155   0.16771   0.17341

 Mulliken charges:
               1
     1  O   -0.589550
     2  C   -0.127449
     3  C    0.284293
     4  O   -0.604387
     5  O   -0.575553
     6  H    0.379325
     7  H    0.171465
     8  H    0.161946
     9  H    0.129846
    10  H    0.392380
    11  H    0.377684
 Sum of Mulliken charges =   0.00000

 Dipole moment (field-independent basis, Debye):
    X=              1.5743    Y=             -0.8023    Z=              0.2579  Tot=              1.7856
 Quadrupole moment (field-independent basis, Debye-Ang):
   XX=            -24.3550   YY=            -32.0584   ZZ=            -30.3746
   XY=             -1.8290   XZ=             -5.1078   YZ=              0.4299

 Normal termination of Gaussian 09 at Fri Aug 19 22:23:28 2022.
