 Gaussian 09, Revision E.01,
 Gaussian 09:  ES64L-G09RevE.01 30-Nov-2015

 -----
 #P G4
 -----

 --------
 Frag_936
 --------
 Symbolic Z-matrix:
 Charge =  0 Multiplicity = 1

 SCF Done:  E(RB3LYP) =  -244.617698884     A.U. after   14 cycles
 SCF Done:  E(RB3LYP) =  -244.625927099     A.U. after   13 cycles
 SCF Done:  E(RB3LYP) =  -244.627676081     A.U. after   13 cycles
 SCF Done:  E(RB3LYP) =  -244.630424215     A.U. after   15 cycles
 SCF Done:  E(RB3LYP) =  -244.624874126     A.U. after   15 cycles
 SCF Done:  E(RB3LYP) =  -244.632707142     A.U. after   12 cycles
 SCF Done:  E(RB3LYP) =  -244.635677770     A.U. after   15 cycles
 SCF Done:  E(RB3LYP) =  -244.637088141     A.U. after   13 cycles
 SCF Done:  E(RB3LYP) =  -244.640934299     A.U. after   13 cycles
 SCF Done:  E(RB3LYP) =  -244.641640444     A.U. after   13 cycles
 SCF Done:  E(RB3LYP) =  -244.642305958     A.U. after   11 cycles
 SCF Done:  E(RB3LYP) =  -244.642311091     A.U. after    9 cycles
 SCF Done:  E(RB3LYP) =  -244.642311702     A.U. after    8 cycles
 Optimization completed.
    -- Stationary point found.
 Normal termination of Gaussian 09 at Fri Aug 26 06:43:32 2022.

 ----------------------------------------------------------
 #P Geom=AllCheck Guess=TCheck SCRF=Check B3LYP/GTBas3 Freq
 ----------------------------------------------------------

 Structure from the checkpoint file:  "G4.Frag_936.chk"
 --------
 Frag_936
 --------
 Charge =  0 Multiplicity = 1

 SCF Done:  E(RB3LYP) =  -244.642311702     A.U. after    1 cycles

  Exact polarizability:  50.237   1.144  43.476  -2.889  -1.642  36.628
 Approx polarizability:  71.593   2.785  62.774  -7.478  -4.716  56.360

                      1                      2                      3
                      A                      A                      A
 Frequencies --    121.0566               221.1331               255.5470
 Red. masses --      2.2556                 1.1958                 1.1876
 Frc consts  --      0.0195                 0.0345                 0.0457
 IR Inten    --      0.1238                 3.2386                 8.6131

                      4                      5                      6
                      A                      A                      A
 Frequencies --    365.1628               398.5485               472.1184
 Red. masses --      2.8075                 2.8259                 2.5481
 Frc consts  --      0.2206                 0.2645                 0.3346
 IR Inten    --     10.2507                 5.7669                14.1030

                      7                      8                      9
                      A                      A                      A
 Frequencies --    641.6397               731.6738               753.0706
 Red. masses --      2.0088                 4.2554                 2.2562
 Frc consts  --      0.4873                 1.3422                 0.7539
 IR Inten    --     77.2346                 3.7125                39.3337

                     10                     11                     12
                      A                      A                      A
 Frequencies --    916.2562               970.1149              1033.6753
 Red. masses --      2.0993                 1.1745                 1.3684
 Frc consts  --      1.0384                 0.6513                 0.8614
 IR Inten    --      6.8082                17.9719                 7.9568

                     13                     14                     15
                      A                      A                      A
 Frequencies --   1108.9776              1175.7906              1259.7277
 Red. masses --      1.6113                 2.0143                 1.6788
 Frc consts  --      1.1676                 1.6407                 1.5696
 IR Inten    --     25.4347                20.5414                 5.2034

                     16                     17                     18
                      A                      A                      A
 Frequencies --   1306.1765              1391.7802              1408.2439
 Red. masses --      1.3131                 1.2462                 1.3603
 Frc consts  --      1.3199                 1.4223                 1.5894
 IR Inten    --      2.0028                 3.9187                11.0089

                     19                     20                     21
                      A                      A                      A
 Frequencies --   1489.5638              1495.3334              1508.6757
 Red. masses --      1.0489                 1.0470                 1.2555
 Frc consts  --      1.3712                 1.3794                 1.6837
 IR Inten    --      3.6781                 3.1689               110.9866

                     22                     23                     24
                      A                      A                      A
 Frequencies --   1653.7775              1693.7782              3002.7126
 Red. masses --      1.1088                 9.2000                 1.0655
 Frc consts  --      1.7867                15.5507                 5.6604
 IR Inten    --     27.7081                12.7163                32.1899

                     25                     26                     27
                      A                      A                      A
 Frequencies --   3035.4528              3042.6016              3107.2422
 Red. masses --      1.0437                 1.0777                 1.1001
 Frc consts  --      5.6661                 5.8783                 6.2578
 IR Inten    --      8.8282                24.5770                25.5362

                     28                     29                     30
                      A                      A                      A
 Frequencies --   3133.9062              3560.9232              3651.2374
 Red. masses --      1.1010                 1.0489                 1.0962
 Frc consts  --      6.3709                 7.8364                 8.6100
 IR Inten    --     11.8951                 7.0199                13.4415

 - Thermochemistry -
 -------------------
 Temperature   298.150 Kelvin.  Pressure   1.00000 Atm.
 Atom     1 has atomic number  6 and mass  12.00000

 Molecular mass:    73.06400 amu.
 Principal axes and moments of inertia in atomic units:
                           1         2         3
     Eigenvalues --   231.79769 403.57206 560.65065
           X            0.99749   0.07043   0.00716
           Y           -0.07051   0.99745   0.01140
           Z           -0.00634  -0.01187   0.99991
 This molecule is an asymmetric top.
 Rotational symmetry number  1.
 Rotational temperatures (Kelvin)      0.37366     0.21462     0.15449
 Rotational constants (GHZ):           7.78585     4.47192     3.21901
 Zero-point vibrational energy     268596.9 (Joules/Mol)
                                   64.19620 (Kcal/Mol)
 Warning -- explicit consideration of   6 degrees of freedom as
           vibrations may cause significant error
 Vibrational temperatures:    174.17   318.16   367.67   525.39   573.42
          (Kelvin)            679.27   923.18  1052.71  1083.50  1318.29
                             1395.78  1487.23  1595.57  1691.70  1812.46
                             1879.29  2002.46  2026.15  2143.15  2151.45
                             2170.65  2379.41  2436.97  4320.23  4367.33
                             4377.62  4470.62  4508.99  5123.37  5253.31

 Zero-point correction=                           0.102303 (Hartree/Particle)
 Thermal correction to Energy=                    0.108297
 Thermal correction to Enthalpy=                  0.109241
 Thermal correction to Gibbs Free Energy=         0.073492
 Sum of electronic and zero-point Energies=           -244.540009
 Sum of electronic and thermal Energies=              -244.534015
 Sum of electronic and thermal Enthalpies=            -244.533071
 Sum of electronic and thermal Free Energies=         -244.568820

                     E (Thermal)             CV                S
                      KCal/Mol        Cal/Mol-Kelvin    Cal/Mol-Kelvin
 Total                   67.957             20.789             75.241
 Electronic               0.000              0.000              0.000
 Translational            0.889              2.981             38.783
 Rotational               0.889              2.981             25.465
 Vibrational             66.180             14.828             10.994
 Vibration     1          0.609              1.932              3.083
 Vibration     2          0.648              1.809              1.950
 Vibration     3          0.666              1.753              1.692
 Vibration     4          0.738              1.544              1.100
 Vibration     5          0.765              1.473              0.968
 Vibration     6          0.829              1.312              0.732

 Optimization completed.
    -- Stationary point found.
 Normal termination of Gaussian 09 at Fri Aug 26 06:43:53 2022.

 -----------------------------------------------------------------
 #P Geom=AllCheck Guess=TCheck SCRF=Check CCSD(T,E4T,FrzG4)/GTBas1
 -----------------------------------------------------------------

 Structure from the checkpoint file:  "G4.Frag_936.chk"
 --------
 Frag_936
 --------
 Charge =  0 Multiplicity = 1

 SCF Done:  E(RHF) =  -243.087257910     A.U. after   14 cycles
 E2 =    -0.7520735602D+00 EUMP2 =    -0.24383933147067D+03
 CCSD(T)
 CCSD(T)= -0.24390923583D+03
 -243.8831604\CCSD(T)=-243.9092358\RMSD=6.757e-09\PG=C01 [X(C2H7N3)]\\@
 Normal termination of Gaussian 09 at Fri Aug 26 06:44:53 2022.

 ---------------------------------------------------------
 #P Geom=AllCheck Guess=TCheck SCRF=Check MP4=FrzG4/GTBas2
 ---------------------------------------------------------

 Structure from the checkpoint file:  "G4.Frag_936.chk"
 --------
 Frag_936
 --------
 Charge =  0 Multiplicity = 1

 SCF Done:  E(RHF) =  -243.095412487     A.U. after   13 cycles
 E2 =    -0.7629772280D+00 EUMP2 =    -0.24385838971504D+03
 Normal termination of Gaussian 09 at Fri Aug 26 06:45:09 2022.

 ---------------------------------------------------------
 #P Geom=AllCheck Guess=TCheck SCRF=Check MP4=FrzG4/GTBas3
 ---------------------------------------------------------

 Structure from the checkpoint file:  "G4.Frag_936.chk"
 --------
 Frag_936
 --------
 Charge =  0 Multiplicity = 1

 SCF Done:  E(RHF) =  -243.120122893     A.U. after   12 cycles
 E2 =    -0.9125280879D+00 EUMP2 =    -0.24403265098111D+03
 Normal termination of Gaussian 09 at Fri Aug 26 06:46:35 2022.

 -----------------------------------------------------------
 #P Geom=AllCheck Guess=TCheck SCRF=Check MP2=Full/GTLargeXP
 -----------------------------------------------------------

 Structure from the checkpoint file:  "G4.Frag_936.chk"
 --------
 Frag_936
 --------
 Charge =  0 Multiplicity = 1

 SCF Done:  E(RHF) =  -243.181639227     A.U. after   13 cycles
 E2 =    -0.1189935146D+01 EUMP2 =    -0.24437157437280D+03
 Normal termination of Gaussian 09 at Fri Aug 26 06:47:31 2022.
 SCF Done:  E(RHF) =  -243.200650480     A.U. after    9 cycles
 Normal termination of Gaussian 09 at Fri Aug 26 06:48:33 2022.

                         Standard orientation:
 ---------------------------------------------------------------------
 Center     Atomic      Atomic             Coordinates (Angstroms)
 Number     Number       Type             X           Y           Z
 ---------------------------------------------------------------------
      1          6           0        1.511965    0.762900    0.243597
      2          6           0        0.401880   -0.042693   -0.426532
      3          7           0        0.275836   -1.389530    0.075850
      4          7           0       -0.876270    0.774347   -0.260520
      5          7           0       -1.839443    0.226429    0.272798
      6          1           0        1.476591    1.803013   -0.087757
      7          1           0        1.379436    0.753707    1.331760
      8          1           0        2.494977    0.345753    0.007194
      9          1           0        0.553164   -0.046974   -1.512472
     10          1           0        0.890803   -1.587887    0.852878
     11          1           0        0.381644   -2.102844   -0.630454
     12          1           0       -1.580548   -0.764733    0.519556
 ---------------------------------------------------------------------

 SCF Done:  E(RHF) =  -243.204593221     A.U. after    8 cycles

 The electronic state is 1-A.
 Alpha  occ. eigenvalues --  -15.61055 -15.59532 -15.56699 -11.30020 -11.23200
 Alpha  occ. eigenvalues --   -1.34634  -1.20665  -1.02789  -0.90605  -0.80734
 Alpha  occ. eigenvalues --   -0.71177  -0.68651  -0.64639  -0.58192  -0.55388
 Alpha  occ. eigenvalues --   -0.54150  -0.52306  -0.46747  -0.43053  -0.37221
 Alpha virt. eigenvalues --    0.03196   0.04006   0.04656   0.06077   0.07279
 Alpha virt. eigenvalues --    0.07719   0.08045   0.08955   0.09971   0.11829
 Alpha virt. eigenvalues --    0.12284   0.12558   0.13748   0.14112   0.14946

 Mulliken charges:
               1
     1  C   -0.546418
     2  C    0.133932
     3  N   -0.745046
     4  N   -0.115153
     5  N   -0.367716
     6  H    0.203850
     7  H    0.177619
     8  H    0.173748
     9  H    0.163113
    10  H    0.309933
    11  H    0.312502
    12  H    0.299636
 Sum of Mulliken charges =  -0.00000

 Dipole moment (field-independent basis, Debye):
    X=              3.6474    Y=             -2.7029    Z=             -0.2471  Tot=              4.5465
 Quadrupole moment (field-independent basis, Debye-Ang):
   XX=            -36.2071   YY=            -30.9411   ZZ=            -29.7191
   XY=              2.1125   XZ=              0.5181   YZ=              0.8568

 Normal termination of Gaussian 09 at Fri Aug 26 06:54:54 2022.
