 Gaussian 09, Revision E.01,
 Gaussian 09:  ES64L-G09RevE.01 30-Nov-2015

 -----
 #P G4
 -----

 --------
 Frag_665
 --------
 Symbolic Z-matrix:
 Charge =  0 Multiplicity = 1

 SCF Done:  E(RB3LYP) =  -339.789373697     A.U. after   14 cycles
 SCF Done:  E(RB3LYP) =  -339.804614144     A.U. after   13 cycles
 SCF Done:  E(RB3LYP) =  -339.807456443     A.U. after   13 cycles
 SCF Done:  E(RB3LYP) =  -339.808193905     A.U. after   12 cycles
 SCF Done:  E(RB3LYP) =  -339.809799231     A.U. after   12 cycles
 SCF Done:  E(RB3LYP) =  -339.810097413     A.U. after   11 cycles
 SCF Done:  E(RB3LYP) =  -339.810271869     A.U. after   11 cycles
 SCF Done:  E(RB3LYP) =  -339.810307741     A.U. after   10 cycles
 SCF Done:  E(RB3LYP) =  -339.810330334     A.U. after    9 cycles
 SCF Done:  E(RB3LYP) =  -339.810334192     A.U. after    8 cycles
 SCF Done:  E(RB3LYP) =  -339.810341796     A.U. after    9 cycles
 SCF Done:  E(RB3LYP) =  -339.810341945     A.U. after    8 cycles
 SCF Done:  E(RB3LYP) =  -339.810342014     A.U. after    7 cycles
 Optimization completed.
    -- Stationary point found.
 Normal termination of Gaussian 09 at Wed Aug 24 18:49:07 2022.

 ----------------------------------------------------------
 #P Geom=AllCheck Guess=TCheck SCRF=Check B3LYP/GTBas3 Freq
 ----------------------------------------------------------

 Structure from the checkpoint file:  "G4.Frag_665.chk"
 --------
 Frag_665
 --------
 Charge =  0 Multiplicity = 1

 SCF Done:  E(RB3LYP) =  -339.810342014     A.U. after    1 cycles

  Exact polarizability:  46.723   0.743  48.195   0.717   3.277  33.923
 Approx polarizability:  62.165  -3.136  76.270  -0.425   7.606  50.322

                      1                      2                      3
                      A                      A                      A
 Frequencies --     36.7209               229.0610               257.2154
 Red. masses --      6.3092                 1.2453                 2.4194
 Frc consts  --      0.0050                 0.0385                 0.0943
 IR Inten    --      5.3701                41.3082                19.9995

                      4                      5                      6
                      A                      A                      A
 Frequencies --    315.0412               348.4991               363.0860
 Red. masses --      1.8656                 1.9119                 1.3467
 Frc consts  --      0.1091                 0.1368                 0.1046
 IR Inten    --     67.1944               157.5083                21.8449

                      7                      8                      9
                      A                      A                      A
 Frequencies --    471.4097               527.0321               556.3912
 Red. masses --      2.5740                 2.3465                 4.1464
 Frc consts  --      0.3370                 0.3840                 0.7563
 IR Inten    --     78.8066                 3.9556                 4.7823

                     10                     11                     12
                      A                      A                      A
 Frequencies --    651.3156               743.4472               850.0496
 Red. masses --      1.2177                 3.8006                 2.6555
 Frc consts  --      0.3043                 1.2377                 1.1305
 IR Inten    --      5.5677                 7.9355                31.4690

                     13                     14                     15
                      A                      A                      A
 Frequencies --    920.3079              1001.7627              1093.2701
 Red. masses --      1.7747                 2.9990                 1.8630
 Frc consts  --      0.8856                 1.7732                 1.3119
 IR Inten    --    142.5897                62.0016                 5.6620

                     16                     17                     18
                      A                      A                      A
 Frequencies --   1138.1694              1214.8263              1270.9371
 Red. masses --      2.6177                 1.3677                 1.3254
 Frc consts  --      1.9980                 1.1892                 1.2613
 IR Inten    --     49.8829                81.2587                70.5075

                     19                     20                     21
                      A                      A                      A
 Frequencies --   1349.1941              1412.0186              1429.4844
 Red. masses --      1.7876                 1.4428                 1.7263
 Frc consts  --      1.9172                 1.6949                 2.0784
 IR Inten    --     57.9265                15.8357                 7.0184

                     22                     23                     24
                      A                      A                      A
 Frequencies --   1594.2672              1654.4661              1803.5267
 Red. masses --      1.3007                 1.1050                10.0563
 Frc consts  --      1.9479                 1.7821                19.2723
 IR Inten    --    133.3931                29.4062               280.9313

                     25                     26                     27
                      A                      A                      A
 Frequencies --   3010.1036              3481.4885              3571.0826
 Red. masses --      1.0840                 1.0512                 1.0902
 Frc consts  --      5.7867                 7.5068                 8.1913
 IR Inten    --     39.8411                 1.6248                 6.3589

                     28                     29                     30
                      A                      A                      A
 Frequencies --   3596.8187              3737.3775              3798.7680
 Red. masses --      1.0432                 1.1054                 1.0653
 Frc consts  --      7.9517                 9.0974                 9.0576
 IR Inten    --     38.3043                64.8010                33.2230

 - Thermochemistry -
 -------------------
 Temperature   298.150 Kelvin.  Pressure   1.00000 Atm.
 Atom     1 has atomic number  7 and mass  14.00307

 Molecular mass:    90.04293 amu.
 Principal axes and moments of inertia in atomic units:
                           1         2         3
     Eigenvalues --   350.37171 551.11595 789.68300
           X            0.99569   0.09232   0.00910
           Y           -0.09237   0.99571   0.00467
           Z           -0.00863  -0.00549   0.99995
 This molecule is an asymmetric top.
 Rotational symmetry number  1.
 Rotational temperatures (Kelvin)      0.24721     0.15716     0.10968
 Rotational constants (GHZ):           5.15093     3.27470     2.28540
 Zero-point vibrational energy     253770.6 (Joules/Mol)
                                   60.65264 (Kcal/Mol)
 Warning -- explicit consideration of   9 degrees of freedom as
           vibrations may cause significant error
 Vibrational temperatures:     52.83   329.57   370.08   453.27   501.41
          (Kelvin)            522.40   678.25   758.28   800.52   937.10
                             1069.65  1223.03  1324.12  1441.31  1572.97
                             1637.57  1747.86  1828.59  1941.19  2031.58
                             2056.71  2293.79  2380.40  2594.87  4330.86
                             5009.08  5137.98  5175.01  5377.25  5465.57

 Zero-point correction=                           0.096656 (Hartree/Particle)
 Thermal correction to Energy=                    0.103580
 Thermal correction to Enthalpy=                  0.104525
 Thermal correction to Gibbs Free Energy=         0.065715
 Sum of electronic and zero-point Energies=           -339.713686
 Sum of electronic and thermal Energies=              -339.706762
 Sum of electronic and thermal Enthalpies=            -339.705817
 Sum of electronic and thermal Free Energies=         -339.744627

                     E (Thermal)             CV                S
                      KCal/Mol        Cal/Mol-Kelvin    Cal/Mol-Kelvin
 Total                   64.998             24.323             81.681
 Electronic               0.000              0.000              0.000
 Translational            0.889              2.981             39.405
 Rotational               0.889              2.981             26.525
 Vibrational             63.220             18.362             15.751
 Vibration     1          0.594              1.982              5.429
 Vibration     2          0.652              1.797              1.886
 Vibration     3          0.667              1.751              1.681
 Vibration     4          0.702              1.645              1.336
 Vibration     5          0.726              1.578              1.173
 Vibration     6          0.737              1.548              1.109
 Vibration     7          0.828              1.313              0.734
 Vibration     8          0.882              1.190              0.594
 Vibration     9          0.912              1.126              0.531

 Optimization completed.
    -- Stationary point found.
 Normal termination of Gaussian 09 at Wed Aug 24 18:50:59 2022.

 -----------------------------------------------------------------
 #P Geom=AllCheck Guess=TCheck SCRF=Check CCSD(T,E4T,FrzG4)/GTBas1
 -----------------------------------------------------------------

 Structure from the checkpoint file:  "G4.Frag_665.chk"
 --------
 Frag_665
 --------
 Charge =  0 Multiplicity = 1

 SCF Done:  E(RHF) =  -337.854942075     A.U. after   14 cycles
 E2 =    -0.9353660524D+00 EUMP2 =    -0.33879030812773D+03
 CCSD(T)
 CCSD(T)= -0.33885254022D+03
 =-338.8247594\CCSD(T)=-338.8525402\RMSD=2.681e-09\PG=C01 [X(C2H6N2O2)]
 Normal termination of Gaussian 09 at Wed Aug 24 18:55:51 2022.

 ---------------------------------------------------------
 #P Geom=AllCheck Guess=TCheck SCRF=Check MP4=FrzG4/GTBas2
 ---------------------------------------------------------

 Structure from the checkpoint file:  "G4.Frag_665.chk"
 --------
 Frag_665
 --------
 Charge =  0 Multiplicity = 1

 SCF Done:  E(RHF) =  -337.869611339     A.U. after   13 cycles
 E2 =    -0.9528375296D+00 EUMP2 =    -0.33882244886871D+03
 Normal termination of Gaussian 09 at Wed Aug 24 19:00:50 2022.

 ---------------------------------------------------------
 #P Geom=AllCheck Guess=TCheck SCRF=Check MP4=FrzG4/GTBas3
 ---------------------------------------------------------

 Structure from the checkpoint file:  "G4.Frag_665.chk"
 --------
 Frag_665
 --------
 Charge =  0 Multiplicity = 1

 SCF Done:  E(RHF) =  -337.900814094     A.U. after   12 cycles
 E2 =    -0.1144773206D+01 EUMP2 =    -0.33904558729957D+03
 Normal termination of Gaussian 09 at Wed Aug 24 20:56:59 2022.

 -----------------------------------------------------------
 #P Geom=AllCheck Guess=TCheck SCRF=Check MP2=Full/GTLargeXP
 -----------------------------------------------------------

 Structure from the checkpoint file:  "G4.Frag_665.chk"
 --------
 Frag_665
 --------
 Charge =  0 Multiplicity = 1

 SCF Done:  E(RHF) =  -337.998138671     A.U. after   12 cycles
 E2 =    -0.1493819521D+01 EUMP2 =    -0.33949195819235D+03
 Normal termination of Gaussian 09 at Wed Aug 24 21:01:41 2022.
 SCF Done:  E(RHF) =  -338.024866813     A.U. after    9 cycles
 Normal termination of Gaussian 09 at Wed Aug 24 21:06:27 2022.

                         Standard orientation:
 ---------------------------------------------------------------------
 Center     Atomic      Atomic             Coordinates (Angstroms)
 Number     Number       Type             X           Y           Z
 ---------------------------------------------------------------------
      1          7           0        1.303998    1.038402    0.411452
      2          6           0        0.825057   -0.117877   -0.108911
      3          8           0        1.487268   -1.120222   -0.303828
      4          6           0       -0.690110   -0.128937   -0.389603
      5          7           0       -1.423937   -1.003909    0.513458
      6          8           0       -1.197967    1.185641   -0.289188
      7          1           0        2.291245    1.121366    0.588807
      8          1           0        0.704794    1.845352    0.456162
      9          1           0       -0.815569   -0.533074   -1.404212
     10          1           0       -1.122076   -0.838657    1.471352
     11          1           0       -1.195072   -1.970493    0.300378
     12          1           0       -2.147843    1.091587   -0.151652
 ---------------------------------------------------------------------

 SCF Done:  E(RHF) =  -338.030639299     A.U. after    8 cycles

 The electronic state is 1-A.
 Alpha  occ. eigenvalues --  -20.57957 -20.52138 -15.58507 -15.56656 -11.35276
 Alpha  occ. eigenvalues --  -11.33266  -1.40566  -1.37873  -1.21492  -1.19222
 Alpha  occ. eigenvalues --   -0.94381  -0.80126  -0.75351  -0.71188  -0.69273
 Alpha  occ. eigenvalues --   -0.67308  -0.61674  -0.60664  -0.56389  -0.55644
 Alpha  occ. eigenvalues --   -0.48704  -0.46041  -0.41793  -0.40963
 Alpha virt. eigenvalues --    0.03796   0.04358   0.05037   0.05385   0.07294
 Alpha virt. eigenvalues --    0.07551   0.08024   0.09225   0.09930   0.11800
 Alpha virt. eigenvalues --    0.11999   0.12780   0.13540   0.14202   0.15494

 Mulliken charges:
               1
     1  N   -0.729415
     2  C    0.543681
     3  O   -0.623766
     4  C    0.208351
     5  N   -0.716748
     6  O   -0.618182
     7  H    0.361242
     8  H    0.374566
     9  H    0.188606
    10  H    0.296307
    11  H    0.315297
    12  H    0.400060
 Sum of Mulliken charges =  -0.00000

 Dipole moment (field-independent basis, Debye):
    X=             -1.3959    Y=              1.9808    Z=              1.1592  Tot=              2.6863
 Quadrupole moment (field-independent basis, Debye-Ang):
   XX=            -36.3538   YY=            -35.6742   ZZ=            -34.4774
   XY=              5.8458   XZ=              2.3706   YZ=              0.4473

 Normal termination of Gaussian 09 at Wed Aug 24 23:18:06 2022.
