 Gaussian 09, Revision E.01,
 Gaussian 09:  ES64L-G09RevE.01 30-Nov-2015

 ----------------
 #P G4 OPT=calcfc
 ----------------

 --------
 Frag_298
 --------
 Symbolic Z-matrix:
 Charge =  0 Multiplicity = 1

 SCF Done:  E(RB3LYP) =  -253.136248884     A.U. after   12 cycles
 SCF Done:  E(RB3LYP) =  -253.140478499     A.U. after   10 cycles
 SCF Done:  E(RB3LYP) =  -253.140588062     A.U. after   10 cycles
 SCF Done:  E(RB3LYP) =  -253.140590004     A.U. after    7 cycles
 SCF Done:  E(RB3LYP) =  -253.140589921     A.U. after    6 cycles
 Optimization completed.
    -- Stationary point found.
 Normal termination of Gaussian 09 at Wed Sep  8 12:44:05 2021.

 ----------------------------------------------------------
 #P Geom=AllCheck Guess=TCheck SCRF=Check B3LYP/GTBas3 Freq
 ----------------------------------------------------------

 Structure from the checkpoint file:  "/public/home/users/caep010/.cache/gau_scr/Gau-156990.chk"
 --------
 Frag_298
 --------
 Charge =  0 Multiplicity = 1

 SCF Done:  E(RB3LYP) =  -253.140589921     A.U. after    1 cycles

  Exact polarizability:  67.846  -0.707  61.670  -0.614  -0.431  60.498
 Approx polarizability:  86.506  -1.986  86.873  -1.408  -0.747  88.056

                      1                      2                      3
                      A                      A                      A
 Frequencies --    110.3284               207.9611               235.8882
 Red. masses --      1.8086                 1.0549                 1.4821
 Frc consts  --      0.0130                 0.0269                 0.0486
 IR Inten    --      0.5356                 1.4681                 4.1817

                      4                      5                      6
                      A                      A                      A
 Frequencies --    256.8451               262.5806               284.9879
 Red. masses --      1.2969                 1.2295                 1.0817
 Frc consts  --      0.0504                 0.0499                 0.0518
 IR Inten    --      3.6943                20.4598                 7.0425

                      7                      8                      9
                      A                      A                      A
 Frequencies --    338.4703               367.0150               412.5628
 Red. masses --      2.1893                 2.4900                 2.1031
 Frc consts  --      0.1478                 0.1976                 0.2109
 IR Inten    --      2.6901                 2.0734                 0.4186

                     10                     11                     12
                      A                      A                      A
 Frequencies --    440.9911               506.5776               721.7550
 Red. masses --      2.3179                 2.5602                 3.1965
 Frc consts  --      0.2656                 0.3871                 0.9811
 IR Inten    --      4.4897                 5.1826                 0.9831

                     13                     14                     15
                      A                      A                      A
 Frequencies --    787.3765               866.5636               908.6350
 Red. masses --      1.2113                 1.9980                 1.4946
 Frc consts  --      0.4424                 0.8840                 0.7270
 IR Inten    --      2.2512                61.8524                59.1679

                     16                     17                     18
                      A                      A                      A
 Frequencies --    926.2672               963.1954              1001.2596
 Red. masses --      1.6051                 1.6793                 1.2729
 Frc consts  --      0.8114                 0.9179                 0.7519
 IR Inten    --      3.4969                 2.4148                 1.4447

                     19                     20                     21
                      A                      A                      A
 Frequencies --   1009.8049              1054.8489              1086.6371
 Red. masses --      1.4508                 2.2156                 1.4233
 Frc consts  --      0.8717                 1.4525                 0.9902
 IR Inten    --      5.3452                 3.3800                 5.5269

                     22                     23                     24
                      A                      A                      A
 Frequencies --   1132.6542              1202.9680              1246.6068
 Red. masses --      1.4999                 2.5382                 2.0055
 Frc consts  --      1.1337                 2.1641                 1.8363
 IR Inten    --      0.3496                32.9333                 7.9512

                     25                     26                     27
                      A                      A                      A
 Frequencies --   1310.6047              1361.2097              1371.8963
 Red. masses --      1.5463                 1.4839                 1.5939
 Frc consts  --      1.5649                 1.6200                 1.7675
 IR Inten    --      6.3196                 0.9171                 0.4537

                     28                     29                     30
                      A                      A                      A
 Frequencies --   1397.7431              1405.0103              1417.6949
 Red. masses --      1.3052                 1.2469                 1.2530
 Frc consts  --      1.5024                 1.4503                 1.4838
 IR Inten    --      7.6344                 4.2161                 4.9361

                     31                     32                     33
                      A                      A                      A
 Frequencies --   1476.8889              1481.2849              1489.4743
 Red. masses --      1.0637                 1.0468                 1.0615
 Frc consts  --      1.3670                 1.3533                 1.3876
 IR Inten    --      0.1665                 0.3439                 0.7117

                     34                     35                     36
                      A                      A                      A
 Frequencies --   1497.2826              1501.5773              1510.5766
 Red. masses --      1.0457                 1.0666                 1.0586
 Frc consts  --      1.3812                 1.4170                 1.4232
 IR Inten    --      4.9425                 2.1347                 8.4014

                     37                     38                     39
                      A                      A                      A
 Frequencies --   1516.9178              1655.1478              3005.6406
 Red. masses --      1.0588                 1.0947                 1.0621
 Frc consts  --      1.4355                 1.7670                 5.6530
 IR Inten    --      0.0731                24.8552                25.3736

                     40                     41                     42
                      A                      A                      A
 Frequencies --   3016.8652              3032.8689              3040.9980
 Red. masses --      1.0365                 1.0392                 1.0403
 Frc consts  --      5.5582                 5.6317                 5.6681
 IR Inten    --     34.8961                20.6290                23.7383

                     43                     44                     45
                      A                      A                      A
 Frequencies --   3048.2174              3085.8802              3086.9053
 Red. masses --      1.0922                 1.1009                 1.1014
 Frc consts  --      5.9790                 6.1767                 6.1835
 IR Inten    --     20.9350                21.3909                21.4863

                     46                     47                     48
                      A                      A                      A
 Frequencies --   3095.4024              3101.2207              3126.3494
 Red. masses --      1.0987                 1.1009                 1.1004
 Frc consts  --      6.2027                 6.2381                 6.3367
 IR Inten    --     57.9079                38.9301                30.0361

                     49                     50                     51
                      A                      A                      A
 Frequencies --   3128.6959              3465.6968              3543.8623
 Red. masses --      1.1000                 1.0490                 1.0917
 Frc consts  --      6.3440                 7.4237                 8.0780
 IR Inten    --     15.1278                 1.6747                 0.5708

 - Thermochemistry -
 -------------------
 Temperature   298.150 Kelvin.  Pressure   1.00000 Atm.
 Atom     1 has atomic number  6 and mass  12.00000

 Molecular mass:    87.10480 amu.
 Principal axes and moments of inertia in atomic units:
                           1         2         3
     Eigenvalues --   409.76666 709.28076 721.25205
           X            0.99997   0.00741   0.00170
           Y           -0.00699   0.98428  -0.17646
           Z           -0.00298   0.17644   0.98431
 This molecule is an asymmetric top.
 Rotational symmetry number  1.
 Rotational temperatures (Kelvin)      0.21137     0.12211     0.12009
 Rotational constants (GHZ):           4.40431     2.54447     2.50223
 Zero-point vibrational energy     463581.0 (Joules/Mol)
                                  110.79852 (Kcal/Mol)
 Warning -- explicit consideration of  11 degrees of freedom as
           vibrations may cause significant error
 Vibrational temperatures:    158.74   299.21   339.39   369.54   377.79
          (Kelvin)            410.03   486.98   528.05   593.59   634.49
                              728.85  1038.44  1132.86  1246.79  1307.32
                             1332.69  1385.82  1440.59  1452.88  1517.69
                             1563.43  1629.63  1730.80  1793.59  1885.67
                             1958.47  1973.85  2011.04  2021.49  2039.74
                             2124.91  2131.24  2143.02  2154.25  2160.43
                             2173.38  2182.50  2381.39  4324.44  4340.59
                             4363.62  4375.31  4385.70  4439.89  4441.36
                             4453.59  4461.96  4498.11  4501.49  4986.36
                             5098.82

 Zero-point correction=                           0.176569 (Hartree/Particle)
 Thermal correction to Energy=                    0.184721
 Thermal correction to Enthalpy=                  0.185665
 Thermal correction to Gibbs Free Energy=         0.145505
 Sum of electronic and zero-point Energies=           -252.964021
 Sum of electronic and thermal Energies=              -252.955869
 Sum of electronic and thermal Enthalpies=            -252.954925
 Sum of electronic and thermal Free Energies=         -252.995085

                     E (Thermal)             CV                S
                      KCal/Mol        Cal/Mol-Kelvin    Cal/Mol-Kelvin
 Total                  115.914             30.543             84.523
 Electronic               0.000              0.000              0.000
 Translational            0.889              2.981             39.307
 Rotational               0.889              2.981             26.841
 Vibrational            114.136             24.582             18.375
 Vibration     1          0.606              1.941              3.263
 Vibration     2          0.641              1.829              2.062
 Vibration     3          0.655              1.786              1.834
 Vibration     4          0.666              1.751              1.683
 Vibration     5          0.670              1.741              1.645
 Vibration     6          0.683              1.702              1.504
 Vibration     7          0.719              1.599              1.219
 Vibration     8          0.740              1.540              1.092
 Vibration     9          0.776              1.443              0.918
 Vibration    10          0.801              1.381              0.823
 Vibration    11          0.862              1.235              0.642

 Optimization completed.
    -- Stationary point found.
 Normal termination of Gaussian 09 at Wed Sep  8 12:44:52 2021.

 -----------------------------------------------------------------
 #P Geom=AllCheck Guess=TCheck SCRF=Check CCSD(T,E4T,FrzG4)/GTBas1
 -----------------------------------------------------------------

 Structure from the checkpoint file:  "/public/home/users/caep010/.cache/gau_scr/Gau-156990.chk"
 --------
 Frag_298
 --------
 Charge =  0 Multiplicity = 1

 SCF Done:  E(RHF) =  -251.352692645     A.U. after   11 cycles
 E2 =    -0.8297759678D+00 EUMP2 =    -0.25218246861303D+03
 CCSD(T)
 CCSD(T)= -0.25228053689D+03
 781453\MP4SDQ=-252.2529148\CCSD=-252.2544922\CCSD(T)=-252.2805369\RMSD
 Normal termination of Gaussian 09 at Wed Sep  8 12:47:47 2021.

 ---------------------------------------------------------
 #P Geom=AllCheck Guess=TCheck SCRF=Check MP4=FrzG4/GTBas2
 ---------------------------------------------------------

 Structure from the checkpoint file:  "/public/home/users/caep010/.cache/gau_scr/Gau-156990.chk"
 --------
 Frag_298
 --------
 Charge =  0 Multiplicity = 1

 SCF Done:  E(RHF) =  -251.357959315     A.U. after   11 cycles
 E2 =    -0.8404041269D+00 EUMP2 =    -0.25219836344204D+03
 Normal termination of Gaussian 09 at Wed Sep  8 12:48:42 2021.

 ---------------------------------------------------------
 #P Geom=AllCheck Guess=TCheck SCRF=Check MP4=FrzG4/GTBas3
 ---------------------------------------------------------

 Structure from the checkpoint file:  "/public/home/users/caep010/.cache/gau_scr/Gau-156990.chk"
 --------
 Frag_298
 --------
 Charge =  0 Multiplicity = 1

 SCF Done:  E(RHF) =  -251.389167936     A.U. after   10 cycles
 E2 =    -0.1038336401D+01 EUMP2 =    -0.25242750433656D+03
 Normal termination of Gaussian 09 at Wed Sep  8 12:54:32 2021.

 -----------------------------------------------------------
 #P Geom=AllCheck Guess=TCheck SCRF=Check MP2=Full/GTLargeXP
 -----------------------------------------------------------

 Structure from the checkpoint file:  "/public/home/users/caep010/.cache/gau_scr/Gau-156990.chk"
 --------
 Frag_298
 --------
 Charge =  0 Multiplicity = 1

 SCF Done:  E(RHF) =  -251.443882766     A.U. after   11 cycles
 E2 =    -0.1362653546D+01 EUMP2 =    -0.25280653631221D+03
 Normal termination of Gaussian 09 at Wed Sep  8 12:57:31 2021.
 SCF Done:  E(RHF) =  -251.463851818     A.U. after    8 cycles
 Normal termination of Gaussian 09 at Wed Sep  8 13:00:36 2021.

                         Standard orientation:
 ---------------------------------------------------------------------
 Center     Atomic      Atomic             Coordinates (Angstroms)
 Number     Number       Type             X           Y           Z
 ---------------------------------------------------------------------
      1          6           0        2.175016   -0.017478   -0.016126
      2          6           0        0.872134   -0.683242   -0.467656
      3          6           0       -0.430458   -0.000030    0.011313
      4          6           0       -1.634600   -0.776037   -0.559931
      5          6           0       -0.500340    1.463064   -0.450910
      6          7           0       -0.423710    0.001889    1.488806
      7          1           0        2.176540    0.126937    1.067028
      8          1           0        3.037031   -0.635708   -0.286314
      9          1           0        2.316082    0.960903   -0.485911
     10          1           0        0.845589   -0.749240   -1.562500
     11          1           0        0.855704   -1.720946   -0.105392
     12          1           0       -1.647062   -0.763088   -1.655934
     13          1           0       -2.577614   -0.341227   -0.209527
     14          1           0       -1.608301   -1.824214   -0.239780
     15          1           0       -0.416596    1.535680   -1.539921
     16          1           0        0.296547    2.056772    0.002328
     17          1           0       -1.457838    1.912390   -0.162255
     18          1           0       -0.482955   -0.956207    1.826765
     19          1           0       -1.261661    0.467065    1.829627
 ---------------------------------------------------------------------

 SCF Done:  E(RHF) =  -251.468161524     A.U. after    8 cycles

 The electronic state is 1-A.
 Alpha  occ. eigenvalues --  -15.53272 -11.25790 -11.21396 -11.21101 -11.20802
 Alpha  occ. eigenvalues --  -11.20095  -1.18814  -1.03940  -0.98316  -0.93156
 Alpha  occ. eigenvalues --   -0.85057  -0.74135  -0.65557  -0.62555  -0.61019
 Alpha  occ. eigenvalues --   -0.57237  -0.56632  -0.54157  -0.52874  -0.50999
 Alpha  occ. eigenvalues --   -0.49686  -0.47941  -0.46067  -0.44627  -0.38705
 Alpha virt. eigenvalues --    0.03284   0.04236   0.04376   0.04983   0.06053
 Alpha virt. eigenvalues --    0.06946   0.07120   0.07239   0.07426   0.09438
 Alpha virt. eigenvalues --    0.09690   0.09865   0.10316   0.10912   0.11826

 Mulliken charges:
               1
     1  C   -0.567961
     2  C   -0.289573
     3  C    0.418700
     4  C   -0.564770
     5  C   -0.587751
     6  N   -0.771164
     7  H    0.193167
     8  H    0.161566
     9  H    0.156212
    10  H    0.155967
    11  H    0.142672
    12  H    0.164003
    13  H    0.157358
    14  H    0.158343
    15  H    0.167098
    16  H    0.178022
    17  H    0.155841
    18  H    0.285999
    19  H    0.286269
 Sum of Mulliken charges =  -0.00000

 Dipole moment (field-independent basis, Debye):
    X=             -1.0759    Y=             -0.5661    Z=             -0.4170  Tot=              1.2852
 Quadrupole moment (field-independent basis, Debye-Ang):
   XX=            -41.1377   YY=            -40.5837   ZZ=            -41.8087
   XY=             -0.7117   XZ=             -2.3845   YZ=             -1.5171

 Normal termination of Gaussian 09 at Wed Sep  8 13:11:30 2021.
