 Gaussian 09, Revision E.01,
 Gaussian 09:  ES64L-G09RevE.01 30-Nov-2015

 -----
 #P G4
 -----

 --------
 Frag_706
 --------
 Symbolic Z-matrix:
 Charge =  0 Multiplicity = 1

 SCF Done:  E(RB3LYP) =  -210.110881994     A.U. after   13 cycles
 SCF Done:  E(RB3LYP) =  -210.111203899     A.U. after   11 cycles
 SCF Done:  E(RB3LYP) =  -210.111312754     A.U. after   12 cycles
 SCF Done:  E(RB3LYP) =  -210.111768553     A.U. after   12 cycles
 SCF Done:  E(RB3LYP) =  -210.112082203     A.U. after   12 cycles
 SCF Done:  E(RB3LYP) =  -210.110510250     A.U. after   12 cycles
 SCF Done:  E(RB3LYP) =  -210.112337818     A.U. after   10 cycles
 SCF Done:  E(RB3LYP) =  -210.112627572     A.U. after   12 cycles
 SCF Done:  E(RB3LYP) =  -210.112421772     A.U. after   12 cycles
 SCF Done:  E(RB3LYP) =  -210.112670985     A.U. after    9 cycles
 SCF Done:  E(RB3LYP) =  -210.112685049     A.U. after    8 cycles
 SCF Done:  E(RB3LYP) =  -210.112685442     A.U. after    8 cycles
 SCF Done:  E(RB3LYP) =  -210.112685636     A.U. after    7 cycles
 Optimization completed.
    -- Stationary point found.
 Normal termination of Gaussian 09 at Tue Aug 30 10:03:43 2022.

 ----------------------------------------------------------
 #P Geom=AllCheck Guess=TCheck SCRF=Check B3LYP/GTBas3 Freq
 ----------------------------------------------------------

 Structure from the checkpoint file:  "G4.Frag_706.chk"
 --------
 Frag_706
 --------
 Charge =  0 Multiplicity = 1

 SCF Done:  E(RB3LYP) =  -210.112685636     A.U. after    1 cycles

  Exact polarizability:  70.105   7.096  43.397   0.003   0.000  27.440
 Approx polarizability: 113.206  21.039  68.177   0.013   0.003  40.561

                      1                      2                      3
                      A                      A                      A
 Frequencies --    146.4234               187.5570               264.6709
 Red. masses --      1.0421                 3.5805                 3.7444
 Frc consts  --      0.0132                 0.0742                 0.1545
 IR Inten    --      0.0002                 4.0940                 5.2165

                      4                      5                      6
                      A                      A                      A
 Frequencies --    439.2569               584.7351               592.7643
 Red. masses --      2.9069                 3.1435                 5.8409
 Frc consts  --      0.3305                 0.6333                 1.2092
 IR Inten    --      5.4958                 2.3357                 9.8618

                      7                      8                      9
                      A                      A                      A
 Frequencies --    646.9227               667.2799               769.6204
 Red. masses --      1.2493                 1.2397                 4.2903
 Frc consts  --      0.3081                 0.3252                 1.4972
 IR Inten    --     41.0537                39.6449                 6.0086

                     10                     11                     12
                      A                      A                      A
 Frequencies --    902.0502               990.9544              1077.2985
 Red. masses --      1.2067                 1.9292                 1.5538
 Frc consts  --      0.5785                 1.1162                 1.0625
 IR Inten    --     27.7399                13.5839                14.7907

                     13                     14                     15
                      A                      A                      A
 Frequencies --   1107.1028              1367.3567              1400.8210
 Red. masses --      1.5689                 1.7452                 1.3283
 Frc consts  --      1.1330                 1.9225                 1.5357
 IR Inten    --     66.9319                70.7023                24.3572

                     16                     17                     18
                      A                      A                      A
 Frequencies --   1467.4162              1478.7530              1687.2311
 Red. masses --      1.0450                 1.0729                 7.9682
 Frc consts  --      1.3258                 1.3823                13.3648
 IR Inten    --      6.1521                22.5051                64.5473

                     19                     20                     21
                      A                      A                      A
 Frequencies --   2226.4373              3036.0053              3102.5309
 Red. masses --      5.9757                 1.0346                 1.0994
 Frc consts  --     17.4527                 5.6188                 6.2351
 IR Inten    --     18.6633                 5.9330                 7.1180

                     22                     23                     24
                      A                      A                      A
 Frequencies --   3124.2867              3431.7590              3501.1999
 Red. masses --      1.1035                 1.0740                 1.1614
 Frc consts  --      6.3466                 7.4524                 8.3881
 IR Inten    --     14.5444                 0.6412                58.5907

 - Thermochemistry -
 -------------------
 Temperature   298.150 Kelvin.  Pressure   1.00000 Atm.
 Atom     1 has atomic number  6 and mass  12.00000

 Molecular mass:    67.04220 amu.
 Principal axes and moments of inertia in atomic units:
                           1         2         3
     Eigenvalues --   183.61480 443.95306 616.42164
           X            0.99948  -0.03210   0.00000
           Y            0.03210   0.99948  -0.00000
           Z           -0.00000   0.00000   1.00000
 This molecule is an asymmetric top.
 Rotational symmetry number  1.
 Rotational temperatures (Kelvin)      0.47171     0.19510     0.14051
 Rotational constants (GHZ):           9.82895     4.06516     2.92777
 Zero-point vibrational energy     204564.0 (Joules/Mol)
                                   48.89197 (Kcal/Mol)
 Warning -- explicit consideration of   6 degrees of freedom as
           vibrations may cause significant error
 Vibrational temperatures:    210.67   269.85   380.80   631.99   841.30
          (Kelvin)            852.85   930.78   960.07  1107.31  1297.85
                             1425.76  1549.99  1592.87  1967.32  2015.47
                             2111.28  2127.59  2427.55  3203.34  4368.13
                             4463.84  4495.15  4937.53  5037.44

 Zero-point correction=                           0.077914 (Hartree/Particle)
 Thermal correction to Energy=                    0.083571
 Thermal correction to Enthalpy=                  0.084516
 Thermal correction to Gibbs Free Energy=         0.049494
 Sum of electronic and zero-point Energies=           -210.034771
 Sum of electronic and thermal Energies=              -210.029114
 Sum of electronic and thermal Enthalpies=            -210.028170
 Sum of electronic and thermal Free Energies=         -210.063191

                     E (Thermal)             CV                S
                      KCal/Mol        Cal/Mol-Kelvin    Cal/Mol-Kelvin
 Total                   52.442             19.379             73.708
 Electronic               0.000              0.000              0.000
 Translational            0.889              2.981             38.526
 Rotational               0.889              2.981             25.422
 Vibrational             50.664             13.417              9.760
 Vibration     1          0.617              1.907              2.718
 Vibration     2          0.632              1.857              2.252
 Vibration     3          0.671              1.738              1.631
 Vibration     4          0.799              1.385              0.829
 Vibration     5          0.942              1.064              0.477
 Vibration     6          0.950              1.047              0.462

 Optimization completed.
    -- Stationary point found.
 Normal termination of Gaussian 09 at Tue Aug 30 10:04:01 2022.

 -----------------------------------------------------------------
 #P Geom=AllCheck Guess=TCheck SCRF=Check CCSD(T,E4T,FrzG4)/GTBas1
 -----------------------------------------------------------------

 Structure from the checkpoint file:  "G4.Frag_706.chk"
 --------
 Frag_706
 --------
 Charge =  0 Multiplicity = 1

 SCF Done:  E(RHF) =  -208.743434003     A.U. after   12 cycles
 E2 =    -0.6645611286D+00 EUMP2 =    -0.20940799513137D+03
 CCSD(T)
 CCSD(T)= -0.20947159572D+03
 Normal termination of Gaussian 09 at Tue Aug 30 10:04:45 2022.

 ---------------------------------------------------------
 #P Geom=AllCheck Guess=TCheck SCRF=Check MP4=FrzG4/GTBas2
 ---------------------------------------------------------

 Structure from the checkpoint file:  "G4.Frag_706.chk"
 --------
 Frag_706
 --------
 Charge =  0 Multiplicity = 1

 SCF Done:  E(RHF) =  -208.751471583     A.U. after   14 cycles
 E2 =    -0.6707928923D+00 EUMP2 =    -0.20942226447568D+03
 Normal termination of Gaussian 09 at Tue Aug 30 10:04:58 2022.

 ---------------------------------------------------------
 #P Geom=AllCheck Guess=TCheck SCRF=Check MP4=FrzG4/GTBas3
 ---------------------------------------------------------

 Structure from the checkpoint file:  "G4.Frag_706.chk"
 --------
 Frag_706
 --------
 Charge =  0 Multiplicity = 1

 SCF Done:  E(RHF) =  -208.769556662     A.U. after   12 cycles
 E2 =    -0.7938373272D+00 EUMP2 =    -0.20956339398941D+03
 Normal termination of Gaussian 09 at Tue Aug 30 10:05:55 2022.

 -----------------------------------------------------------
 #P Geom=AllCheck Guess=TCheck SCRF=Check MP2=Full/GTLargeXP
 -----------------------------------------------------------

 Structure from the checkpoint file:  "G4.Frag_706.chk"
 --------
 Frag_706
 --------
 Charge =  0 Multiplicity = 1

 SCF Done:  E(RHF) =  -208.818927505     A.U. after   14 cycles
 E2 =    -0.1053460489D+01 EUMP2 =    -0.20987238799388D+03
 Normal termination of Gaussian 09 at Tue Aug 30 10:06:38 2022.
 SCF Done:  E(RHF) =  -208.834931427     A.U. after    9 cycles
 Normal termination of Gaussian 09 at Tue Aug 30 10:07:26 2022.

                         Standard orientation:
 ---------------------------------------------------------------------
 Center     Atomic      Atomic             Coordinates (Angstroms)
 Number     Number       Type             X           Y           Z
 ---------------------------------------------------------------------
      1          6           0        2.192814    0.087960    0.000116
      2          6           0        1.000512   -0.073623   -0.000196
      3          6           0       -0.434661   -0.176549    0.000105
      4          6           0       -1.165547    1.149953    0.000035
      5          7           0       -0.970787   -1.336098    0.000010
      6          1           0        3.249720    0.195680   -0.000062
      7          1           0       -2.248063    0.997820    0.000693
      8          1           0       -0.886637    1.739972    0.879411
      9          1           0       -0.887778    1.739014   -0.880425
     10          1           0       -1.990445   -1.246244   -0.000045
 ---------------------------------------------------------------------

 SCF Done:  E(RHF) =  -208.838017961     A.U. after    8 cycles

 The electronic state is 1-A.
 Alpha  occ. eigenvalues --  -15.56194 -11.31594 -11.24675 -11.24572 -11.24184
 Alpha  occ. eigenvalues --   -1.23026  -1.04958  -0.99810  -0.86053  -0.72387
 Alpha  occ. eigenvalues --   -0.66126  -0.64081  -0.60092  -0.56763  -0.47629
 Alpha  occ. eigenvalues --   -0.43994  -0.40909  -0.38449
 Alpha virt. eigenvalues --    0.03457   0.03686   0.05110   0.05444   0.06591
 Alpha virt. eigenvalues --    0.07080   0.07278   0.08811   0.08967   0.09615
 Alpha virt. eigenvalues --    0.09866   0.10216   0.11795   0.13455   0.14076

 Mulliken charges:
               1
     1  C   -0.459682
     2  C    0.231383
     3  C    0.216021
     4  C   -0.536120
     5  N   -0.556788
     6  H    0.253659
     7  H    0.169969
     8  H    0.198556
     9  H    0.198503
    10  H    0.284499
 Sum of Mulliken charges =  -0.00000

 Dipole moment (field-independent basis, Debye):
    X=             -0.5735    Y=              2.6097    Z=             -0.0001  Tot=              2.6720
 Quadrupole moment (field-independent basis, Debye-Ang):
   XX=            -20.9172   YY=            -34.8078   ZZ=            -31.7125
   XY=             -0.1337   XZ=              0.0004   YZ=              0.0001

 Normal termination of Gaussian 09 at Tue Aug 30 10:12:00 2022.
