 Gaussian 09, Revision E.01,
 Gaussian 09:  ES64L-G09RevE.01 30-Nov-2015

 -----
 #P G4
 -----

 --------
 Frag_522
 --------
 Symbolic Z-matrix:
 Charge =  0 Multiplicity = 1

 SCF Done:  E(RB3LYP) =  -265.718838167     A.U. after   13 cycles
 SCF Done:  E(RB3LYP) =  -265.723982843     A.U. after   11 cycles
 SCF Done:  E(RB3LYP) =  -265.724608831     A.U. after   11 cycles
 SCF Done:  E(RB3LYP) =  -265.724825292     A.U. after   11 cycles
 SCF Done:  E(RB3LYP) =  -265.724862919     A.U. after    9 cycles
 SCF Done:  E(RB3LYP) =  -265.724877859     A.U. after    9 cycles
 SCF Done:  E(RB3LYP) =  -265.724881849     A.U. after    7 cycles
 SCF Done:  E(RB3LYP) =  -265.724882276     A.U. after    7 cycles
 Optimization completed.
    -- Stationary point found.
 Normal termination of Gaussian 09 at Tue Aug 23 22:25:47 2022.

 ----------------------------------------------------------
 #P Geom=AllCheck Guess=TCheck SCRF=Check B3LYP/GTBas3 Freq
 ----------------------------------------------------------

 Structure from the checkpoint file:  "G4.Frag_522.chk"
 --------
 Frag_522
 --------
 Charge =  0 Multiplicity = 1

 SCF Done:  E(RB3LYP) =  -265.724882276     A.U. after    1 cycles

  Exact polarizability:  48.296  -0.720  42.200   0.774  -0.356  39.625
 Approx polarizability:  63.231  -2.855  56.022   1.181  -0.095  58.700

                      1                      2                      3
                      A                      A                      A
 Frequencies --    132.3617               250.5983               288.8718
 Red. masses --      2.5498                 1.3355                 1.3730
 Frc consts  --      0.0263                 0.0494                 0.0675
 IR Inten    --      7.1155                 3.0448                 9.5222

                      4                      5                      6
                      A                      A                      A
 Frequencies --    337.7302               357.6682               422.3509
 Red. masses --      1.4719                 1.5899                 1.4579
 Frc consts  --      0.0989                 0.1198                 0.1532
 IR Inten    --     26.3451                30.1498                88.9759

                      7                      8                      9
                      A                      A                      A
 Frequencies --    436.6351               550.0282               835.8351
 Red. masses --      2.5779                 3.5303                 4.4518
 Frc consts  --      0.2896                 0.6293                 1.8324
 IR Inten    --      8.3203                16.9161                26.3591

                     10                     11                     12
                      A                      A                      A
 Frequencies --    948.3500              1017.3289              1076.2400
 Red. masses --      1.8939                 1.4545                 1.8163
 Frc consts  --      1.0036                 0.8869                 1.2395
 IR Inten    --     93.2673                13.7577               114.4814

                     13                     14                     15
                      A                      A                      A
 Frequencies --   1104.9105              1141.0195              1176.5655
 Red. masses --      3.1078                 1.3673                 1.9455
 Frc consts  --      2.2354                 1.0488                 1.5868
 IR Inten    --     39.2481                13.1614                12.0298

                     16                     17                     18
                      A                      A                      A
 Frequencies --   1259.9836              1286.3181              1341.5828
 Red. masses --      1.6956                 1.7282                 1.4598
 Frc consts  --      1.5860                 1.6847                 1.5480
 IR Inten    --      7.9405                 7.9658                16.9049

                     19                     20                     21
                      A                      A                      A
 Frequencies --   1383.1607              1422.8200              1451.2633
 Red. masses --      1.2653                 1.1857                 1.2123
 Frc consts  --      1.4262                 1.4142                 1.5044
 IR Inten    --     11.0431                31.2883                32.7212

                     22                     23                     24
                      A                      A                      A
 Frequencies --   1491.6170              1498.1864              1524.1271
 Red. masses --      1.0603                 1.0538                 1.0909
 Frc consts  --      1.3900                 1.3936                 1.4930
 IR Inten    --     13.2233                 6.7628                 0.4283

                     25                     26                     27
                      A                      A                      A
 Frequencies --   1677.2559              2925.9510              2951.9984
 Red. masses --      1.0831                 1.0596                 1.0676
 Frc consts  --      1.7951                 5.3446                 5.4812
 IR Inten    --     16.9319                59.6355                88.8805

                     28                     29                     30
                      A                      A                      A
 Frequencies --   3048.1093              3070.2568              3127.1300
 Red. masses --      1.0941                 1.0738                 1.1006
 Frc consts  --      5.9895                 5.9636                 6.3411
 IR Inten    --     41.0968                33.3772                12.6745

                     31                     32                     33
                      A                      A                      A
 Frequencies --   3361.5103              3525.0938              3792.2918
 Red. masses --      1.0577                 1.0823                 1.0651
 Frc consts  --      7.0419                 7.9241                 9.0253
 IR Inten    --     20.9866                 0.2934                17.3473

 - Thermochemistry -
 -------------------
 Temperature   298.150 Kelvin.  Pressure   1.00000 Atm.
 Atom     1 has atomic number  6 and mass  12.00000

 Molecular mass:    76.06366 amu.
 Principal axes and moments of inertia in atomic units:
                           1         2         3
     Eigenvalues --   212.57317 476.18528 622.42840
           X            0.99946   0.03144   0.00917
           Y           -0.03142   0.99951  -0.00154
           Z           -0.00921   0.00125   0.99996
 This molecule is an asymmetric top.
 Rotational symmetry number  1.
 Rotational temperatures (Kelvin)      0.40745     0.18189     0.13915
 Rotational constants (GHZ):           8.48998     3.79000     2.89952
 Zero-point vibrational energy     300353.3 (Joules/Mol)
                                   71.78616 (Kcal/Mol)
 Warning -- explicit consideration of   8 degrees of freedom as
           vibrations may cause significant error
 Vibrational temperatures:    190.44   360.55   415.62   485.92   514.60
          (Kelvin)            607.67   628.22   791.37  1202.58  1364.46
                             1463.71  1548.47  1589.72  1641.67  1692.81
                             1812.83  1850.72  1930.24  1990.06  2047.12
                             2088.04  2146.10  2155.55  2192.88  2413.19
                             4209.79  4247.26  4385.54  4417.41  4499.24
                             4836.46  5071.82  5456.26

 Zero-point correction=                           0.114399 (Hartree/Particle)
 Thermal correction to Energy=                    0.120618
 Thermal correction to Enthalpy=                  0.121562
 Thermal correction to Gibbs Free Energy=         0.085418
 Sum of electronic and zero-point Energies=           -265.610484
 Sum of electronic and thermal Energies=              -265.604264
 Sum of electronic and thermal Enthalpies=            -265.603320
 Sum of electronic and thermal Free Energies=         -265.639465

                     E (Thermal)             CV                S
                      KCal/Mol        Cal/Mol-Kelvin    Cal/Mol-Kelvin
 Total                   75.689             21.897             76.073
 Electronic               0.000              0.000              0.000
 Translational            0.889              2.981             38.903
 Rotational               0.889              2.981             25.647
 Vibrational             73.912             15.935             11.524
 Vibration     1          0.612              1.921              2.911
 Vibration     2          0.663              1.762              1.726
 Vibration     3          0.685              1.694              1.481
 Vibration     4          0.718              1.600              1.223
 Vibration     5          0.733              1.559              1.132
 Vibration     6          0.785              1.422              0.884
 Vibration     7          0.797              1.390              0.837
 Vibration     8          0.905              1.140              0.544

 Optimization completed.
    -- Stationary point found.
 Normal termination of Gaussian 09 at Tue Aug 23 22:27:27 2022.

 -----------------------------------------------------------------
 #P Geom=AllCheck Guess=TCheck SCRF=Check CCSD(T,E4T,FrzG4)/GTBas1
 -----------------------------------------------------------------

 Structure from the checkpoint file:  "G4.Frag_522.chk"
 --------
 Frag_522
 --------
 Charge =  0 Multiplicity = 1

 SCF Done:  E(RHF) =  -264.087243698     A.U. after   12 cycles
 E2 =    -0.7693545062D+00 EUMP2 =    -0.26485659820432D+03
 CCSD(T)
 CCSD(T)= -0.26492431534D+03
 6\MP4SDTQ=-264.9234913\MP4SDQ=-264.902078\CCSD=-264.9029028\CCSD(T)=-2
 Normal termination of Gaussian 09 at Tue Aug 23 22:29:59 2022.

 ---------------------------------------------------------
 #P Geom=AllCheck Guess=TCheck SCRF=Check MP4=FrzG4/GTBas2
 ---------------------------------------------------------

 Structure from the checkpoint file:  "G4.Frag_522.chk"
 --------
 Frag_522
 --------
 Charge =  0 Multiplicity = 1

 SCF Done:  E(RHF) =  -264.097080106     A.U. after   12 cycles
 E2 =    -0.7832810680D+00 EUMP2 =    -0.26488036117396D+03
 Normal termination of Gaussian 09 at Tue Aug 23 22:33:33 2022.

 ---------------------------------------------------------
 #P Geom=AllCheck Guess=TCheck SCRF=Check MP4=FrzG4/GTBas3
 ---------------------------------------------------------

 Structure from the checkpoint file:  "G4.Frag_522.chk"
 --------
 Frag_522
 --------
 Charge =  0 Multiplicity = 1

 SCF Done:  E(RHF) =  -264.125135372     A.U. after   11 cycles
 E2 =    -0.9534513123D+00 EUMP2 =    -0.26507858668420D+03
 Normal termination of Gaussian 09 at Tue Aug 23 23:28:02 2022.

 -----------------------------------------------------------
 #P Geom=AllCheck Guess=TCheck SCRF=Check MP2=Full/GTLargeXP
 -----------------------------------------------------------

 Structure from the checkpoint file:  "G4.Frag_522.chk"
 --------
 Frag_522
 --------
 Charge =  0 Multiplicity = 1

 SCF Done:  E(RHF) =  -264.197309954     A.U. after   11 cycles
 E2 =    -0.1241816472D+01 EUMP2 =    -0.26543912642573D+03
 Normal termination of Gaussian 09 at Tue Aug 23 23:31:02 2022.
 SCF Done:  E(RHF) =  -264.218261745     A.U. after    8 cycles
 Normal termination of Gaussian 09 at Tue Aug 23 23:34:25 2022.

                         Standard orientation:
 ---------------------------------------------------------------------
 Center     Atomic      Atomic             Coordinates (Angstroms)
 Number     Number       Type             X           Y           Z
 ---------------------------------------------------------------------
      1          6           0        0.658660    1.347867    0.095709
      2          7           0        0.404560   -0.030712   -0.299753
      3          7           0        1.512348   -0.900028   -0.082271
      4          6           0       -0.778227   -0.590610    0.339576
      5          8           0       -1.943026    0.047795   -0.122509
      6          1           0        1.438400    1.779811   -0.539280
      7          1           0       -0.259637    1.926758   -0.027707
      8          1           0        0.983242    1.428490    1.151136
      9          1           0        2.186853   -0.725708   -0.821887
     10          1           0        1.980744   -0.662276    0.798322
     11          1           0       -0.784550   -0.445096    1.434480
     12          1           0       -0.761808   -1.666861    0.129986
     13          1           0       -1.939989   -0.045841   -1.082522
 ---------------------------------------------------------------------

 SCF Done:  E(RHF) =  -264.222961090     A.U. after    8 cycles

 The electronic state is 1-A.
 Alpha  occ. eigenvalues --  -20.55668 -15.57985 -15.57691 -11.29837 -11.24734
 Alpha  occ. eigenvalues --   -1.37428  -1.28399  -1.06575  -0.94811  -0.83426
 Alpha  occ. eigenvalues --   -0.69868  -0.68983  -0.66742  -0.61466  -0.59915
 Alpha  occ. eigenvalues --   -0.57064  -0.54243  -0.51217  -0.46030  -0.42016
 Alpha  occ. eigenvalues --   -0.38027
 Alpha virt. eigenvalues --    0.03880   0.04818   0.05109   0.05258   0.07138
 Alpha virt. eigenvalues --    0.07653   0.07678   0.08904   0.09486   0.12145
 Alpha virt. eigenvalues --    0.13517   0.13904   0.15082   0.15364   0.16090

 Mulliken charges:
               1
     1  C   -0.466110
     2  N   -0.031296
     3  N   -0.657516
     4  C   -0.046386
     5  O   -0.573882
     6  H    0.163557
     7  H    0.207675
     8  H    0.131920
     9  H    0.314111
    10  H    0.275930
    11  H    0.137407
    12  H    0.171799
    13  H    0.372790
 Sum of Mulliken charges =  -0.00000

 Dipole moment (field-independent basis, Debye):
    X=              1.9273    Y=              0.6589    Z=             -0.1779  Tot=              2.0446
 Quadrupole moment (field-independent basis, Debye-Ang):
   XX=            -32.0110   YY=            -33.6785   ZZ=            -29.4471
   XY=              2.1905   XZ=              2.3802   YZ=             -0.2946

 Normal termination of Gaussian 09 at Wed Aug 24 01:14:39 2022.
