 Gaussian 09, Revision E.01,
 Gaussian 09:  ES64L-G09RevE.01 30-Nov-2015

 -----
 #P G4
 -----

 ---------
 Frag_1016
 ---------
 Symbolic Z-matrix:
 Charge =  0 Multiplicity = 1

 SCF Done:  E(RB3LYP) =  -323.711963744     A.U. after   13 cycles
 SCF Done:  E(RB3LYP) =  -323.717034540     A.U. after   11 cycles
 SCF Done:  E(RB3LYP) =  -323.718033811     A.U. after   12 cycles
 SCF Done:  E(RB3LYP) =  -323.719340492     A.U. after   12 cycles
 SCF Done:  E(RB3LYP) =  -323.720233319     A.U. after   12 cycles
 SCF Done:  E(RB3LYP) =  -323.720929927     A.U. after   12 cycles
 SCF Done:  E(RB3LYP) =  -323.721436909     A.U. after   12 cycles
 SCF Done:  E(RB3LYP) =  -323.721673867     A.U. after   11 cycles
 SCF Done:  E(RB3LYP) =  -323.721788964     A.U. after   11 cycles
 SCF Done:  E(RB3LYP) =  -323.721869738     A.U. after   11 cycles
 SCF Done:  E(RB3LYP) =  -323.723588737     A.U. after    7 cycles
 SCF Done:  E(RB3LYP) =  -323.723588815     A.U. after    7 cycles
 SCF Done:  E(RB3LYP) =  -323.723588830     A.U. after    7 cycles
 Optimization completed.
    -- Stationary point found.
 Normal termination of Gaussian 09 at Sun Aug 21 00:07:11 2022.

 ----------------------------------------------------------
 #P Geom=AllCheck Guess=TCheck SCRF=Check B3LYP/GTBas3 Freq
 ----------------------------------------------------------

 Structure from the checkpoint file:  "G4.Frag_1016.chk"
 ---------
 Frag_1016
 ---------
 Charge =  0 Multiplicity = 1

 SCF Done:  E(RB3LYP) =  -323.723588830     A.U. after    1 cycles

  Exact polarizability:  58.583  -3.196  47.536   1.183  -0.091  36.666
 Approx polarizability:  83.668 -10.497  68.245   2.815   1.337  54.783

                      1                      2                      3
                      A                      A                      A
 Frequencies --    108.2750               215.7302               244.5063
 Red. masses --      2.6760                 1.0932                 1.1649
 Frc consts  --      0.0185                 0.0300                 0.0410
 IR Inten    --      0.9406                51.6714                39.7673

                      4                      5                      6
                      A                      A                      A
 Frequencies --    289.8194               325.0700               332.7162
 Red. masses --      2.7609                 1.5023                 1.4638
 Frc consts  --      0.1366                 0.0935                 0.0955
 IR Inten    --     10.6749                47.6236                82.2400

                      7                      8                      9
                      A                      A                      A
 Frequencies --    441.8173               471.7654               514.0795
 Red. masses --      3.0996                 2.9182                 3.3358
 Frc consts  --      0.3565                 0.3827                 0.5194
 IR Inten    --     10.1187                17.8367                 7.4536

                     10                     11                     12
                      A                      A                      A
 Frequencies --    596.1900               721.2731               783.3176
 Red. masses --      3.3870                 1.9682                 4.0411
 Frc consts  --      0.7093                 0.6033                 1.4609
 IR Inten    --     25.6811                 4.2218                 6.9636

                     13                     14                     15
                      A                      A                      A
 Frequencies --    853.9436               973.0153               980.9589
 Red. masses --      1.6044                 2.3455                 1.5806
 Frc consts  --      0.6893                 1.3084                 0.8961
 IR Inten    --    101.8054               122.1813                29.1119

                     16                     17                     18
                      A                      A                      A
 Frequencies --    997.7012              1044.1689              1064.0792
 Red. masses --      2.2972                 1.0893                 1.7484
 Frc consts  --      1.3473                 0.6998                 1.1664
 IR Inten    --     90.6372                16.5096               104.2122

                     19                     20                     21
                      A                      A                      A
 Frequencies --   1195.3811              1208.7136              1310.0134
 Red. masses --      1.1591                 2.2463                 1.3140
 Frc consts  --      0.9758                 1.9336                 1.3286
 IR Inten    --     37.9145               151.6291                 7.9791

                     22                     23                     24
                      A                      A                      A
 Frequencies --   1389.0142              1401.8156              1451.8500
 Red. masses --      1.6796                 1.7562                 1.3352
 Frc consts  --      1.9093                 2.0333                 1.6583
 IR Inten    --     68.2418                78.4753                60.8913

                     25                     26                     27
                      A                      A                      A
 Frequencies --   1637.4092              1715.8842              3143.5031
 Red. masses --      1.1216                 4.9705                 1.0719
 Frc consts  --      1.7717                 8.6224                 6.2407
 IR Inten    --     41.7478                 0.5584                11.0710

                     28                     29                     30
                      A                      A                      A
 Frequencies --   3158.7963              3240.4610              3512.0619
 Red. masses --      1.0783                 1.1148                 1.0488
 Frc consts  --      6.3390                 6.8968                 7.6217
 IR Inten    --      7.3001                 6.4516                 4.1045

                     31                     32                     33
                      A                      A                      A
 Frequencies --   3599.7658              3810.9588              3824.3356
 Red. masses --      1.0929                 1.0662                 1.0650
 Frc consts  --      8.3444                 9.1235                 9.1771
 IR Inten    --      3.3771                21.3082                43.9714

 - Thermochemistry -
 -------------------
 Temperature   298.150 Kelvin.  Pressure   1.00000 Atm.
 Atom     1 has atomic number  6 and mass  12.00000

 Molecular mass:    89.04768 amu.
 Principal axes and moments of inertia in atomic units:
                           1         2         3
     Eigenvalues --   352.32241 625.34017 657.81207
           X            0.99992   0.01272  -0.00036
           Y           -0.01258   0.98333  -0.18137
           Z           -0.00195   0.18136   0.98341
 This molecule is an asymmetric top.
 Rotational symmetry number  1.
 Rotational temperatures (Kelvin)      0.24584     0.13851     0.13167
 Rotational constants (GHZ):           5.12241     2.88602     2.74355
 Zero-point vibrational energy     278481.0 (Joules/Mol)
                                   66.55856 (Kcal/Mol)
 Warning -- explicit consideration of  10 degrees of freedom as
           vibrations may cause significant error
 Vibrational temperatures:    155.78   310.39   351.79   416.98   467.70
          (Kelvin)            478.70   635.68   678.76   739.64   857.78
                             1037.75  1127.02  1228.63  1399.95  1411.38
                             1435.47  1502.32  1530.97  1719.88  1739.07
                             1884.81  1998.48  2016.90  2088.89  2355.86
                             2468.77  4522.79  4544.80  4662.29  5053.07
                             5179.25  5483.11  5502.36

 Zero-point correction=                           0.106068 (Hartree/Particle)
 Thermal correction to Energy=                    0.113246
 Thermal correction to Enthalpy=                  0.114190
 Thermal correction to Gibbs Free Energy=         0.075779
 Sum of electronic and zero-point Energies=           -323.617521
 Sum of electronic and thermal Energies=              -323.610343
 Sum of electronic and thermal Enthalpies=            -323.609399
 Sum of electronic and thermal Free Energies=         -323.647810

                     E (Thermal)             CV                S
                      KCal/Mol        Cal/Mol-Kelvin    Cal/Mol-Kelvin
 Total                   71.063             26.170             80.842
 Electronic               0.000              0.000              0.000
 Translational            0.889              2.981             39.372
 Rotational               0.889              2.981             26.474
 Vibrational             69.285             20.208             14.996
 Vibration     1          0.606              1.943              3.300
 Vibration     2          0.645              1.817              1.995
 Vibration     3          0.660              1.772              1.770
 Vibration     4          0.686              1.693              1.475
 Vibration     5          0.709              1.625              1.284
 Vibration     6          0.715              1.610              1.247
 Vibration     7          0.802              1.379              0.821
 Vibration     8          0.829              1.313              0.733
 Vibration     9          0.869              1.219              0.624
 Vibration    10          0.954              1.040              0.456

 Optimization completed.
    -- Stationary point found.
 Normal termination of Gaussian 09 at Sun Aug 21 00:09:18 2022.

 -----------------------------------------------------------------
 #P Geom=AllCheck Guess=TCheck SCRF=Check CCSD(T,E4T,FrzG4)/GTBas1
 -----------------------------------------------------------------

 Structure from the checkpoint file:  "G4.Frag_1016.chk"
 ---------
 Frag_1016
 ---------
 Charge =  0 Multiplicity = 1

 SCF Done:  E(RHF) =  -321.810059600     A.U. after   12 cycles
 E2 =    -0.9046533993D+00 EUMP2 =    -0.32271471299923D+03
 CCSD(T)
 CCSD(T)= -0.32278617155D+03
 DTQ=-322.7861299\MP4SDQ=-322.7585183\CCSD=-322.7588622\CCSD(T)=-322.78
 Normal termination of Gaussian 09 at Sun Aug 21 00:14:41 2022.

 ---------------------------------------------------------
 #P Geom=AllCheck Guess=TCheck SCRF=Check MP4=FrzG4/GTBas2
 ---------------------------------------------------------

 Structure from the checkpoint file:  "G4.Frag_1016.chk"
 ---------
 Frag_1016
 ---------
 Charge =  0 Multiplicity = 1

 SCF Done:  E(RHF) =  -321.824300567     A.U. after   12 cycles
 E2 =    -0.9211782727D+00 EUMP2 =    -0.32274547883954D+03
 Normal termination of Gaussian 09 at Sun Aug 21 00:20:05 2022.

 ---------------------------------------------------------
 #P Geom=AllCheck Guess=TCheck SCRF=Check MP4=FrzG4/GTBas3
 ---------------------------------------------------------

 Structure from the checkpoint file:  "G4.Frag_1016.chk"
 ---------
 Frag_1016
 ---------
 Charge =  0 Multiplicity = 1

 SCF Done:  E(RHF) =  -321.857270500     A.U. after   11 cycles
 E2 =    -0.1113567911D+01 EUMP2 =    -0.32297083841013D+03
 Normal termination of Gaussian 09 at Sun Aug 21 02:37:09 2022.

 -----------------------------------------------------------
 #P Geom=AllCheck Guess=TCheck SCRF=Check MP2=Full/GTLargeXP
 -----------------------------------------------------------

 Structure from the checkpoint file:  "G4.Frag_1016.chk"
 ---------
 Frag_1016
 ---------
 Charge =  0 Multiplicity = 1

 SCF Done:  E(RHF) =  -321.948012957     A.U. after   12 cycles
 E2 =    -0.1457357740D+01 EUMP2 =    -0.32340537069693D+03
 Normal termination of Gaussian 09 at Sun Aug 21 02:42:31 2022.
 SCF Done:  E(RHF) =  -321.974028793     A.U. after    8 cycles
 Normal termination of Gaussian 09 at Sun Aug 21 02:47:25 2022.

                         Standard orientation:
 ---------------------------------------------------------------------
 Center     Atomic      Atomic             Coordinates (Angstroms)
 Number     Number       Type             X           Y           Z
 ---------------------------------------------------------------------
      1          6           0        2.163538    0.001546   -0.060952
      2          6           0        1.000197    0.638751   -0.012149
      3          6           0       -0.369979   -0.013106   -0.014245
      4          7           0       -0.285539   -1.439547    0.134764
      5          8           0       -1.048531    0.201606   -1.222413
      6          8           0       -1.182516    0.640455    0.977343
      7          1           0        3.105015    0.540832   -0.062873
      8          1           0        2.209852   -1.080141   -0.121256
      9          1           0        0.961035    1.726115    0.020461
     10          1           0       -1.224625   -1.819367    0.067009
     11          1           0        0.084459   -1.673370    1.049550
     12          1           0       -1.412986    1.091895   -1.169489
     13          1           0       -0.638137    0.791220    1.757894
 ---------------------------------------------------------------------

 SCF Done:  E(RHF) =  -321.979701130     A.U. after    8 cycles

 The electronic state is 1-A.
 Alpha  occ. eigenvalues --  -20.56908 -20.56326 -15.54865 -11.37785 -11.24047
 Alpha  occ. eigenvalues --  -11.23680  -1.42700  -1.33557  -1.18389  -1.05547
 Alpha  occ. eigenvalues --   -0.88805  -0.79099  -0.73799  -0.71243  -0.65117
 Alpha  occ. eigenvalues --   -0.62796  -0.61171  -0.57557  -0.55533  -0.53170
 Alpha  occ. eigenvalues --   -0.52308  -0.45876  -0.42291  -0.38426
 Alpha virt. eigenvalues --    0.03659   0.04343   0.04761   0.05664   0.06697
 Alpha virt. eigenvalues --    0.07030   0.07349   0.08163   0.08955   0.10067
 Alpha virt. eigenvalues --    0.11295   0.12237   0.13301   0.14606   0.14993

 Mulliken charges:
               1
     1  C   -0.416275
     2  C   -0.274560
     3  C    0.648296
     4  N   -0.740923
     5  O   -0.584759
     6  O   -0.605570
     7  H    0.201213
     8  H    0.212078
     9  H    0.211520
    10  H    0.306949
    11  H    0.290196
    12  H    0.380695
    13  H    0.371141
 Sum of Mulliken charges =  -0.00000

 Dipole moment (field-independent basis, Debye):
    X=              1.1584    Y=              0.8539    Z=              2.2507  Tot=              2.6714
 Quadrupole moment (field-independent basis, Debye-Ang):
   XX=            -36.1233   YY=            -33.2941   ZZ=            -37.2348
   XY=              0.7066   XZ=              1.1404   YZ=             -3.2037

 Normal termination of Gaussian 09 at Sun Aug 21 05:17:03 2022.
