 Gaussian 09, Revision E.01,
 Gaussian 09:  ES64L-G09RevE.01 30-Nov-2015

 -----
 #P G4
 -----

 --------
 Frag_955
 --------
 Symbolic Z-matrix:
 Charge =  0 Multiplicity = 1

 SCF Done:  E(RB3LYP) =  -280.520873054     A.U. after   13 cycles
 SCF Done:  E(RB3LYP) =  -280.550500246     A.U. after   13 cycles
 SCF Done:  E(RB3LYP) =  -280.556607082     A.U. after   12 cycles
 SCF Done:  E(RB3LYP) =  -280.557132161     A.U. after   10 cycles
 SCF Done:  E(RB3LYP) =  -280.557251807     A.U. after   10 cycles
 SCF Done:  E(RB3LYP) =  -280.557262514     A.U. after    9 cycles
 SCF Done:  E(RB3LYP) =  -280.557263704     A.U. after    8 cycles
 SCF Done:  E(RB3LYP) =  -280.557264397     A.U. after    7 cycles
 SCF Done:  E(RB3LYP) =  -280.559353719     A.U. after   12 cycles
 SCF Done:  E(RB3LYP) =  -280.562629662     A.U. after   13 cycles
 SCF Done:  E(RB3LYP) =  -280.565626022     A.U. after    8 cycles
 SCF Done:  E(RB3LYP) =  -280.565627345     A.U. after    8 cycles
 SCF Done:  E(RB3LYP) =  -280.565627856     A.U. after    7 cycles
 Optimization completed.
    -- Stationary point found.
 Normal termination of Gaussian 09 at Fri Aug 19 19:17:59 2022.

 ----------------------------------------------------------
 #P Geom=AllCheck Guess=TCheck SCRF=Check B3LYP/GTBas3 Freq
 ----------------------------------------------------------

 Structure from the checkpoint file:  "G4.Frag_955.chk"
 --------
 Frag_955
 --------
 Charge =  0 Multiplicity = 1

 SCF Done:  E(RB3LYP) =  -280.565627856     A.U. after    1 cycles

  Exact polarizability:  52.637   2.833  39.449   0.422  -0.144  21.740
 Approx polarizability:  77.871   7.986  59.472  -0.086   0.684  32.355

                      1                      2                      3
                      A                      A                      A
 Frequencies --    180.6442               294.2265               317.4309
 Red. masses --      1.3923                 2.4954                 2.7901
 Frc consts  --      0.0268                 0.1273                 0.1656
 IR Inten    --     82.4215                44.5362                12.2660

                      4                      5                      6
                      A                      A                      A
 Frequencies --    361.7417               421.1187               450.0347
 Red. masses --      1.2244                 1.1511                 2.6697
 Frc consts  --      0.0944                 0.1203                 0.3186
 IR Inten    --     17.9295                48.4504                 7.1374

                      7                      8                      9
                      A                      A                      A
 Frequencies --    582.8352               633.3491               732.6023
 Red. masses --      2.1371                 3.6927                 1.8768
 Frc consts  --      0.4277                 0.8727                 0.5935
 IR Inten    --     85.0231                44.1725               169.2588

                     10                     11                     12
                      A                      A                      A
 Frequencies --    813.6096               926.1069               979.0665
 Red. masses --      1.5828                 5.8433                 4.3787
 Frc consts  --      0.6173                 2.9528                 2.4730
 IR Inten    --    234.9897                16.5954                73.7758

                     13                     14                     15
                      A                      A                      A
 Frequencies --   1134.8555              1183.6418              1361.3933
 Red. masses --      1.3345                 1.4483                 1.3677
 Frc consts  --      1.0127                 1.1955                 1.4935
 IR Inten    --      4.3348                30.6925                93.2927

                     16                     17                     18
                      A                      A                      A
 Frequencies --   1468.6309              1619.3138              1630.6177
 Red. masses --      2.8630                 1.1776                 1.1988
 Frc consts  --      3.6382                 1.8194                 1.8780
 IR Inten    --     29.1259                31.9729               105.7660

                     19                     20                     21
                      A                      A                      A
 Frequencies --   1758.5953              3520.2360              3560.2596
 Red. masses --      5.3582                 1.0487                 1.0461
 Frc consts  --      9.7633                 7.6568                 7.8121
 IR Inten    --    164.9297                 8.3806                18.8009

                     22                     23                     24
                      A                      A                      A
 Frequencies --   3622.7153              3665.0058              3851.0030
 Red. masses --      1.0939                 1.0982                 1.0679
 Frc consts  --      8.4588                 8.6909                 9.3312
 IR Inten    --     15.9511                30.6192                69.5741

 - Thermochemistry -
 -------------------
 Temperature   298.150 Kelvin.  Pressure   1.00000 Atm.
 Atom     1 has atomic number  7 and mass  14.00307

 Molecular mass:    75.04326 amu.
 Principal axes and moments of inertia in atomic units:
                           1         2         3
     Eigenvalues --   178.07317 421.15126 593.01864
           X            0.99995  -0.00581   0.00758
           Y            0.00596   0.99977  -0.02046
           Z           -0.00745   0.02051   0.99976
 This molecule is an asymmetric top.
 Rotational symmetry number  1.
 Rotational temperatures (Kelvin)      0.48639     0.20566     0.14606
 Rotational constants (GHZ):          10.13483     4.28526     3.04331
 Zero-point vibrational energy     209759.4 (Joules/Mol)
                                   50.13370 (Kcal/Mol)
 Warning -- explicit consideration of   7 degrees of freedom as
           vibrations may cause significant error
 Vibrational temperatures:    259.91   423.33   456.71   520.46   605.90
          (Kelvin)            647.50   838.57   911.25  1054.05  1170.60
                             1332.46  1408.66  1632.80  1702.99  1958.74
                             2113.03  2329.83  2346.09  2530.22  5064.83
                             5122.41  5212.27  5273.12  5540.73

 Zero-point correction=                           0.079893 (Hartree/Particle)
 Thermal correction to Energy=                    0.085682
 Thermal correction to Enthalpy=                  0.086627
 Thermal correction to Gibbs Free Energy=         0.051573
 Sum of electronic and zero-point Energies=           -280.485735
 Sum of electronic and thermal Energies=              -280.479945
 Sum of electronic and thermal Enthalpies=            -280.479001
 Sum of electronic and thermal Free Energies=         -280.514055

                     E (Thermal)             CV                S
                      KCal/Mol        Cal/Mol-Kelvin    Cal/Mol-Kelvin
 Total                   53.767             20.579             73.776
 Electronic               0.000              0.000              0.000
 Translational            0.889              2.981             38.862
 Rotational               0.889              2.981             25.301
 Vibrational             51.989             14.617              9.613
 Vibration     1          0.630              1.866              2.322
 Vibration     2          0.689              1.685              1.450
 Vibration     3          0.704              1.640              1.323
 Vibration     4          0.736              1.551              1.115
 Vibration     5          0.784              1.424              0.888
 Vibration     6          0.809              1.361              0.796
 Vibration     7          0.940              1.068              0.480

 Optimization completed.
    -- Stationary point found.
 Normal termination of Gaussian 09 at Fri Aug 19 19:19:03 2022.

 -----------------------------------------------------------------
 #P Geom=AllCheck Guess=TCheck SCRF=Check CCSD(T,E4T,FrzG4)/GTBas1
 -----------------------------------------------------------------

 Structure from the checkpoint file:  "G4.Frag_955.chk"
 --------
 Frag_955
 --------
 Charge =  0 Multiplicity = 1

 SCF Done:  E(RHF) =  -278.921056284     A.U. after   13 cycles
 E2 =    -0.7946775927D+00 EUMP2 =    -0.27971573387690D+03
 CCSD(T)
 CCSD(T)= -0.27977157244D+03
 Normal termination of Gaussian 09 at Fri Aug 19 19:20:33 2022.

 ---------------------------------------------------------
 #P Geom=AllCheck Guess=TCheck SCRF=Check MP4=FrzG4/GTBas2
 ---------------------------------------------------------

 Structure from the checkpoint file:  "G4.Frag_955.chk"
 --------
 Frag_955
 --------
 Charge =  0 Multiplicity = 1

 SCF Done:  E(RHF) =  -278.933568012     A.U. after   12 cycles
 E2 =    -0.8102369557D+00 EUMP2 =    -0.27974380496787D+03
 Normal termination of Gaussian 09 at Fri Aug 19 19:22:01 2022.

 ---------------------------------------------------------
 #P Geom=AllCheck Guess=TCheck SCRF=Check MP4=FrzG4/GTBas3
 ---------------------------------------------------------

 Structure from the checkpoint file:  "G4.Frag_955.chk"
 --------
 Frag_955
 --------
 Charge =  0 Multiplicity = 1

 SCF Done:  E(RHF) =  -278.961974218     A.U. after   12 cycles
 E2 =    -0.9632570202D+00 EUMP2 =    -0.27992523123791D+03
 Normal termination of Gaussian 09 at Fri Aug 19 19:53:24 2022.

 -----------------------------------------------------------
 #P Geom=AllCheck Guess=TCheck SCRF=Check MP2=Full/GTLargeXP
 -----------------------------------------------------------

 Structure from the checkpoint file:  "G4.Frag_955.chk"
 --------
 Frag_955
 --------
 Charge =  0 Multiplicity = 1

 SCF Done:  E(RHF) =  -279.041754648     A.U. after   12 cycles
 E2 =    -0.1254977824D+01 EUMP2 =    -0.28029673247145D+03
 Normal termination of Gaussian 09 at Fri Aug 19 19:55:28 2022.
 SCF Done:  E(RHF) =  -279.064561376     A.U. after    9 cycles
 Normal termination of Gaussian 09 at Fri Aug 19 19:58:05 2022.

                         Standard orientation:
 ---------------------------------------------------------------------
 Center     Atomic      Atomic             Coordinates (Angstroms)
 Number     Number       Type             X           Y           Z
 ---------------------------------------------------------------------
      1          7           0        0.375081    1.344043    0.082411
      2          6           0        0.406303   -0.035565    0.009834
      3          7           0        1.681445   -0.594428   -0.103005
      4          7           0       -0.615509   -0.816475    0.038176
      5          8           0       -1.811231   -0.032962   -0.017760
      6          1           0        1.065167    1.799284   -0.497933
      7          1           0       -0.558486    1.709728   -0.044289
      8          1           0        2.318541   -0.244626    0.604121
      9          1           0        1.628127   -1.604981   -0.065451
     10          1           0       -2.488437   -0.714296   -0.036448
 ---------------------------------------------------------------------

 SCF Done:  E(RHF) =  -279.069336356     A.U. after    8 cycles

 The electronic state is 1-A.
 Alpha  occ. eigenvalues --  -20.57835 -15.57947 -15.57648 -15.57634 -11.34185
 Alpha  occ. eigenvalues --   -1.40091  -1.27909  -1.17372  -1.09167  -0.79954
 Alpha  occ. eigenvalues --   -0.73146  -0.71522  -0.65212  -0.63184  -0.60915
 Alpha  occ. eigenvalues --   -0.59230  -0.52022  -0.44382  -0.43708  -0.34692
 Alpha virt. eigenvalues --    0.04002   0.04766   0.05709   0.05940   0.08763
 Alpha virt. eigenvalues --    0.09148   0.10704   0.11255   0.11914   0.12707
 Alpha virt. eigenvalues --    0.13325   0.14037   0.15196   0.15303   0.16619

 Mulliken charges:
               1
     1  N   -0.726090
     2  C    0.595274
     3  N   -0.711028
     4  N   -0.378450
     5  O   -0.527117
     6  H    0.330745
     7  H    0.351586
     8  H    0.321670
     9  H    0.339751
    10  H    0.403659
 Sum of Mulliken charges =  -0.00000

 Dipole moment (field-independent basis, Debye):
    X=              1.3730    Y=              0.6824    Z=             -0.0236  Tot=              1.5334
 Quadrupole moment (field-independent basis, Debye-Ang):
   XX=            -23.8392   YY=            -26.9176   ZZ=            -32.1471
   XY=              0.6934   XZ=              2.1313   YZ=             -2.2692

 Normal termination of Gaussian 09 at Fri Aug 19 21:09:52 2022.
