 Gaussian 09, Revision E.01,
 Gaussian 09:  ES64L-G09RevE.01 30-Nov-2015

 -----
 #P G4
 -----

 ---------
 Frag_1105
 ---------
 Symbolic Z-matrix:
 Charge =  0 Multiplicity = 1

 SCF Done:  E(RB3LYP) =  -132.762838354     A.U. after   13 cycles
 SCF Done:  E(RB3LYP) =  -132.763431184     A.U. after   10 cycles
 SCF Done:  E(RB3LYP) =  -132.763435365     A.U. after    7 cycles
 Optimization completed.
    -- Stationary point found.
 Normal termination of Gaussian 09 at Fri Aug 19 08:49:47 2022.

 ----------------------------------------------------------
 #P Geom=AllCheck Guess=TCheck SCRF=Check B3LYP/GTBas3 Freq
 ----------------------------------------------------------

 Structure from the checkpoint file:  "G4.Frag_1105.chk"
 ---------
 Frag_1105
 ---------
 Charge =  0 Multiplicity = 1

 SCF Done:  E(RB3LYP) =  -132.763435365     A.U. after    1 cycles

  Exact polarizability:  34.984   0.000  19.181   0.000  -0.000  19.181
 Approx polarizability:  58.026   0.002  26.711   0.001   0.000  26.710

                      1                      2                      3
                      A                      A                      A
 Frequencies --    394.0587               394.0747               930.0850
 Red. masses --      3.7292                 3.7290                 4.5958
 Frc consts  --      0.3412                 0.3412                 2.3424
 IR Inten    --      0.7307                 0.7310                 1.2813

                      4                      5                      6
                      A                      A                      A
 Frequencies --   1060.6670              1060.6986              1408.6689
 Red. masses --      1.4583                 1.4583                 1.2316
 Frc consts  --      0.9666                 0.9666                 1.4400
 IR Inten    --      2.6662                 2.6680                 1.2881

                      7                      8                      9
                      A                      A                      A
 Frequencies --   1472.1635              1472.2345              2371.9846
 Red. masses --      1.0388                 1.0388                12.5567
 Frc consts  --      1.3265                 1.3266                41.6246
 IR Inten    --      8.6027                 8.5948                 8.4321

                     10                     11                     12
                      A                      A                      A
 Frequencies --   3054.8159              3129.7302              3129.7708
 Red. masses --      1.0340                 1.1014                 1.1014
 Frc consts  --      5.6849                 6.3563                 6.3564
 IR Inten    --      3.0765                 1.2433                 1.2436

 - Thermochemistry -
 -------------------
 Temperature   298.150 Kelvin.  Pressure   1.00000 Atm.
 Atom     1 has atomic number  6 and mass  12.00000

 Molecular mass:    41.02655 amu.
 Principal axes and moments of inertia in atomic units:
                           1         2         3
     Eigenvalues --    11.35269 195.73094 195.73140
           X            1.00000  -0.00000   0.00000
           Y            0.00000   1.00000  -0.00008
           Z           -0.00000   0.00008   1.00000
 This molecule is an asymmetric top.
 Rotational symmetry number  1.
 Rotational temperatures (Kelvin)      7.62937     0.44251     0.44251
 Rotational constants (GHZ):         158.97041     9.22052     9.22050
 Zero-point vibrational energy     118902.5 (Joules/Mol)
                                   28.41839 (Kcal/Mol)
 Warning -- explicit consideration of   2 degrees of freedom as
           vibrations may cause significant error
 Vibrational temperatures:    566.96   566.98  1338.18  1526.06  1526.11
          (Kelvin)           2026.76  2118.11  2118.21  3412.75  4395.19
                             4502.98  4503.04

 Zero-point correction=                           0.045288 (Hartree/Particle)
 Thermal correction to Energy=                    0.048875
 Thermal correction to Enthalpy=                  0.049819
 Thermal correction to Gibbs Free Energy=         0.021288
 Sum of electronic and zero-point Energies=           -132.718148
 Sum of electronic and thermal Energies=              -132.714560
 Sum of electronic and thermal Enthalpies=            -132.713616
 Sum of electronic and thermal Free Energies=         -132.742147

                     E (Thermal)             CV                S
                      KCal/Mol        Cal/Mol-Kelvin    Cal/Mol-Kelvin
 Total                   30.670             10.289             60.049
 Electronic               0.000              0.000              0.000
 Translational            0.889              2.981             37.062
 Rotational               0.889              2.981             20.703
 Vibrational             28.892              4.328              2.284
 Vibration     1          0.761              1.483              0.985
 Vibration     2          0.761              1.483              0.985

 Optimization completed.
    -- Stationary point found.
 Normal termination of Gaussian 09 at Fri Aug 19 08:49:56 2022.

 -----------------------------------------------------------------
 #P Geom=AllCheck Guess=TCheck SCRF=Check CCSD(T,E4T,FrzG4)/GTBas1
 -----------------------------------------------------------------

 Structure from the checkpoint file:  "G4.Frag_1105.chk"
 ---------
 Frag_1105
 ---------
 Charge =  0 Multiplicity = 1

 SCF Done:  E(RHF) =  -131.926119274     A.U. after   11 cycles
 E2 =    -0.4108564383D+00 EUMP2 =    -0.13233697571189D+03
 CCSD(T)
 CCSD(T)= -0.13237237897D+03
 DQ=-132.3569532\CCSD=-132.3563549\CCSD(T)=-132.372379\RMSD=3.193e-09\P
 Normal termination of Gaussian 09 at Fri Aug 19 08:50:04 2022.

 ---------------------------------------------------------
 #P Geom=AllCheck Guess=TCheck SCRF=Check MP4=FrzG4/GTBas2
 ---------------------------------------------------------

 Structure from the checkpoint file:  "G4.Frag_1105.chk"
 ---------
 Frag_1105
 ---------
 Charge =  0 Multiplicity = 1

 SCF Done:  E(RHF) =  -131.929827749     A.U. after   10 cycles
 E2 =    -0.4141470721D+00 EUMP2 =    -0.13234397482067D+03
 Normal termination of Gaussian 09 at Fri Aug 19 08:50:07 2022.

 ---------------------------------------------------------
 #P Geom=AllCheck Guess=TCheck SCRF=Check MP4=FrzG4/GTBas3
 ---------------------------------------------------------

 Structure from the checkpoint file:  "G4.Frag_1105.chk"
 ---------
 Frag_1105
 ---------
 Charge =  0 Multiplicity = 1

 SCF Done:  E(RHF) =  -131.940026346     A.U. after   10 cycles
 E2 =    -0.4893120101D+00 EUMP2 =    -0.13242933835586D+03
 Normal termination of Gaussian 09 at Fri Aug 19 08:50:18 2022.

 -----------------------------------------------------------
 #P Geom=AllCheck Guess=TCheck SCRF=Check MP2=Full/GTLargeXP
 -----------------------------------------------------------

 Structure from the checkpoint file:  "G4.Frag_1105.chk"
 ---------
 Frag_1105
 ---------
 Charge =  0 Multiplicity = 1

 SCF Done:  E(RHF) =  -131.971756703     A.U. after   11 cycles
 E2 =    -0.6471150852D+00 EUMP2 =    -0.13261887178829D+03
 Normal termination of Gaussian 09 at Fri Aug 19 08:50:30 2022.
 SCF Done:  E(RHF) =  -131.981837543     A.U. after    8 cycles
 Normal termination of Gaussian 09 at Fri Aug 19 08:50:52 2022.

                         Standard orientation:
 ---------------------------------------------------------------------
 Center     Atomic      Atomic             Coordinates (Angstroms)
 Number     Number       Type             X           Y           Z
 ---------------------------------------------------------------------
      1          6           0        1.177104   -0.000010   -0.000011
      2          6           0       -0.280433    0.000054    0.000025
      3          7           0       -1.435447   -0.000024   -0.000010
      4          1           0        1.555977   -0.883097   -0.521237
      5          1           0        1.556066    0.892918   -0.504114
      6          1           0        1.556065   -0.009920    1.025335
 ---------------------------------------------------------------------

 SCF Done:  E(RHF) =  -131.983739207     A.U. after    7 cycles

 The electronic state is 1-A.
 Alpha  occ. eigenvalues --  -15.56936 -11.28613 -11.27759  -1.22031  -1.04095
 Alpha  occ. eigenvalues --   -0.70030  -0.62977  -0.62976  -0.55672  -0.46243
 Alpha  occ. eigenvalues --   -0.46243
 Alpha virt. eigenvalues --    0.02926   0.05348   0.05348   0.05523   0.07991
 Alpha virt. eigenvalues --    0.07991   0.08104   0.13744   0.14676   0.14676
 Alpha virt. eigenvalues --    0.15320   0.16840   0.16842   0.19790   0.21054

 Mulliken charges:
               1
     1  C   -0.532669
     2  C    0.323961
     3  N   -0.449673
     4  H    0.219463
     5  H    0.219461
     6  H    0.219456
 Sum of Mulliken charges =  -0.00000

 Dipole moment (field-independent basis, Debye):
    X=              4.2578    Y=              0.0000    Z=              0.0000  Tot=              4.2578
 Quadrupole moment (field-independent basis, Debye-Ang):
   XX=            -21.0532   YY=            -17.8299   ZZ=            -17.8301
   XY=             -0.0001   XZ=              0.0000   YZ=              0.0000

 Normal termination of Gaussian 09 at Fri Aug 19 09:01:54 2022.
