 Gaussian 09, Revision E.01,
 Gaussian 09:  ES64L-G09RevE.01 30-Nov-2015

 -----
 #P G4
 -----

 --------
 Frag_894
 --------
 Symbolic Z-matrix:
 Charge =  0 Multiplicity = 1

 SCF Done:  E(RB3LYP) =  -283.945738782     A.U. after   14 cycles
 SCF Done:  E(RB3LYP) =  -283.953537903     A.U. after   12 cycles
 SCF Done:  E(RB3LYP) =  -283.954706711     A.U. after   12 cycles
 SCF Done:  E(RB3LYP) =  -283.954886157     A.U. after   11 cycles
 SCF Done:  E(RB3LYP) =  -283.954936816     A.U. after    9 cycles
 SCF Done:  E(RB3LYP) =  -283.954940228     A.U. after    8 cycles
 SCF Done:  E(RB3LYP) =  -283.954940903     A.U. after    7 cycles
 Optimization completed.
    -- Stationary point found.
 Normal termination of Gaussian 09 at Fri Aug 26 14:16:02 2022.

 ----------------------------------------------------------
 #P Geom=AllCheck Guess=TCheck SCRF=Check B3LYP/GTBas3 Freq
 ----------------------------------------------------------

 Structure from the checkpoint file:  "G4.Frag_894.chk"
 --------
 Frag_894
 --------
 Charge =  0 Multiplicity = 1

 SCF Done:  E(RB3LYP) =  -283.954940903     A.U. after    1 cycles

  Exact polarizability:  59.272  -0.000  50.155   3.247  -0.000  52.836
 Approx polarizability:  90.309  -0.001  69.287   7.691  -0.001  79.359

                      1                      2                      3
                      A                      A                      A
 Frequencies --     42.9477               205.5657               256.1795
 Red. masses --      3.0190                 1.0478                 1.2334
 Frc consts  --      0.0033                 0.0261                 0.0477
 IR Inten    --     13.2296                 3.3303                47.0667

                      4                      5                      6
                      A                      A                      A
 Frequencies --    256.6737               280.4635               325.2497
 Red. masses --      1.0431                 2.8003                 2.0143
 Frc consts  --      0.0405                 0.1298                 0.1255
 IR Inten    --      0.0362                 7.5240                 0.1084

                      7                      8                      9
                      A                      A                      A
 Frequencies --    381.5459               429.4914               432.3522
 Red. masses --      2.5676                 2.8076                 2.5369
 Frc consts  --      0.2202                 0.3051                 0.2794
 IR Inten    --      0.3272                22.7299                15.4318

                     10                     11                     12
                      A                      A                      A
 Frequencies --    566.3585               712.4165               829.8016
 Red. masses --      3.1168                 4.4730                 3.0824
 Frc consts  --      0.5890                 1.3376                 1.2505
 IR Inten    --      0.1281                 1.2378                 0.1514

                     13                     14                     15
                      A                      A                      A
 Frequencies --    889.3116               923.4853               945.8869
 Red. masses --      1.6942                 1.8684                 1.2576
 Frc consts  --      0.7894                 0.9388                 0.6629
 IR Inten    --    146.7816                19.1778                12.8270

                     16                     17                     18
                      A                      A                      A
 Frequencies --   1004.3772              1030.2203              1099.3344
 Red. masses --      1.2635                 1.4708                 1.5362
 Frc consts  --      0.7510                 0.9197                 1.0938
 IR Inten    --      1.0019                16.3618                 0.3834

                     19                     20                     21
                      A                      A                      A
 Frequencies --   1169.0518              1286.9112              1356.3604
 Red. masses --      2.0141                 3.2907                 1.7057
 Frc consts  --      1.6218                 3.2110                 1.8489
 IR Inten    --     41.6872                26.5648                 2.1363

                     22                     23                     24
                      A                      A                      A
 Frequencies --   1396.9569              1410.6392              1474.2109
 Red. masses --      1.3280                 1.2297                 1.2556
 Frc consts  --      1.5269                 1.4418                 1.6078
 IR Inten    --      8.9885                 9.6444                61.7638

                     25                     26                     27
                      A                      A                      A
 Frequencies --   1476.8009              1487.7693              1493.1261
 Red. masses --      1.0468                 1.0641                 1.0529
 Frc consts  --      1.3451                 1.3877                 1.3830
 IR Inten    --      0.2998                 0.8356                 2.5947

                     28                     29                     30
                      A                      A                      A
 Frequencies --   1505.1872              1666.1210              1677.1613
 Red. masses --      1.0645                 1.3431                 3.8645
 Frc consts  --      1.4210                 2.1967                 6.4046
 IR Inten    --     22.5816                44.6510                 3.0865

                     31                     32                     33
                      A                      A                      A
 Frequencies --   3025.7249              3039.7576              3043.9452
 Red. masses --      1.0670                 1.0352                 1.0376
 Frc consts  --      5.7552                 5.6356                 5.6646
 IR Inten    --     63.6113                21.0598                12.8196

                     34                     35                     36
                      A                      A                      A
 Frequencies --   3109.4045              3111.9294              3129.1146
 Red. masses --      1.1014                 1.1007                 1.1016
 Frc consts  --      6.2741                 6.2803                 6.3550
 IR Inten    --     10.0104                32.9451                 1.9647

                     37                     38                     39
                      A                      A                      A
 Frequencies --   3133.3966              3478.4214              3553.0428
 Red. masses --      1.1008                 1.0493                 1.0914
 Frc consts  --      6.3680                 7.4803                 8.1175
 IR Inten    --     22.1319                 0.5175                 0.2506

 - Thermochemistry -
 -------------------
 Temperature   298.150 Kelvin.  Pressure   1.00000 Atm.
 Atom     1 has atomic number  6 and mass  12.00000

 Molecular mass:    87.07965 amu.
 Principal axes and moments of inertia in atomic units:
                           1         2         3
     Eigenvalues --   392.19027 612.27538 624.40321
           X            0.99886   0.00000   0.04776
           Y           -0.00000   1.00000   0.00004
           Z           -0.04776  -0.00004   0.99886
 This molecule is an asymmetric top.
 Rotational symmetry number  1.
 Rotational temperatures (Kelvin)      0.22085     0.14146     0.13871
 Rotational constants (GHZ):           4.60170     2.94760     2.89035
 Zero-point vibrational energy     338762.7 (Joules/Mol)
                                   80.96622 (Kcal/Mol)
 Warning -- explicit consideration of  10 degrees of freedom as
           vibrations may cause significant error
 Vibrational temperatures:     61.79   295.76   368.58   369.30   403.52
          (Kelvin)            467.96   548.96   617.94   622.06   814.86
                             1025.01  1193.90  1279.52  1328.69  1360.92
                             1445.07  1482.26  1581.70  1682.00  1851.58
                             1951.50  2009.91  2029.59  2121.06  2124.78
                             2140.57  2148.27  2165.63  2397.17  2413.06
                             4353.34  4373.53  4379.55  4473.73  4477.37
                             4502.09  4508.25  5004.67  5112.03

 Zero-point correction=                           0.129028 (Hartree/Particle)
 Thermal correction to Energy=                    0.136628
 Thermal correction to Enthalpy=                  0.137572
 Thermal correction to Gibbs Free Energy=         0.097773
 Sum of electronic and zero-point Energies=           -283.825913
 Sum of electronic and thermal Energies=              -283.818313
 Sum of electronic and thermal Enthalpies=            -283.817369
 Sum of electronic and thermal Free Energies=         -283.857168

                     E (Thermal)             CV                S
                      KCal/Mol        Cal/Mol-Kelvin    Cal/Mol-Kelvin
 Total                   85.735             27.048             83.766
 Electronic               0.000              0.000              0.000
 Translational            0.889              2.981             39.306
 Rotational               0.889              2.981             26.508
 Vibrational             83.958             21.087             17.952
 Vibration     1          0.595              1.980              5.118
 Vibration     2          0.640              1.832              2.083
 Vibration     3          0.666              1.752              1.688
 Vibration     4          0.666              1.752              1.684
 Vibration     5          0.680              1.710              1.531
 Vibration     6          0.709              1.625              1.284
 Vibration     7          0.751              1.510              1.033
 Vibration     8          0.791              1.406              0.860
 Vibration     9          0.793              1.400              0.851
 Vibration    10          0.922              1.104              0.511

 Optimization completed.
    -- Stationary point found.
 Normal termination of Gaussian 09 at Fri Aug 26 14:16:39 2022.

 -----------------------------------------------------------------
 #P Geom=AllCheck Guess=TCheck SCRF=Check CCSD(T,E4T,FrzG4)/GTBas1
 -----------------------------------------------------------------

 Structure from the checkpoint file:  "G4.Frag_894.chk"
 --------
 Frag_894
 --------
 Charge =  0 Multiplicity = 1

 SCF Done:  E(RHF) =  -282.118039773     A.U. after   13 cycles
 E2 =    -0.8872911237D+00 EUMP2 =    -0.28300533089705D+03
 CCSD(T)
 CCSD(T)= -0.28309150304D+03
 602347\CCSD(T)=-283.091503\RMSD=3.718e-09\PG=C01 [X(C3H9N3)]\\@
 Normal termination of Gaussian 09 at Fri Aug 26 14:18:49 2022.

 ---------------------------------------------------------
 #P Geom=AllCheck Guess=TCheck SCRF=Check MP4=FrzG4/GTBas2
 ---------------------------------------------------------

 Structure from the checkpoint file:  "G4.Frag_894.chk"
 --------
 Frag_894
 --------
 Charge =  0 Multiplicity = 1

 SCF Done:  E(RHF) =  -282.126587397     A.U. after   13 cycles
 E2 =    -0.8996837104D+00 EUMP2 =    -0.28302627110752D+03
 Normal termination of Gaussian 09 at Fri Aug 26 14:19:28 2022.

 ---------------------------------------------------------
 #P Geom=AllCheck Guess=TCheck SCRF=Check MP4=FrzG4/GTBas3
 ---------------------------------------------------------

 Structure from the checkpoint file:  "G4.Frag_894.chk"
 --------
 Frag_894
 --------
 Charge =  0 Multiplicity = 1

 SCF Done:  E(RHF) =  -282.156009879     A.U. after   11 cycles
 E2 =    -0.1079623376D+01 EUMP2 =    -0.28323563325421D+03
 Normal termination of Gaussian 09 at Fri Aug 26 14:23:32 2022.

 -----------------------------------------------------------
 #P Geom=AllCheck Guess=TCheck SCRF=Check MP2=Full/GTLargeXP
 -----------------------------------------------------------

 Structure from the checkpoint file:  "G4.Frag_894.chk"
 --------
 Frag_894
 --------
 Charge =  0 Multiplicity = 1

 SCF Done:  E(RHF) =  -282.225126577     A.U. after   11 cycles
 E2 =    -0.1410198424D+01 EUMP2 =    -0.28363532500029D+03
 Normal termination of Gaussian 09 at Fri Aug 26 14:25:37 2022.
 SCF Done:  E(RHF) =  -282.246923786     A.U. after    9 cycles
 Normal termination of Gaussian 09 at Fri Aug 26 14:27:57 2022.

                         Standard orientation:
 ---------------------------------------------------------------------
 Center     Atomic      Atomic             Coordinates (Angstroms)
 Number     Number       Type             X           Y           Z
 ---------------------------------------------------------------------
      1          6           0       -0.410424   -1.273851    0.836649
      2          6           0       -0.352808    0.000001   -0.013208
      3          6           0       -0.410356    1.273751    0.836805
      4          7           0       -1.474257    0.000085   -0.934413
      5          7           0        0.943718    0.000055   -0.819070
      6          7           0        2.031144   -0.000030   -0.240863
      7          1           0       -0.353956   -2.162521    0.199670
      8          1           0        0.414207   -1.318013    1.554220
      9          1           0       -1.352370   -1.302493    1.388710
     10          1           0        0.414273    1.317765    1.554387
     11          1           0       -1.352310    1.302385    1.388853
     12          1           0       -0.353819    2.162497    0.199936
     13          1           0       -1.404538   -0.809881   -1.545750
     14          1           0       -1.404484    0.810113   -1.545663
     15          1           0        1.930294   -0.000025    0.804584
 ---------------------------------------------------------------------

 SCF Done:  E(RHF) =  -282.251471485     A.U. after    8 cycles

 The electronic state is 1-A.
 Alpha  occ. eigenvalues --  -15.62413 -15.61917 -15.54956 -11.30761 -11.23294
 Alpha  occ. eigenvalues --  -11.23292  -1.35903  -1.20830  -1.03558  -0.95885
 Alpha  occ. eigenvalues --   -0.91777  -0.78735  -0.71138  -0.67250  -0.63451
 Alpha  occ. eigenvalues --   -0.58159  -0.57474  -0.55554  -0.55122  -0.52388
 Alpha  occ. eigenvalues --   -0.51902  -0.47189  -0.43635  -0.37113
 Alpha virt. eigenvalues --    0.03084   0.04018   0.04831   0.05497   0.06582
 Alpha virt. eigenvalues --    0.06891   0.07483   0.07900   0.08273   0.09939
 Alpha virt. eigenvalues --    0.10651   0.10872   0.12121   0.13065   0.13295

 Mulliken charges:
               1
     1  C   -0.550483
     2  C    0.400478
     3  C   -0.550489
     4  N   -0.716976
     5  N   -0.131563
     6  N   -0.349190
     7  H    0.175389
     8  H    0.168161
     9  H    0.190877
    10  H    0.168159
    11  H    0.190877
    12  H    0.175391
    13  H    0.289896
    14  H    0.289897
    15  H    0.249577
 Sum of Mulliken charges =  -0.00000

 Dipole moment (field-independent basis, Debye):
    X=             -1.1347    Y=             -0.0001    Z=              1.8118  Tot=              2.1378
 Quadrupole moment (field-independent basis, Debye-Ang):
   XX=            -46.7868   YY=            -35.8549   ZZ=            -36.9765
   XY=              0.0001   XZ=              5.0622   YZ=             -0.0000

 Normal termination of Gaussian 09 at Fri Aug 26 14:36:04 2022.
