 Gaussian 09, Revision E.01,
 Gaussian 09:  ES64L-G09RevE.01 30-Nov-2015

 -----
 #P G4
 -----

 ---------
 Frag_1026
 ---------
 Symbolic Z-matrix:
 Charge =  0 Multiplicity = 1

 SCF Done:  E(RB3LYP) =  -344.399254548     A.U. after   12 cycles
 SCF Done:  E(RB3LYP) =  -344.405893622     A.U. after   11 cycles
 SCF Done:  E(RB3LYP) =  -344.406571488     A.U. after   10 cycles
 SCF Done:  E(RB3LYP) =  -344.406873919     A.U. after   10 cycles
 SCF Done:  E(RB3LYP) =  -344.406935870     A.U. after   10 cycles
 SCF Done:  E(RB3LYP) =  -344.406965917     A.U. after    9 cycles
 SCF Done:  E(RB3LYP) =  -344.406974934     A.U. after    8 cycles
 SCF Done:  E(RB3LYP) =  -344.406976111     A.U. after    7 cycles
 Optimization completed.
    -- Stationary point found.
 Normal termination of Gaussian 09 at Fri Aug 26 07:01:05 2022.

 ----------------------------------------------------------
 #P Geom=AllCheck Guess=TCheck SCRF=Check B3LYP/GTBas3 Freq
 ----------------------------------------------------------

 Structure from the checkpoint file:  "G4.Frag_1026.chk"
 ---------
 Frag_1026
 ---------
 Charge =  0 Multiplicity = 1

 SCF Done:  E(RB3LYP) =  -344.406976111     A.U. after    1 cycles

  Exact polarizability:  67.639   0.197  62.933   0.001   0.389  59.323
 Approx polarizability:  89.313   1.214  88.041   0.785   1.974  88.159

                      1                      2                      3
                      A                      A                      A
 Frequencies --     68.3986               157.6802               210.3051
 Red. masses --      2.5912                 1.1450                 1.1038
 Frc consts  --      0.0071                 0.0168                 0.0288
 IR Inten    --      4.4291                15.3004                 0.9063

                      4                      5                      6
                      A                      A                      A
 Frequencies --    248.3628               258.2742               274.2709
 Red. masses --      1.1872                 2.1139                 1.8668
 Frc consts  --      0.0431                 0.0831                 0.0827
 IR Inten    --      8.4258                 6.6866                 7.2646

                      7                      8                      9
                      A                      A                      A
 Frequencies --    303.3873               342.2644               363.7543
 Red. masses --      1.4456                 2.1811                 1.6418
 Frc consts  --      0.0784                 0.1505                 0.1280
 IR Inten    --     19.8941                14.5532                20.6818

                     10                     11                     12
                      A                      A                      A
 Frequencies --    414.9773               477.1691               499.8704
 Red. masses --      2.2131                 2.0360                 2.7059
 Frc consts  --      0.2245                 0.2731                 0.3984
 IR Inten    --     24.2941                29.9948                39.4656

                     13                     14                     15
                      A                      A                      A
 Frequencies --    541.4765               585.3529               732.8017
 Red. masses --      3.2567                 2.8339                 3.1079
 Frc consts  --      0.5626                 0.5721                 0.9833
 IR Inten    --      1.1926                 9.0409                 6.1298

                     16                     17                     18
                      A                      A                      A
 Frequencies --    852.5042               878.6968               907.3576
 Red. masses --      1.5526                 1.7199                 1.9440
 Frc consts  --      0.6648                 0.7824                 0.9430
 IR Inten    --    109.6545               113.6656                73.6433

                     19                     20                     21
                      A                      A                      A
 Frequencies --    931.4388               965.5936               981.2771
 Red. masses --      1.1884                 1.3939                 2.0464
 Frc consts  --      0.6074                 0.7657                 1.1610
 IR Inten    --      0.1844                 1.7125               119.1913

                     22                     23                     24
                      A                      A                      A
 Frequencies --   1011.9192              1064.9435              1123.4055
 Red. masses --      2.0238                 2.0788                 1.9086
 Frc consts  --      1.2210                 1.3890                 1.4192
 IR Inten    --     48.4165                37.4507                 9.5299

                     25                     26                     27
                      A                      A                      A
 Frequencies --   1160.1887              1195.7681              1244.7224
 Red. masses --      1.6448                 1.9506                 1.5744
 Frc consts  --      1.3044                 1.6433                 1.4372
 IR Inten    --     16.4036                 7.2146                99.8149

                     28                     29                     30
                      A                      A                      A
 Frequencies --   1298.7646              1344.8181              1366.4896
 Red. masses --      1.8568                 1.3973                 1.5545
 Frc consts  --      1.8453                 1.4889                 1.7102
 IR Inten    --     14.2826                 0.8772                47.1532

                     31                     32                     33
                      A                      A                      A
 Frequencies --   1396.5741              1412.6993              1431.7615
 Red. masses --      1.2704                 1.3794                 1.5322
 Frc consts  --      1.4599                 1.6219                 1.8505
 IR Inten    --      0.7553                 4.3595                29.4235

                     34                     35                     36
                      A                      A                      A
 Frequencies --   1487.1254              1490.4120              1507.5786
 Red. masses --      1.0487                 1.0447                 1.0463
 Frc consts  --      1.3665                 1.3672                 1.4011
 IR Inten    --      2.0755                 0.2332                 3.3647

                     37                     38                     39
                      A                      A                      A
 Frequencies --   1516.0708              1636.3641              1657.1018
 Red. masses --      1.0635                 1.1094                 1.1111
 Frc consts  --      1.4402                 1.7503                 1.7976
 IR Inten    --     10.9580                32.2497                33.7538

                     40                     41                     42
                      A                      A                      A
 Frequencies --   3017.3363              3027.9323              3041.4719
 Red. masses --      1.0826                 1.0371                 1.0395
 Frc consts  --      5.8073                 5.6021                 5.6654
 IR Inten    --     18.1262                27.0664                28.1415

                     43                     44                     45
                      A                      A                      A
 Frequencies --   3091.6876              3100.6838              3109.8945
 Red. masses --      1.0998                 1.0999                 1.0983
 Frc consts  --      6.1938                 6.2306                 6.2582
 IR Inten    --     31.0838                23.2277                36.6782

                     46                     47                     48
                      A                      A                      A
 Frequencies --   3141.4318              3476.6158              3486.8181
 Red. masses --      1.0997                 1.0503                 1.0491
 Frc consts  --      6.3941                 7.4794                 7.5151
 IR Inten    --     14.1732                 0.3947                 0.0625

                     49                     50                     51
                      A                      A                      A
 Frequencies --   3569.0208              3572.4079              3791.3322
 Red. masses --      1.0916                 1.0908                 1.0650
 Frc consts  --      8.1923                 8.2017                 9.0198
 IR Inten    --      0.6957                 0.1332                21.6606

 - Thermochemistry -
 -------------------
 Temperature   298.150 Kelvin.  Pressure   1.00000 Atm.
 Atom     1 has atomic number  6 and mass  12.00000

 Molecular mass:   104.09496 amu.
 Principal axes and moments of inertia in atomic units:
                           1         2         3
     Eigenvalues --   557.81221 794.99907 958.90746
           X            0.99977  -0.02099  -0.00492
           Y            0.02097   0.99977  -0.00347
           Z            0.00499   0.00337   0.99998
 This molecule is an asymmetric top.
 Rotational symmetry number  1.
 Warning -- assumption of classical behavior for rotation
           may cause significant error
 Rotational temperatures (Kelvin)      0.15527     0.10895     0.09033
 Rotational constants (GHZ):           3.23539     2.27012     1.88208
 Zero-point vibrational energy     447215.3 (Joules/Mol)
                                  106.88701 (Kcal/Mol)
 Warning -- explicit consideration of  14 degrees of freedom as
           vibrations may cause significant error
 Vibrational temperatures:     98.41   226.87   302.58   357.34   371.60
          (Kelvin)            394.61   436.51   492.44   523.36   597.06
                              686.54   719.20   779.06   842.19  1054.34
                             1226.56  1264.25  1305.48  1340.13  1389.27
                             1411.84  1455.92  1532.21  1616.33  1669.25
                             1720.44  1790.88  1868.63  1934.89  1966.07
                             2009.36  2032.56  2059.98  2139.64  2144.37
                             2169.07  2181.29  2354.36  2384.20  4341.27
                             4356.51  4375.99  4448.24  4461.19  4474.44
                             4519.81  5002.07  5016.75  5135.02  5139.89
                             5454.87

 Zero-point correction=                           0.170335 (Hartree/Particle)
 Thermal correction to Energy=                    0.179431
 Thermal correction to Enthalpy=                  0.180375
 Thermal correction to Gibbs Free Energy=         0.137711
 Sum of electronic and zero-point Energies=           -344.236641
 Sum of electronic and thermal Energies=              -344.227545
 Sum of electronic and thermal Enthalpies=            -344.226601
 Sum of electronic and thermal Free Energies=         -344.269265

                     E (Thermal)             CV                S
                      KCal/Mol        Cal/Mol-Kelvin    Cal/Mol-Kelvin
 Total                  112.595             34.171             89.794
 Electronic               0.000              0.000              0.000
 Translational            0.889              2.981             39.838
 Rotational               0.889              2.981             27.544
 Vibrational            110.817             28.209             22.412
 Vibration     1          0.598              1.969              4.199
 Vibration     2          0.621              1.894              2.577
 Vibration     3          0.642              1.825              2.041
 Vibration     4          0.662              1.765              1.742
 Vibration     5          0.667              1.749              1.673
 Vibration     6          0.677              1.721              1.569
 Vibration     7          0.695              1.667              1.398
 Vibration     8          0.721              1.591              1.202
 Vibration     9          0.737              1.547              1.106
 Vibration    10          0.778              1.438              0.909
 Vibration    11          0.834              1.301              0.718
 Vibration    12          0.855              1.250              0.658
 Vibration    13          0.897              1.158              0.562
 Vibration    14          0.942              1.063              0.476

 Normal termination of Gaussian 09 at Fri Aug 26 07:02:03 2022.

 -----------------------------------------------------------------
 #P Geom=AllCheck Guess=TCheck SCRF=Check CCSD(T,E4T,FrzG4)/GTBas1
 -----------------------------------------------------------------

 Structure from the checkpoint file:  "G4.Frag_1026.chk"
 ---------
 Frag_1026
 ---------
 Charge =  0 Multiplicity = 1

 SCF Done:  E(RHF) =  -342.203900024     A.U. after   12 cycles
 E2 =    -0.1039547747D+01 EUMP2 =    -0.34324344777122D+03
 CCSD(T)
 CCSD(T)= -0.34334058360D+03
 96293\MP4SDQ=-343.3090686\CCSD=-343.3100123\CCSD(T)=-343.3405836\RMSD=
 Normal termination of Gaussian 09 at Fri Aug 26 07:06:57 2022.

 ---------------------------------------------------------
 #P Geom=AllCheck Guess=TCheck SCRF=Check MP4=FrzG4/GTBas2
 ---------------------------------------------------------

 Structure from the checkpoint file:  "G4.Frag_1026.chk"
 ---------
 Frag_1026
 ---------
 Charge =  0 Multiplicity = 1

 SCF Done:  E(RHF) =  -342.215475742     A.U. after   12 cycles
 E2 =    -0.1057247304D+01 EUMP2 =    -0.34327272304589D+03
 Normal termination of Gaussian 09 at Fri Aug 26 07:08:31 2022.

 ---------------------------------------------------------
 #P Geom=AllCheck Guess=TCheck SCRF=Check MP4=FrzG4/GTBas3
 ---------------------------------------------------------

 Structure from the checkpoint file:  "G4.Frag_1026.chk"
 ---------
 Frag_1026
 ---------
 Charge =  0 Multiplicity = 1

 SCF Done:  E(RHF) =  -342.255843767     A.U. after   10 cycles
 E2 =    -0.1290063193D+01 EUMP2 =    -0.34354590696016D+03
 Normal termination of Gaussian 09 at Fri Aug 26 07:22:25 2022.

 -----------------------------------------------------------
 #P Geom=AllCheck Guess=TCheck SCRF=Check MP2=Full/GTLargeXP
 -----------------------------------------------------------

 Structure from the checkpoint file:  "G4.Frag_1026.chk"
 ---------
 Frag_1026
 ---------
 Charge =  0 Multiplicity = 1

 SCF Done:  E(RHF) =  -342.343431638     A.U. after   12 cycles
 E2 =    -0.1684644104D+01 EUMP2 =    -0.34402807574196D+03
 Normal termination of Gaussian 09 at Fri Aug 26 07:27:07 2022.
 SCF Done:  E(RHF) =  -342.370319246     A.U. after    8 cycles
 Normal termination of Gaussian 09 at Fri Aug 26 07:31:24 2022.

                         Standard orientation:
 ---------------------------------------------------------------------
 Center     Atomic      Atomic             Coordinates (Angstroms)
 Number     Number       Type             X           Y           Z
 ---------------------------------------------------------------------
      1          6           0        1.551519    1.299920   -0.041276
      2          6           0        0.836395    0.004979   -0.450846
      3          6           0        1.617785   -1.228099    0.023109
      4          6           0       -0.647045   -0.041948    0.005988
      5          7           0       -0.728723   -0.025835    1.460456
      6          7           0       -1.503057    1.012655   -0.562012
      7          8           0       -1.162971   -1.257926   -0.490835
      8          1           0        1.702897    1.355626    1.043315
      9          1           0        1.007102    2.195431   -0.358821
     10          1           0        2.544184    1.342710   -0.499808
     11          1           0        0.786740   -0.022443   -1.547416
     12          1           0        1.666968   -1.256966    1.115274
     13          1           0        2.640498   -1.207591   -0.368633
     14          1           0        1.134305   -2.146169   -0.314282
     15          1           0       -0.251271    0.788195    1.835711
     16          1           0       -1.705065    0.057763    1.732313
     17          1           0       -1.356423    1.077600   -1.567064
     18          1           0       -1.273498    1.918039   -0.165076
     19          1           0       -2.122133   -1.155642   -0.489793
 ---------------------------------------------------------------------

 SCF Done:  E(RHF) =  -342.376315374     A.U. after    8 cycles

 The electronic state is 1-A.
 Alpha  occ. eigenvalues --  -20.54909 -15.54992 -15.54108 -11.33976 -11.22803
 Alpha  occ. eigenvalues --  -11.22061 -11.19922  -1.38067  -1.20533  -1.13336
 Alpha  occ. eigenvalues --   -1.06044  -0.92815  -0.87247  -0.76424  -0.69769
 Alpha  occ. eigenvalues --   -0.69169  -0.66577  -0.63286  -0.59639  -0.58316
 Alpha  occ. eigenvalues --   -0.54762  -0.54229  -0.53053  -0.49971  -0.48183
 Alpha  occ. eigenvalues --   -0.46924  -0.46268  -0.41488  -0.40584
 Alpha virt. eigenvalues --    0.03070   0.04192   0.04542   0.04693   0.06447
 Alpha virt. eigenvalues --    0.06576   0.07072   0.07483   0.07990   0.09639
 Alpha virt. eigenvalues --    0.10234   0.10621   0.10712   0.11419   0.11856

 Mulliken charges:
               1
     1  C   -0.570951
     2  C    0.024915
     3  C   -0.553943
     4  C    0.490643
     5  N   -0.743474
     6  N   -0.758782
     7  O   -0.608586
     8  H    0.163116
     9  H    0.154506
    10  H    0.177267
    11  H    0.141571
    12  H    0.178650
    13  H    0.155570
    14  H    0.189416
    15  H    0.288390
    16  H    0.298304
    17  H    0.299414
    18  H    0.294648
    19  H    0.379328
 Sum of Mulliken charges =  -0.00000

 Dipole moment (field-independent basis, Debye):
    X=             -0.0914    Y=              2.7511    Z=             -0.2915  Tot=              2.7680
 Quadrupole moment (field-independent basis, Debye-Ang):
   XX=            -44.0166   YY=            -46.3340   ZZ=            -44.3531
   XY=              0.4493   XZ=             -1.0162   YZ=              1.2453

 Normal termination of Gaussian 09 at Fri Aug 26 07:45:48 2022.
