 Gaussian 09, Revision E.01,
 Gaussian 09:  ES64L-G09RevE.01 30-Nov-2015

 -----
 #P G4
 -----

 --------
 Frag_772
 --------
 Symbolic Z-matrix:
 Charge =  0 Multiplicity = 1

 SCF Done:  E(RB3LYP) =  -153.495162689     A.U. after   10 cycles
 SCF Done:  E(RB3LYP) =  -153.497188322     A.U. after   10 cycles
 SCF Done:  E(RB3LYP) =  -153.497200343     A.U. after    7 cycles
 Optimization completed.
    -- Stationary point found.
 Normal termination of Gaussian 09 at Fri Aug 26 08:53:41 2022.

 ----------------------------------------------------------
 #P Geom=AllCheck Guess=TCheck SCRF=Check B3LYP/GTBas3 Freq
 ----------------------------------------------------------

 Structure from the checkpoint file:  "G4.Frag_772.chk"
 --------
 Frag_772
 --------
 Charge =  0 Multiplicity = 1

 SCF Done:  E(RB3LYP) =  -153.497200343     A.U. after    1 cycles

  Exact polarizability:  17.729   0.000  17.729   0.000   0.000  80.126
 Approx polarizability:  24.892   0.000  24.892  -0.000   0.000 171.636

                      1                      2                      3
                     PIU                    PIU                    PIG
 Frequencies --    241.7461               241.7461               541.7539
 Red. masses --      3.9662                 3.9662                10.0163
 Frc consts  --      0.1366                 0.1366                 1.7321
 IR Inten    --      5.0373                 5.0373                 0.0000

                      4                      5                      6
                     PIG                    PIU                    PIU
 Frequencies --    541.7539               602.6004               602.6004
 Red. masses --     10.0163                 1.2710                 1.2710
 Frc consts  --      1.7321                 0.2719                 0.2719
 IR Inten    --      0.0000                77.9507                77.9507

                      7                      8                      9
                     PIG                    PIG                    SGG
 Frequencies --    626.7323               626.7323               921.5469
 Red. masses --      1.1960                 1.1960                 6.9809
 Frc consts  --      0.2768                 0.2768                 3.4930
 IR Inten    --      0.0000                 0.0000                 0.0000

                     10                     11                     12
                     SGU                    SGG                    SGG
 Frequencies --   2126.6476              2307.5608              3505.7421
 Red. masses --      5.7139                 6.6790                 1.1548
 Frc consts  --     15.2257                20.9539                 8.3623
 IR Inten    --      0.1989                 0.0000                 0.0000

                     13
                     SGU
 Frequencies --   3507.1038
 Red. masses --      1.1575
 Frc consts  --      8.3882
 IR Inten    --    182.8438

 - Thermochemistry -
 -------------------
 Temperature   298.150 Kelvin.  Pressure   1.00000 Atm.
 Atom     1 has atomic number  6 and mass  12.00000

 Molecular mass:    50.01565 amu.
 Principal axes and moments of inertia in atomic units:
                           1         2         3
     Eigenvalues --     0.00000 407.74484 407.74484
           X           -0.00000   0.99995  -0.01032
           Y           -0.00000   0.01032   0.99995
           Z            1.00000   0.00000  -0.00000
 This molecule is a prolate symmetric top.
 Rotational symmetry number  2.
 Rotational temperature (Kelvin)      0.21242
 Rotational constant (GHZ):           4.426153
 Zero-point vibrational energy      98059.5 (Joules/Mol)
                                   23.43678 (Kcal/Mol)
 Warning -- explicit consideration of   6 degrees of freedom as
           vibrations may cause significant error
 Vibrational temperatures:    347.82   347.82   779.46   779.46   867.01
          (Kelvin)            867.01   901.73   901.73  1325.90  3059.77
                             3320.06  5043.97  5045.93

 Zero-point correction=                           0.037349 (Hartree/Particle)
 Thermal correction to Energy=                    0.041755
 Thermal correction to Enthalpy=                  0.042699
 Thermal correction to Gibbs Free Energy=         0.014572
 Sum of electronic and zero-point Energies=           -153.459851
 Sum of electronic and thermal Energies=              -153.455446
 Sum of electronic and thermal Enthalpies=            -153.454501
 Sum of electronic and thermal Free Energies=         -153.482628

                     E (Thermal)             CV                S
                      KCal/Mol        Cal/Mol-Kelvin    Cal/Mol-Kelvin
 Total                   26.201             15.322             59.198
 Electronic               0.000              0.000              0.000
 Translational            0.889              2.981             37.653
 Rotational               0.592              1.987             15.011
 Vibrational             24.720             10.354              6.535
 Vibration     1          0.658              1.776              1.790
 Vibration     2          0.658              1.776              1.790
 Vibration     3          0.897              1.158              0.562
 Vibration     4          0.897              1.158              0.562
 Vibration     5          0.961              1.026              0.445
 Vibration     6          0.961              1.026              0.445

 Optimization completed.
    -- Stationary point found.
 Normal termination of Gaussian 09 at Fri Aug 26 08:53:49 2022.

 -----------------------------------------------------------------
 #P Geom=AllCheck Guess=TCheck SCRF=Check CCSD(T,E4T,FrzG4)/GTBas1
 -----------------------------------------------------------------

 Structure from the checkpoint file:  "G4.Frag_772.chk"
 --------
 Frag_772
 --------
 Charge =  0 Multiplicity = 1

 SCF Done:  E(RHF) =  -152.495677966     A.U. after   10 cycles
 E2 =    -0.4957267817D+00 EUMP2 =    -0.15299140474757D+03
 CCSD(T)
 CCSD(T)= -0.15303368423D+03
 83109\CCSD=-153.0083972\CCSD(T)=-153.0336842\RMSD=3.266e-09\PG=D*H [C*
 Normal termination of Gaussian 09 at Fri Aug 26 08:54:18 2022.

 ---------------------------------------------------------
 #P Geom=AllCheck Guess=TCheck SCRF=Check MP4=FrzG4/GTBas2
 ---------------------------------------------------------

 Structure from the checkpoint file:  "G4.Frag_772.chk"
 --------
 Frag_772
 --------
 Charge =  0 Multiplicity = 1

 SCF Done:  E(RHF) =  -152.503096193     A.U. after   11 cycles
 E2 =    -0.4976977746D+00 EUMP2 =    -0.15300079396739D+03
 Normal termination of Gaussian 09 at Fri Aug 26 08:54:39 2022.

 ---------------------------------------------------------
 #P Geom=AllCheck Guess=TCheck SCRF=Check MP4=FrzG4/GTBas3
 ---------------------------------------------------------

 Structure from the checkpoint file:  "G4.Frag_772.chk"
 --------
 Frag_772
 --------
 Charge =  0 Multiplicity = 1

 SCF Done:  E(RHF) =  -152.514176325     A.U. after    9 cycles
 E2 =    -0.5795404992D+00 EUMP2 =    -0.15309371682394D+03
 Normal termination of Gaussian 09 at Fri Aug 26 08:55:36 2022.

 -----------------------------------------------------------
 #P Geom=AllCheck Guess=TCheck SCRF=Check MP2=Full/GTLargeXP
 -----------------------------------------------------------

 Structure from the checkpoint file:  "G4.Frag_772.chk"
 --------
 Frag_772
 --------
 Charge =  0 Multiplicity = 1

 SCF Done:  E(RHF) =  -152.548676427     A.U. after   10 cycles
 E2 =    -0.7777376249D+00 EUMP2 =    -0.15332641405239D+03
 Normal termination of Gaussian 09 at Fri Aug 26 08:55:43 2022.
 SCF Done:  E(RHF) =  -152.560321758     A.U. after    8 cycles
 Normal termination of Gaussian 09 at Fri Aug 26 08:55:48 2022.

                         Standard orientation:
 ---------------------------------------------------------------------
 Center     Atomic      Atomic             Coordinates (Angstroms)
 Number     Number       Type             X           Y           Z
 ---------------------------------------------------------------------
      1          6           0        0.000000   -0.000000    1.887658
      2          6           0        0.000000   -0.000000    0.680904
      3          6           0        0.000000    0.000000   -0.680904
      4          6           0        0.000000    0.000000   -1.887658
      5          1           0        0.000000   -0.000000    2.949476
      6          1           0        0.000000    0.000000   -2.949476
 ---------------------------------------------------------------------

 SCF Done:  E(RHF) =  -152.562317677     A.U. after    7 cycles

 The electronic state is 1-SGG.
 Alpha  occ. eigenvalues --  -11.26567 -11.26447 -11.25765 -11.25756  -1.09366
 Alpha  occ. eigenvalues --   -1.02139  -0.85382  -0.73406  -0.70696  -0.49425
 Alpha  occ. eigenvalues --   -0.49425  -0.37030  -0.37030
 Alpha virt. eigenvalues --    0.03438   0.04167   0.05764   0.05764   0.06829
 Alpha virt. eigenvalues --    0.07124   0.07124   0.08661   0.09820   0.09820
 Alpha virt. eigenvalues --    0.12662   0.12662   0.13343   0.13794   0.15015

 Mulliken charges:
               1
     1  C   -0.473443
     2  C    0.209585
     3  C    0.209585
     4  C   -0.473443
     5  H    0.263858
     6  H    0.263858
 Sum of Mulliken charges =  -0.00000

 Dipole moment (field-independent basis, Debye):
    X=              0.0000    Y=             -0.0000    Z=              0.0000  Tot=              0.0000
 Quadrupole moment (field-independent basis, Debye-Ang):
   XX=            -25.2913   YY=            -25.2913   ZZ=            -11.1380
   XY=             -0.0000   XZ=             -0.0000   YZ=             -0.0000

 Normal termination of Gaussian 09 at Fri Aug 26 08:56:11 2022.
