 Gaussian 09, Revision E.01,
 Gaussian 09:  ES64L-G09RevE.01 30-Nov-2015

 -----
 #P G4
 -----

 --------
 Frag_532
 --------
 Symbolic Z-matrix:
 Charge =  0 Multiplicity = 1

 SCF Done:  E(RB3LYP) =  -265.642486636     A.U. after   15 cycles
 SCF Done:  E(RB3LYP) =  -265.651438253     A.U. after   12 cycles
 SCF Done:  E(RB3LYP) =  -265.653316895     A.U. after   14 cycles
 SCF Done:  E(RB3LYP) =  -265.654098785     A.U. after   12 cycles
 SCF Done:  E(RB3LYP) =  -265.654372713     A.U. after   11 cycles
 SCF Done:  E(RB3LYP) =  -265.654595158     A.U. after   11 cycles
 SCF Done:  E(RB3LYP) =  -265.654760407     A.U. after   11 cycles
 SCF Done:  E(RB3LYP) =  -265.654935138     A.U. after   11 cycles
 SCF Done:  E(RB3LYP) =  -265.655042902     A.U. after   10 cycles
 SCF Done:  E(RB3LYP) =  -265.655096951     A.U. after   11 cycles
 SCF Done:  E(RB3LYP) =  -265.655119294     A.U. after    9 cycles
 SCF Done:  E(RB3LYP) =  -265.655119436     A.U. after    7 cycles
 SCF Done:  E(RB3LYP) =  -265.655119469     A.U. after    7 cycles
 Optimization completed.
    -- Stationary point found.
 Normal termination of Gaussian 09 at Fri Aug 26 07:45:31 2022.

 ----------------------------------------------------------
 #P Geom=AllCheck Guess=TCheck SCRF=Check B3LYP/GTBas3 Freq
 ----------------------------------------------------------

 Structure from the checkpoint file:  "G4.Frag_532.chk"
 --------
 Frag_532
 --------
 Charge =  0 Multiplicity = 1

 SCF Done:  E(RB3LYP) =  -265.655119469     A.U. after    1 cycles

  Exact polarizability:  58.152   0.478  42.277   2.704   1.012  41.138
 Approx polarizability:  77.406   3.885  60.941   4.950   5.507  63.696

                      1                      2                      3
                      A                      A                      A
 Frequencies --    129.3751               156.4644               246.1272
 Red. masses --      3.0886                 1.1147                 1.1085
 Frc consts  --      0.0305                 0.0161                 0.0396
 IR Inten    --     15.2574                92.2762                 1.6722

                      4                      5                      6
                      A                      A                      A
 Frequencies --    264.9677               332.1900               413.4420
 Red. masses --      1.0748                 2.4577                 2.8110
 Frc consts  --      0.0445                 0.1598                 0.2831
 IR Inten    --      1.1109                19.3153                12.5295

                      7                      8                      9
                      A                      A                      A
 Frequencies --    467.5226               563.4094               800.1860
 Red. masses --      2.8988                 3.3966                 2.6901
 Frc consts  --      0.3733                 0.6352                 1.0149
 IR Inten    --     20.8099                10.3217                27.3636

                     10                     11                     12
                      A                      A                      A
 Frequencies --    864.3523               967.8285              1041.8622
 Red. masses --      4.2057                 1.7072                 2.3396
 Frc consts  --      1.8513                 0.9422                 1.4963
 IR Inten    --      5.1134                13.2082                67.9256

                     13                     14                     15
                      A                      A                      A
 Frequencies --   1086.6728              1107.1392              1135.4116
 Red. masses --      1.5466                 1.3807                 2.3960
 Frc consts  --      1.0760                 0.9972                 1.8199
 IR Inten    --     25.5721                54.1733               122.7334

                     16                     17                     18
                      A                      A                      A
 Frequencies --   1218.1974              1306.1093              1356.4765
 Red. masses --      2.2273                 1.1760                 1.2828
 Frc consts  --      1.9474                 1.1820                 1.3907
 IR Inten    --      7.2268                72.1794                48.0487

                     19                     20                     21
                      A                      A                      A
 Frequencies --   1382.2238              1418.6510              1475.9034
 Red. masses --      1.2495                 1.3599                 1.0653
 Frc consts  --      1.4066                 1.6125                 1.3672
 IR Inten    --      8.0536                68.3872                 3.3591

                     22                     23                     24
                      A                      A                      A
 Frequencies --   1488.6953              1504.3494              1597.5435
 Red. masses --      1.0875                 1.1364                 1.0628
 Frc consts  --      1.4200                 1.5152                 1.5981
 IR Inten    --      8.8609                43.5699                19.0366

                     25                     26                     27
                      A                      A                      A
 Frequencies --   1669.4645              2610.3748              2975.1008
 Red. masses --      1.0506                 1.0742                 1.0892
 Frc consts  --      1.7252                 4.3124                 5.6804
 IR Inten    --     36.6252               254.0739                77.6079

                     28                     29                     30
                      A                      A                      A
 Frequencies --   2998.5130              3048.2335              3060.9872
 Red. masses --      1.0376                 1.0930                 1.0448
 Frc consts  --      5.4965                 5.9836                 5.7677
 IR Inten    --     26.4883               137.6746               123.5157

                     31                     32                     33
                      A                      A                      A
 Frequencies --   3107.4989              3493.9842              3829.7346
 Red. masses --      1.0990                 1.0762                 1.0658
 Frc consts  --      6.2529                 7.7408                 9.2104
 IR Inten    --     26.5458                35.2905                 9.5640

 - Thermochemistry -
 -------------------
 Temperature   298.150 Kelvin.  Pressure   1.00000 Atm.
 Atom     1 has atomic number  6 and mass  12.00000

 Molecular mass:    76.06366 amu.
 Principal axes and moments of inertia in atomic units:
                           1         2         3
     Eigenvalues --   223.45742 479.97172 635.50473
           X            0.99932  -0.03436   0.01315
           Y            0.03458   0.99926  -0.01667
           Z           -0.01257   0.01711   0.99977
 This molecule is an asymmetric top.
 Rotational symmetry number  1.
 Rotational temperatures (Kelvin)      0.38761     0.18046     0.13629
 Rotational constants (GHZ):           8.07644     3.76010     2.83985
 Zero-point vibrational energy     293796.8 (Joules/Mol)
                                   70.21912 (Kcal/Mol)
 Warning -- explicit consideration of   8 degrees of freedom as
           vibrations may cause significant error
 Vibrational temperatures:    186.14   225.12   354.12   381.23   477.95
          (Kelvin)            594.85   672.66   810.62  1151.29  1243.61
                             1392.49  1499.01  1563.48  1592.92  1633.60
                             1752.71  1879.20  1951.66  1988.71  2041.12
                             2123.49  2141.90  2164.42  2298.51  2401.98
                             3755.74  4280.50  4314.19  4385.72  4404.07
                             4470.99  5027.06  5510.13

 Zero-point correction=                           0.111901 (Hartree/Particle)
 Thermal correction to Energy=                    0.118469
 Thermal correction to Enthalpy=                  0.119413
 Thermal correction to Gibbs Free Energy=         0.082403
 Sum of electronic and zero-point Energies=           -265.543218
 Sum of electronic and thermal Energies=              -265.536651
 Sum of electronic and thermal Enthalpies=            -265.535706
 Sum of electronic and thermal Free Energies=         -265.572716

                     E (Thermal)             CV                S
                      KCal/Mol        Cal/Mol-Kelvin    Cal/Mol-Kelvin
 Total                   74.340             22.539             77.894
 Electronic               0.000              0.000              0.000
 Translational            0.889              2.981             38.903
 Rotational               0.889              2.981             25.725
 Vibrational             72.563             16.577             13.267
 Vibration     1          0.612              1.924              2.955
 Vibration     2          0.620              1.895              2.592
 Vibration     3          0.661              1.769              1.758
 Vibration     4          0.671              1.737              1.629
 Vibration     5          0.714              1.611              1.249
 Vibration     6          0.777              1.441              0.915
 Vibration     7          0.825              1.322              0.745
 Vibration     8          0.919              1.110              0.517

 Optimization completed.
    -- Stationary point found.
 Normal termination of Gaussian 09 at Fri Aug 26 07:45:54 2022.

 -----------------------------------------------------------------
 #P Geom=AllCheck Guess=TCheck SCRF=Check CCSD(T,E4T,FrzG4)/GTBas1
 -----------------------------------------------------------------

 Structure from the checkpoint file:  "G4.Frag_532.chk"
 --------
 Frag_532
 --------
 Charge =  0 Multiplicity = 1

 SCF Done:  E(RHF) =  -264.007082337     A.U. after   13 cycles
 E2 =    -0.7760537563D+00 EUMP2 =    -0.26478313609289D+03
 CCSD(T)
 CCSD(T)= -0.26485146443D+03
 6\MP4SDTQ=-264.8506906\MP4SDQ=-264.828119\CCSD=-264.8288985\CCSD(T)=-2
 Normal termination of Gaussian 09 at Fri Aug 26 07:47:05 2022.

 ---------------------------------------------------------
 #P Geom=AllCheck Guess=TCheck SCRF=Check MP4=FrzG4/GTBas2
 ---------------------------------------------------------

 Structure from the checkpoint file:  "G4.Frag_532.chk"
 --------
 Frag_532
 --------
 Charge =  0 Multiplicity = 1

 SCF Done:  E(RHF) =  -264.020547947     A.U. after   13 cycles
 E2 =    -0.7910811065D+00 EUMP2 =    -0.26481162905324D+03
 Normal termination of Gaussian 09 at Fri Aug 26 07:47:24 2022.

 ---------------------------------------------------------
 #P Geom=AllCheck Guess=TCheck SCRF=Check MP4=FrzG4/GTBas3
 ---------------------------------------------------------

 Structure from the checkpoint file:  "G4.Frag_532.chk"
 --------
 Frag_532
 --------
 Charge =  0 Multiplicity = 1

 SCF Done:  E(RHF) =  -264.047704275     A.U. after   12 cycles
 E2 =    -0.9591616183D+00 EUMP2 =    -0.26500686589378D+03
 Normal termination of Gaussian 09 at Fri Aug 26 07:49:09 2022.

 -----------------------------------------------------------
 #P Geom=AllCheck Guess=TCheck SCRF=Check MP2=Full/GTLargeXP
 -----------------------------------------------------------

 Structure from the checkpoint file:  "G4.Frag_532.chk"
 --------
 Frag_532
 --------
 Charge =  0 Multiplicity = 1

 SCF Done:  E(RHF) =  -264.124389909     A.U. after   13 cycles
 E2 =    -0.1249019726D+01 EUMP2 =    -0.26537340963522D+03
 Normal termination of Gaussian 09 at Fri Aug 26 07:50:16 2022.
 SCF Done:  E(RHF) =  -264.145548596     A.U. after   10 cycles
 Normal termination of Gaussian 09 at Fri Aug 26 07:51:33 2022.

                         Standard orientation:
 ---------------------------------------------------------------------
 Center     Atomic      Atomic             Coordinates (Angstroms)
 Number     Number       Type             X           Y           Z
 ---------------------------------------------------------------------
      1          6           0       -0.885386    1.321389   -0.104668
      2          6           0       -0.403279   -0.103616    0.252462
      3          8           0       -1.437639   -1.042995    0.026824
      4          7           0        0.718210   -0.565393   -0.506146
      5          7           0        1.862253    0.016065    0.110988
      6          1           0       -0.080701    2.057205    0.029769
      7          1           0       -1.719583    1.654073    0.528118
      8          1           0       -1.190866    1.344135   -1.155234
      9          1           0       -0.150969   -0.087453    1.356615
     10          1           0       -2.276662   -0.575370    0.070850
     11          1           0        1.912521   -0.127115    1.148733
     12          1           0        1.994573    1.044424   -0.010768
     13          1           0        2.681545   -0.427283   -0.303336
 ---------------------------------------------------------------------

 SCF Done:  E(RHF) =  -264.150357960     A.U. after    9 cycles

 The electronic state is 1-A.
 Alpha  occ. eigenvalues --  -20.53000 -15.69575 -15.48600 -11.28503 -11.20756
 Alpha  occ. eigenvalues --   -1.34876  -1.31338  -1.05648  -0.95293  -0.80509
 Alpha  occ. eigenvalues --   -0.74575  -0.73638  -0.66787  -0.62195  -0.58781
 Alpha  occ. eigenvalues --   -0.54018  -0.51765  -0.49121  -0.43954  -0.39107
 Alpha  occ. eigenvalues --   -0.29883
 Alpha virt. eigenvalues --    0.02255   0.04043   0.04858   0.06051   0.07325
 Alpha virt. eigenvalues --    0.07535   0.07824   0.08537   0.09717   0.11007
 Alpha virt. eigenvalues --    0.13345   0.14232   0.15139   0.15816   0.16665

 Mulliken charges:
               1
     1  C   -0.547619
     2  C    0.250728
     3  O   -0.576405
     4  N   -0.600350
     5  N   -0.420592
     6  H    0.121497
     7  H    0.155328
     8  H    0.194873
     9  H    0.055681
    10  H    0.354814
    11  H    0.319100
    12  H    0.324845
    13  H    0.368103
 Sum of Mulliken charges =  -0.00000

 Dipole moment (field-independent basis, Debye):
    X=              3.7011    Y=              3.8363    Z=              2.5804  Tot=              5.9223
 Quadrupole moment (field-independent basis, Debye-Ang):
   XX=            -16.8143   YY=            -37.1553   ZZ=            -34.1854
   XY=             -0.2285   XZ=              2.1864   YZ=             -1.5111

 Normal termination of Gaussian 09 at Fri Aug 26 07:56:29 2022.
