 Gaussian 09, Revision E.01,
 Gaussian 09:  ES64L-G09RevE.01 30-Nov-2015

 -----
 #P G4
 -----

 --------
 Frag_792
 --------
 Symbolic Z-matrix:
 Charge =  0 Multiplicity = 1

 SCF Done:  E(RB3LYP) =  -324.850862634     A.U. after   12 cycles
 SCF Done:  E(RB3LYP) =  -324.859874285     A.U. after   11 cycles
 SCF Done:  E(RB3LYP) =  -324.861536464     A.U. after   12 cycles
 SCF Done:  E(RB3LYP) =  -324.861963268     A.U. after   11 cycles
 SCF Done:  E(RB3LYP) =  -324.862057380     A.U. after   11 cycles
 SCF Done:  E(RB3LYP) =  -324.862078938     A.U. after   10 cycles
 SCF Done:  E(RB3LYP) =  -324.862083435     A.U. after    8 cycles
 SCF Done:  E(RB3LYP) =  -324.862084364     A.U. after    7 cycles
 SCF Done:  E(RB3LYP) =  -324.862085058     A.U. after    7 cycles
 SCF Done:  E(RB3LYP) =  -324.862085602     A.U. after    7 cycles
 SCF Done:  E(RB3LYP) =  -324.862085742     A.U. after    6 cycles
 Optimization completed.
    -- Stationary point found.
 Normal termination of Gaussian 09 at Fri Aug 26 06:18:57 2022.

 ----------------------------------------------------------
 #P Geom=AllCheck Guess=TCheck SCRF=Check B3LYP/GTBas3 Freq
 ----------------------------------------------------------

 Structure from the checkpoint file:  "G4.Frag_792.chk"
 --------
 Frag_792
 --------
 Charge =  0 Multiplicity = 1

 SCF Done:  E(RB3LYP) =  -324.862085742     A.U. after    1 cycles

  Exact polarizability:  55.871  -0.462  50.997  -1.212  -1.711  46.134
 Approx polarizability:  72.437  -0.038  71.045  -2.473  -5.368  68.807

                      1                      2                      3
                      A                      A                      A
 Frequencies --    110.5716               202.9322               227.8826
 Red. masses --      2.9861                 1.1042                 1.0353
 Frc consts  --      0.0215                 0.0268                 0.0317
 IR Inten    --      0.7475                 0.4088                 5.0115

                      4                      5                      6
                      A                      A                      A
 Frequencies --    250.5241               276.5796               292.1581
 Red. masses --      1.2248                 2.6688                 3.3158
 Frc consts  --      0.0453                 0.1203                 0.1668
 IR Inten    --     28.9087                13.0735                 9.6049

                      7                      8                      9
                      A                      A                      A
 Frequencies --    354.8064               392.2516               482.8878
 Red. masses --      2.1366                 1.2435                 3.7129
 Frc consts  --      0.1585                 0.1127                 0.5101
 IR Inten    --     10.0652                92.1951                 5.6486

                     10                     11                     12
                      A                      A                      A
 Frequencies --    554.8467               625.3452               780.5133
 Red. masses --      3.8791                 3.4784                 3.4838
 Frc consts  --      0.7036                 0.8014                 1.2504
 IR Inten    --      6.6996                 4.3455                 6.9704

                     13                     14                     15
                      A                      A                      A
 Frequencies --    867.8952               895.4830               933.4900
 Red. masses --      5.0723                 2.8088                 1.1821
 Frc consts  --      2.2511                 1.3270                 0.6069
 IR Inten    --    110.1682                21.0379                 1.9690

                     16                     17                     18
                      A                      A                      A
 Frequencies --    954.9904              1012.6137              1146.9772
 Red. masses --      1.5097                 4.0018                 2.0936
 Frc consts  --      0.8112                 2.4176                 1.6227
 IR Inten    --      2.1988                36.1266                11.4655

                     19                     20                     21
                      A                      A                      A
 Frequencies --   1164.1427              1203.5954              1339.8490
 Red. masses --      2.0459                 1.9066                 1.1834
 Frc consts  --      1.6336                 1.6273                 1.2516
 IR Inten    --      6.6274                 5.4325                49.0686

                     22                     23                     24
                      A                      A                      A
 Frequencies --   1350.9054              1365.9480              1392.3762
 Red. masses --      1.2685                 1.2450                 1.2707
 Frc consts  --      1.3639                 1.3686                 1.4514
 IR Inten    --     24.6097                 7.6699                12.9421

                     25                     26                     27
                      A                      A                      A
 Frequencies --   1410.6144              1431.3146              1480.8084
 Red. masses --      1.2519                 1.3170                 1.0476
 Frc consts  --      1.4677                 1.5897                 1.3535
 IR Inten    --     14.8584                20.8411                 1.3218

                     28                     29                     30
                      A                      A                      A
 Frequencies --   1493.3249              1496.4126              1516.7368
 Red. masses --      1.0485                 1.0454                 1.0575
 Frc consts  --      1.3776                 1.3792                 1.4333
 IR Inten    --      1.7669                 5.0281                 3.9093

                     31                     32                     33
                      A                      A                      A
 Frequencies --   3043.7237              3052.5004              3057.8797
 Red. masses --      1.0350                 1.0380                 1.0831
 Frc consts  --      5.6492                 5.6987                 5.9670
 IR Inten    --     19.4649                17.4686                12.1447

                     34                     35                     36
                      A                      A                      A
 Frequencies --   3114.6247              3120.6597              3127.1388
 Red. masses --      1.1015                 1.0999                 1.1007
 Frc consts  --      6.2958                 6.3107                 6.3417
 IR Inten    --     21.2630                10.3925                33.3406

                     37                     38                     39
                      A                      A                      A
 Frequencies --   3143.4558              3798.9334              3802.5359
 Red. masses --      1.1018                 1.0680                 1.0680
 Frc consts  --      6.4147                 9.0809                 9.0988
 IR Inten    --     15.2415                34.0173                37.3981

 - Thermochemistry -
 -------------------
 Temperature   298.150 Kelvin.  Pressure   1.00000 Atm.
 Atom     1 has atomic number  6 and mass  12.00000

 Molecular mass:    91.06333 amu.
 Principal axes and moments of inertia in atomic units:
                           1         2         3
     Eigenvalues --   384.91287 616.69558 722.11948
           X            0.99993  -0.01081  -0.00369
           Y            0.01104   0.99735   0.07189
           Z            0.00290  -0.07193   0.99741
 This molecule is an asymmetric top.
 Rotational symmetry number  1.
 Rotational temperatures (Kelvin)      0.22502     0.14045     0.11994
 Rotational constants (GHZ):           4.68870     2.92647     2.49923
 Zero-point vibrational energy     336570.7 (Joules/Mol)
                                   80.44233 (Kcal/Mol)
 Warning -- explicit consideration of  10 degrees of freedom as
           vibrations may cause significant error
 Vibrational temperatures:    159.09   291.97   327.87   360.45   397.94
          (Kelvin)            420.35   510.49   564.36   694.77   798.30
                              899.73  1122.98  1248.71  1288.40  1343.08
                             1374.02  1456.92  1650.24  1674.94  1731.70
                             1927.74  1943.65  1965.29  2003.32  2029.56
                             2059.34  2130.55  2148.56  2153.00  2182.24
                             4379.23  4391.86  4399.60  4481.24  4489.93
                             4499.25  4522.73  5465.81  5470.99

 Zero-point correction=                           0.128193 (Hartree/Particle)
 Thermal correction to Energy=                    0.135875
 Thermal correction to Enthalpy=                  0.136820
 Thermal correction to Gibbs Free Energy=         0.097375
 Sum of electronic and zero-point Energies=           -324.733893
 Sum of electronic and thermal Energies=              -324.726210
 Sum of electronic and thermal Enthalpies=            -324.725266
 Sum of electronic and thermal Free Energies=         -324.764711

                     E (Thermal)             CV                S
                      KCal/Mol        Cal/Mol-Kelvin    Cal/Mol-Kelvin
 Total                   85.263             27.793             83.018
 Electronic               0.000              0.000              0.000
 Translational            0.889              2.981             39.439
 Rotational               0.889              2.981             26.641
 Vibrational             83.486             21.831             16.938
 Vibration     1          0.606              1.941              3.259
 Vibration     2          0.639              1.836              2.106
 Vibration     3          0.651              1.798              1.896
 Vibration     4          0.663              1.762              1.727
 Vibration     5          0.678              1.717              1.555
 Vibration     6          0.688              1.688              1.461
 Vibration     7          0.731              1.565              1.145
 Vibration     8          0.760              1.487              0.992
 Vibration     9          0.839              1.288              0.702
 Vibration    10          0.910              1.129              0.534

 Optimization completed.
    -- Stationary point found.
 Normal termination of Gaussian 09 at Fri Aug 26 06:19:31 2022.

 -----------------------------------------------------------------
 #P Geom=AllCheck Guess=TCheck SCRF=Check CCSD(T,E4T,FrzG4)/GTBas1
 -----------------------------------------------------------------

 Structure from the checkpoint file:  "G4.Frag_792.chk"
 --------
 Frag_792
 --------
 Charge =  0 Multiplicity = 1

 SCF Done:  E(RHF) =  -322.891838539     A.U. after   13 cycles
 E2 =    -0.9268360714D+00 EUMP2 =    -0.32381867461090D+03
 CCSD(T)
 CCSD(T)= -0.32389920825D+03
 23.8713926\CCSD(T)=-323.8992083\RMSD=2.350e-09\PG=C01 [X(C3H9N1O2)]\\@
 Normal termination of Gaussian 09 at Fri Aug 26 06:21:59 2022.

 ---------------------------------------------------------
 #P Geom=AllCheck Guess=TCheck SCRF=Check MP4=FrzG4/GTBas2
 ---------------------------------------------------------

 Structure from the checkpoint file:  "G4.Frag_792.chk"
 --------
 Frag_792
 --------
 Charge =  0 Multiplicity = 1

 SCF Done:  E(RHF) =  -322.901657946     A.U. after   12 cycles
 E2 =    -0.9428910031D+00 EUMP2 =    -0.32384454894874D+03
 Normal termination of Gaussian 09 at Fri Aug 26 06:22:42 2022.

 ---------------------------------------------------------
 #P Geom=AllCheck Guess=TCheck SCRF=Check MP4=FrzG4/GTBas3
 ---------------------------------------------------------

 Structure from the checkpoint file:  "G4.Frag_792.chk"
 --------
 Frag_792
 --------
 Charge =  0 Multiplicity = 1

 SCF Done:  E(RHF) =  -322.935153291     A.U. after   12 cycles
 E2 =    -0.1148875027D+01 EUMP2 =    -0.32408402831859D+03
 Normal termination of Gaussian 09 at Fri Aug 26 06:27:05 2022.

 -----------------------------------------------------------
 #P Geom=AllCheck Guess=TCheck SCRF=Check MP2=Full/GTLargeXP
 -----------------------------------------------------------

 Structure from the checkpoint file:  "G4.Frag_792.chk"
 --------
 Frag_792
 --------
 Charge =  0 Multiplicity = 1

 SCF Done:  E(RHF) =  -323.021016679     A.U. after   12 cycles
 E2 =    -0.1496225002D+01 EUMP2 =    -0.32451724168109D+03
 Normal termination of Gaussian 09 at Fri Aug 26 06:29:10 2022.
 SCF Done:  E(RHF) =  -323.048205742     A.U. after    9 cycles
 Normal termination of Gaussian 09 at Fri Aug 26 06:31:28 2022.

                         Standard orientation:
 ---------------------------------------------------------------------
 Center     Atomic      Atomic             Coordinates (Angstroms)
 Number     Number       Type             X           Y           Z
 ---------------------------------------------------------------------
      1          6           0       -0.803275    1.344442    0.637336
      2          6           0       -0.625847    0.259267   -0.429645
      3          6           0       -1.730628   -0.795519   -0.389449
      4          7           0        0.683792   -0.436164   -0.369109
      5          8           0        1.661851    0.595217   -0.513898
      6          8           0        0.810263   -0.917587    0.973979
      7          1           0       -1.746461    1.873547    0.469881
      8          1           0       -0.827459    0.906157    1.637756
      9          1           0        0.011811    2.069188    0.594636
     10          1           0       -0.612646    0.727048   -1.419537
     11          1           0       -1.753292   -1.292058    0.584055
     12          1           0       -2.703633   -0.325200   -0.559234
     13          1           0       -1.574686   -1.554599   -1.161602
     14          1           0        2.364439    0.151390   -1.001961
     15          1           0        1.236965   -1.772499    0.849669
 ---------------------------------------------------------------------

 SCF Done:  E(RHF) =  -323.053998359     A.U. after    7 cycles

 The electronic state is 1-A.
 Alpha  occ. eigenvalues --  -20.58959 -20.58921 -15.67109 -11.25947 -11.21297
 Alpha  occ. eigenvalues --  -11.20479  -1.45710  -1.34134  -1.11328  -0.97597
 Alpha  occ. eigenvalues --   -0.93135  -0.78744  -0.71454  -0.70742  -0.65276
 Alpha  occ. eigenvalues --   -0.60303  -0.60066  -0.55611  -0.55104  -0.53179
 Alpha  occ. eigenvalues --   -0.49495  -0.48567  -0.48512  -0.47597  -0.40461
 Alpha virt. eigenvalues --    0.03741   0.04599   0.04746   0.05148   0.07371
 Alpha virt. eigenvalues --    0.07551   0.07774   0.08126   0.08257   0.10430
 Alpha virt. eigenvalues --    0.11571   0.11743   0.12762   0.14370   0.15167

 Mulliken charges:
               1
     1  C   -0.548221
     2  C    0.105572
     3  C   -0.573736
     4  N    0.066816
     5  O   -0.534648
     6  O   -0.536168
     7  H    0.164348
     8  H    0.185700
     9  H    0.189488
    10  H    0.163386
    11  H    0.183573
    12  H    0.166509
    13  H    0.174575
    14  H    0.394039
    15  H    0.398767
 Sum of Mulliken charges =  -0.00000

 Dipole moment (field-independent basis, Debye):
    X=              0.1956    Y=             -1.3237    Z=             -1.1207  Tot=              1.7454
 Quadrupole moment (field-independent basis, Debye-Ang):
   XX=            -33.3688   YY=            -35.9520   ZZ=            -38.5670
   XY=             -4.0028   XZ=             -1.8270   YZ=             -0.9877

 Normal termination of Gaussian 09 at Fri Aug 26 06:38:19 2022.
