 Gaussian 09, Revision E.01,
 Gaussian 09:  ES64L-G09RevE.01 30-Nov-2015

 -----
 #P G4
 -----

 ---------
 Frag_1003
 ---------
 Symbolic Z-matrix:
 Charge =  0 Multiplicity = 1

 SCF Done:  E(RB3LYP) =  -193.071709457     A.U. after   13 cycles
 SCF Done:  E(RB3LYP) =  -193.114044262     A.U. after   11 cycles
 SCF Done:  E(RB3LYP) =  -193.132602738     A.U. after   12 cycles
 SCF Done:  E(RB3LYP) =  -193.138177406     A.U. after   11 cycles
 SCF Done:  E(RB3LYP) =  -193.138698438     A.U. after   10 cycles
 SCF Done:  E(RB3LYP) =  -193.138775715     A.U. after    9 cycles
 SCF Done:  E(RB3LYP) =  -193.139118249     A.U. after   11 cycles
 SCF Done:  E(RB3LYP) =  -193.097892941     A.U. after   12 cycles
 SCF Done:  E(RB3LYP) =  -193.139221328     A.U. after    7 cycles
 SCF Done:  E(RB3LYP) =  -193.116239133     A.U. after   12 cycles
 SCF Done:  E(RB3LYP) =  -193.142265002     A.U. after    7 cycles
 SCF Done:  E(RB3LYP) =  -193.142267168     A.U. after    8 cycles
 SCF Done:  E(RB3LYP) =  -193.142267546     A.U. after    8 cycles
 Optimization completed.
    -- Stationary point found.
 Normal termination of Gaussian 09 at Tue Aug 30 09:25:13 2022.

 ----------------------------------------------------------
 #P Geom=AllCheck Guess=TCheck SCRF=Check B3LYP/GTBas3 Freq
 ----------------------------------------------------------

 Structure from the checkpoint file:  "G4.Frag_1003.chk"
 ---------
 Frag_1003
 ---------
 Charge =  0 Multiplicity = 1

 SCF Done:  E(RB3LYP) =  -193.142267546     A.U. after    1 cycles

  Exact polarizability:  53.764  -5.417  35.984  -0.002  -0.000  24.033
 Approx polarizability:  74.218 -11.443  52.945  -0.004   0.002  34.383

                      1                      2                      3
                      A                      A                      A
 Frequencies --    189.7702               221.5740               290.1528
 Red. masses --      1.7568                 1.0997                 2.7308
 Frc consts  --      0.0373                 0.0318                 0.1355
 IR Inten    --     42.4972                33.1977                 0.4052

                      4                      5                      6
                      A                      A                      A
 Frequencies --    312.4175               538.8857               818.7805
 Red. masses --      1.6398                 4.2116                 1.6873
 Frc consts  --      0.0943                 0.7206                 0.6665
 IR Inten    --     33.2173                12.2539                 1.7227

                      7                      8                      9
                      A                      A                      A
 Frequencies --    927.0887               967.9652              1064.6726
 Red. masses --      1.5380                 1.0898                 1.4453
 Frc consts  --      0.7788                 0.6016                 0.9653
 IR Inten    --      3.1111                29.6950                 0.2886

                     10                     11                     12
                      A                      A                      A
 Frequencies --   1108.9323              1165.5621              1228.8948
 Red. masses --      2.2140                 2.3612                 1.5000
 Frc consts  --      1.6041                 1.8899                 1.3347
 IR Inten    --     25.6690                53.1691               181.5517

                     13                     14                     15
                      A                      A                      A
 Frequencies --   1350.8748              1373.1259              1419.3272
 Red. masses --      1.2728                 1.2917                 1.2853
 Frc consts  --      1.3685                 1.4349                 1.5255
 IR Inten    --     27.9142                 9.8307                 4.0707

                     16                     17                     18
                      A                      A                      A
 Frequencies --   1479.0698              1501.5529              1771.8341
 Red. masses --      1.0442                 1.0500                 5.1730
 Frc consts  --      1.3459                 1.3949                 9.5684
 IR Inten    --      4.1724                 3.6129                60.1327

                     19                     20                     21
                      A                      A                      A
 Frequencies --   3012.7571              3056.4643              3092.4320
 Red. masses --      1.0367                 1.0996                 1.0988
 Frc consts  --      5.5444                 6.0523                 6.1913
 IR Inten    --     43.6762                28.8078                22.9354

                     22                     23                     24
                      A                      A                      A
 Frequencies --   3135.9855              3161.8194              3865.6025
 Red. masses --      1.0914                 1.0884                 1.0668
 Frc consts  --      6.3241                 6.4110                 9.3924
 IR Inten    --     23.6954                16.2970                74.9449

 - Thermochemistry -
 -------------------
 Temperature   298.150 Kelvin.  Pressure   1.00000 Atm.
 Atom     1 has atomic number  6 and mass  12.00000

 Molecular mass:    58.04186 amu.
 Principal axes and moments of inertia in atomic units:
                           1         2         3
     Eigenvalues --    42.69590 461.15988 492.71684
           X            0.99993  -0.01148  -0.00002
           Y            0.01148   0.99993  -0.00003
           Z            0.00002   0.00003   1.00000
 This molecule is an asymmetric top.
 Rotational symmetry number  1.
 Rotational temperatures (Kelvin)      2.02862     0.18782     0.17579
 Rotational constants (GHZ):          42.26966     3.91348     3.66284
 Zero-point vibrational energy     221641.4 (Joules/Mol)
                                   52.97356 (Kcal/Mol)
 Warning -- explicit consideration of   5 degrees of freedom as
           vibrations may cause significant error
 Vibrational temperatures:    273.04   318.80   417.46   449.50   775.34
          (Kelvin)           1178.04  1333.87  1392.68  1531.82  1595.50
                             1676.98  1768.10  1943.61  1975.62  2042.09
                             2128.05  2160.40  2549.27  4334.68  4397.56
                             4449.31  4511.98  4549.15  5561.73

 Zero-point correction=                           0.084419 (Hartree/Particle)
 Thermal correction to Energy=                    0.089677
 Thermal correction to Enthalpy=                  0.090621
 Thermal correction to Gibbs Free Energy=         0.057277
 Sum of electronic and zero-point Energies=           -193.057849
 Sum of electronic and thermal Energies=              -193.052591
 Sum of electronic and thermal Enthalpies=            -193.051647
 Sum of electronic and thermal Free Energies=         -193.084991

                     E (Thermal)             CV                S
                      KCal/Mol        Cal/Mol-Kelvin    Cal/Mol-Kelvin
 Total                   56.273             17.151             70.179
 Electronic               0.000              0.000              0.000
 Translational            0.889              2.981             38.096
 Rotational               0.889              2.981             23.788
 Vibrational             54.496             11.189              8.294
 Vibration     1          0.633              1.854              2.230
 Vibration     2          0.648              1.808              1.946
 Vibration     3          0.686              1.692              1.473
 Vibration     4          0.701              1.650              1.349
 Vibration     5          0.894              1.164              0.568

 Optimization completed.
    -- Stationary point found.
 Normal termination of Gaussian 09 at Tue Aug 30 09:25:50 2022.

 -----------------------------------------------------------------
 #P Geom=AllCheck Guess=TCheck SCRF=Check CCSD(T,E4T,FrzG4)/GTBas1
 -----------------------------------------------------------------

 Structure from the checkpoint file:  "G4.Frag_1003.chk"
 ---------
 Frag_1003
 ---------
 Charge =  0 Multiplicity = 1

 SCF Done:  E(RHF) =  -191.921850426     A.U. after   12 cycles
 E2 =    -0.5629104228D+00 EUMP2 =    -0.19248476084910D+03
 CCSD(T)
 CCSD(T)= -0.19254087842D+03
 Normal termination of Gaussian 09 at Tue Aug 30 09:26:16 2022.

 ---------------------------------------------------------
 #P Geom=AllCheck Guess=TCheck SCRF=Check MP4=FrzG4/GTBas2
 ---------------------------------------------------------

 Structure from the checkpoint file:  "G4.Frag_1003.chk"
 ---------
 Frag_1003
 ---------
 Charge =  0 Multiplicity = 1

 SCF Done:  E(RHF) =  -191.928824795     A.U. after   12 cycles
 E2 =    -0.5704799112D+00 EUMP2 =    -0.19249930470663D+03
 Normal termination of Gaussian 09 at Tue Aug 30 09:26:30 2022.

 ---------------------------------------------------------
 #P Geom=AllCheck Guess=TCheck SCRF=Check MP4=FrzG4/GTBas3
 ---------------------------------------------------------

 Structure from the checkpoint file:  "G4.Frag_1003.chk"
 ---------
 Frag_1003
 ---------
 Charge =  0 Multiplicity = 1

 SCF Done:  E(RHF) =  -191.949956925     A.U. after   11 cycles
 E2 =    -0.6966207127D+00 EUMP2 =    -0.19264657763777D+03
 Normal termination of Gaussian 09 at Tue Aug 30 09:32:52 2022.

 -----------------------------------------------------------
 #P Geom=AllCheck Guess=TCheck SCRF=Check MP2=Full/GTLargeXP
 -----------------------------------------------------------

 Structure from the checkpoint file:  "G4.Frag_1003.chk"
 ---------
 Frag_1003
 ---------
 Charge =  0 Multiplicity = 1

 SCF Done:  E(RHF) =  -192.000600253     A.U. after   12 cycles
 E2 =    -0.9180850930D+00 EUMP2 =    -0.19291868534614D+03
 Normal termination of Gaussian 09 at Tue Aug 30 09:33:40 2022.
 SCF Done:  E(RHF) =  -192.016763473     A.U. after    8 cycles
 Normal termination of Gaussian 09 at Tue Aug 30 09:35:04 2022.

                         Standard orientation:
 ---------------------------------------------------------------------
 Center     Atomic      Atomic             Coordinates (Angstroms)
 Number     Number       Type             X           Y           Z
 ---------------------------------------------------------------------
      1          6           0       -1.890986   -0.113581    0.000135
      2          6           0       -0.491755    0.425460   -0.000178
      3          6           0        0.594072   -0.341735   -0.000233
      4          8           0        1.860284    0.176663    0.000258
      5          1           0       -2.455488    0.222472   -0.879087
      6          1           0       -2.454758    0.221109    0.880172
      7          1           0       -1.898471   -1.208544   -0.000753
      8          1           0       -0.359473    1.504721   -0.000256
      9          1           0        0.524860   -1.428861    0.000143
     10          1           0        2.493074   -0.545061   -0.000629
 ---------------------------------------------------------------------

 SCF Done:  E(RHF) =  -192.020197513     A.U. after    8 cycles

 The electronic state is 1-A.
 Alpha  occ. eigenvalues --  -20.58049 -11.28314 -11.22041 -11.21456  -1.39405
 Alpha  occ. eigenvalues --   -1.05610  -0.92322  -0.76759  -0.72980  -0.63243
 Alpha  occ. eigenvalues --   -0.57965  -0.55229  -0.54466  -0.53654  -0.50000
 Alpha  occ. eigenvalues --   -0.33037
 Alpha virt. eigenvalues --    0.03537   0.04248   0.05525   0.06159   0.07129
 Alpha virt. eigenvalues --    0.07810   0.07875   0.09290   0.10325   0.10692
 Alpha virt. eigenvalues --    0.13877   0.14641   0.16298   0.16367   0.18276

 Mulliken charges:
               1
     1  C   -0.460041
     2  C   -0.183254
     3  C   -0.057735
     4  O   -0.519109
     5  H    0.172318
     6  H    0.172345
     7  H    0.145974
     8  H    0.201634
     9  H    0.149710
    10  H    0.378158
 Sum of Mulliken charges =  -0.00000

 Dipole moment (field-independent basis, Debye):
    X=              0.1282    Y=             -1.7400    Z=             -0.0010  Tot=              1.7447
 Quadrupole moment (field-independent basis, Debye-Ang):
   XX=            -22.3267   YY=            -23.3780   ZZ=            -27.3984
   XY=             -4.4862   XZ=             -0.0051   YZ=              0.0005

 Normal termination of Gaussian 09 at Tue Aug 30 10:17:41 2022.
