 Gaussian 09, Revision E.01,
 Gaussian 09:  ES64L-G09RevE.01 30-Nov-2015

 -----
 #P G4
 -----

 --------
 Frag_563
 --------
 Symbolic Z-matrix:
 Charge =  0 Multiplicity = 1

 SCF Done:  E(RB3LYP) =  -303.788392003     A.U. after   14 cycles
 SCF Done:  E(RB3LYP) =  -303.808026930     A.U. after   11 cycles
 SCF Done:  E(RB3LYP) =  -303.808936027     A.U. after   11 cycles
 SCF Done:  E(RB3LYP) =  -303.809356554     A.U. after   10 cycles
 SCF Done:  E(RB3LYP) =  -303.810171829     A.U. after   11 cycles
 SCF Done:  E(RB3LYP) =  -303.811112832     A.U. after   12 cycles
 SCF Done:  E(RB3LYP) =  -303.812047116     A.U. after   11 cycles
 SCF Done:  E(RB3LYP) =  -303.813027707     A.U. after   11 cycles
 SCF Done:  E(RB3LYP) =  -303.813475130     A.U. after   10 cycles
 SCF Done:  E(RB3LYP) =  -303.815050442     A.U. after   11 cycles
 SCF Done:  E(RB3LYP) =  -303.817765570     A.U. after    8 cycles
 SCF Done:  E(RB3LYP) =  -303.817766021     A.U. after    7 cycles
 SCF Done:  E(RB3LYP) =  -303.817766163     A.U. after    7 cycles
 Optimization completed.
    -- Stationary point found.
 Normal termination of Gaussian 09 at Tue Aug 30 12:20:05 2022.

 ----------------------------------------------------------
 #P Geom=AllCheck Guess=TCheck SCRF=Check B3LYP/GTBas3 Freq
 ----------------------------------------------------------

 Structure from the checkpoint file:  "G4.Frag_563.chk"
 --------
 Frag_563
 --------
 Charge =  0 Multiplicity = 1

 SCF Done:  E(RB3LYP) =  -303.817766163     A.U. after    1 cycles

  Exact polarizability:  60.684  -5.213  59.420  -2.141   5.061  38.719
 Approx polarizability:  80.271  -7.451  88.849  -5.247  10.733  59.286

                      1                      2                      3
                      A                      A                      A
 Frequencies --     98.9138               201.0132               272.9445
 Red. masses --      3.6201                 1.3155                 1.2157
 Frc consts  --      0.0209                 0.0313                 0.0534
 IR Inten    --      1.6165                 6.6732                21.7013

                      4                      5                      6
                      A                      A                      A
 Frequencies --    305.1220               342.0134               415.0447
 Red. masses --      3.2454                 1.5719                 2.6013
 Frc consts  --      0.1780                 0.1083                 0.2640
 IR Inten    --      3.8971                 9.8064                21.3259

                      7                      8                      9
                      A                      A                      A
 Frequencies --    426.5980               490.6414               540.8889
 Red. masses --      1.1362                 2.4741                 3.5753
 Frc consts  --      0.1218                 0.3509                 0.6163
 IR Inten    --     97.5213                15.7042                 6.2390

                     10                     11                     12
                      A                      A                      A
 Frequencies --    672.3136               722.2996               774.1839
 Red. masses --      4.1290                 1.1737                 3.0924
 Frc consts  --      1.0996                 0.3608                 1.0920
 IR Inten    --      6.6712                 4.0076                15.4811

                     13                     14                     15
                      A                      A                      A
 Frequencies --    808.8852               931.1566               969.7880
 Red. masses --      1.4091                 1.9067                 2.0530
 Frc consts  --      0.5432                 0.9740                 1.1376
 IR Inten    --     56.0556               114.7271                21.4586

                     16                     17                     18
                      A                      A                      A
 Frequencies --   1053.9193              1141.4855              1165.8196
 Red. masses --      1.5183                 1.5016                 3.1553
 Frc consts  --      0.9936                 1.1528                 2.5267
 IR Inten    --     18.1113                27.1951                 3.5846

                     19                     20                     21
                      A                      A                      A
 Frequencies --   1206.2912              1274.0548              1338.6940
 Red. masses --      1.9055                 1.4974                 1.2495
 Frc consts  --      1.6336                 1.4321                 1.3193
 IR Inten    --     20.8105               113.7470                25.5052

                     22                     23                     24
                      A                      A                      A
 Frequencies --   1358.8657              1426.1665              1450.3332
 Red. masses --      3.1050                 1.1883                 1.1969
 Frc consts  --      3.3780                 1.4241                 1.4834
 IR Inten    --     92.2334                 6.8761                 7.5557

                     25                     26                     27
                      A                      A                      A
 Frequencies --   1489.3819              1503.8569              1673.9291
 Red. masses --      1.0540                 1.0695                 1.1456
 Frc consts  --      1.3775                 1.4251                 1.8912
 IR Inten    --     16.0509                10.3868                23.4809

                     28                     29                     30
                      A                      A                      A
 Frequencies --   1755.9498              2963.7741              3075.2455
 Red. masses --      4.7453                 1.0557                 1.0806
 Frc consts  --      8.6206                 5.4638                 6.0210
 IR Inten    --    165.8785                64.8870                35.0885

                     31                     32                     33
                      A                      A                      A
 Frequencies --   3138.6845              3197.0843              3296.9643
 Red. masses --      1.0990                 1.0605                 1.1158
 Frc consts  --      6.3790                 6.3864                 7.1462
 IR Inten    --     12.6002                 0.5345                 2.4839

                     34                     35                     36
                      A                      A                      A
 Frequencies --   3386.6616              3533.0062              3775.9181
 Red. masses --      1.0562                 1.0845                 1.0647
 Frc consts  --      7.1371                 7.9755                 8.9440
 IR Inten    --     10.1210                 0.8780                24.9619

 - Thermochemistry -
 -------------------
 Temperature   298.150 Kelvin.  Pressure   1.00000 Atm.
 Atom     1 has atomic number  6 and mass  12.00000

 Molecular mass:    88.06366 amu.
 Principal axes and moments of inertia in atomic units:
                           1         2         3
     Eigenvalues --   358.06864 536.09526 801.74110
           X            0.99649  -0.08329   0.00816
           Y            0.08318   0.99645   0.01282
           Z           -0.00920  -0.01209   0.99988
 This molecule is an asymmetric top.
 Rotational symmetry number  1.
 Rotational temperatures (Kelvin)      0.24189     0.16156     0.10803
 Rotational constants (GHZ):           5.04021     3.36646     2.25103
 Zero-point vibrational energy     312093.1 (Joules/Mol)
                                   74.59204 (Kcal/Mol)
 Warning -- explicit consideration of   9 degrees of freedom as
           vibrations may cause significant error
 Vibrational temperatures:    142.31   289.21   392.71   439.00   492.08
          (Kelvin)            597.16   613.78   705.92   778.22   967.31
                             1039.23  1113.88  1163.80  1339.73  1395.31
                             1516.35  1642.34  1677.35  1735.58  1833.08
                             1926.08  1955.10  2051.93  2086.70  2142.89
                             2163.71  2408.41  2526.42  4264.20  4424.59
                             4515.86  4599.89  4743.59  4872.64  5083.20
                             5432.70

 Zero-point correction=                           0.118870 (Hartree/Particle)
 Thermal correction to Energy=                    0.125867
 Thermal correction to Enthalpy=                  0.126812
 Thermal correction to Gibbs Free Energy=         0.088658
 Sum of electronic and zero-point Energies=           -303.698896
 Sum of electronic and thermal Energies=              -303.691899
 Sum of electronic and thermal Enthalpies=            -303.690955
 Sum of electronic and thermal Free Energies=         -303.729108

                     E (Thermal)             CV                S
                      KCal/Mol        Cal/Mol-Kelvin    Cal/Mol-Kelvin
 Total                   78.983             25.699             80.300
 Electronic               0.000              0.000              0.000
 Translational            0.889              2.981             39.339
 Rotational               0.889              2.981             26.534
 Vibrational             77.206             19.737             14.427
 Vibration     1          0.604              1.950              3.476
 Vibration     2          0.638              1.838              2.124
 Vibration     3          0.676              1.723              1.577
 Vibration     4          0.696              1.664              1.389
 Vibration     5          0.721              1.591              1.203
 Vibration     6          0.778              1.438              0.909
 Vibration     7          0.788              1.412              0.870
 Vibration     8          0.846              1.271              0.682
 Vibration     9          0.896              1.160              0.563

 Optimization completed.
    -- Stationary point found.
 Normal termination of Gaussian 09 at Tue Aug 30 12:20:36 2022.

 -----------------------------------------------------------------
 #P Geom=AllCheck Guess=TCheck SCRF=Check CCSD(T,E4T,FrzG4)/GTBas1
 -----------------------------------------------------------------

 Structure from the checkpoint file:  "G4.Frag_563.chk"
 --------
 Frag_563
 --------
 Charge =  0 Multiplicity = 1

 SCF Done:  E(RHF) =  -301.936315590     A.U. after   12 cycles
 E2 =    -0.8909686360D+00 EUMP2 =    -0.30282728422549D+03
 CCSD(T)
 CCSD(T)= -0.30290534345D+03
 =-302.876005\CCSD=-302.8765904\CCSD(T)=-302.9053434\RMSD=6.510e-09\PG=
 Normal termination of Gaussian 09 at Tue Aug 30 12:22:28 2022.

 ---------------------------------------------------------
 #P Geom=AllCheck Guess=TCheck SCRF=Check MP4=FrzG4/GTBas2
 ---------------------------------------------------------

 Structure from the checkpoint file:  "G4.Frag_563.chk"
 --------
 Frag_563
 --------
 Charge =  0 Multiplicity = 1

 SCF Done:  E(RHF) =  -301.947288013     A.U. after   12 cycles
 E2 =    -0.9053181213D+00 EUMP2 =    -0.30285260613398D+03
 Normal termination of Gaussian 09 at Tue Aug 30 12:23:03 2022.

 ---------------------------------------------------------
 #P Geom=AllCheck Guess=TCheck SCRF=Check MP4=FrzG4/GTBas3
 ---------------------------------------------------------

 Structure from the checkpoint file:  "G4.Frag_563.chk"
 --------
 Frag_563
 --------
 Charge =  0 Multiplicity = 1

 SCF Done:  E(RHF) =  -301.979692088     A.U. after   11 cycles
 E2 =    -0.1093837095D+01 EUMP2 =    -0.30307352918287D+03
 Normal termination of Gaussian 09 at Tue Aug 30 12:26:34 2022.

 -----------------------------------------------------------
 #P Geom=AllCheck Guess=TCheck SCRF=Check MP2=Full/GTLargeXP
 -----------------------------------------------------------

 Structure from the checkpoint file:  "G4.Frag_563.chk"
 --------
 Frag_563
 --------
 Charge =  0 Multiplicity = 1

 SCF Done:  E(RHF) =  -302.059451850     A.U. after   12 cycles
 E2 =    -0.1431156424D+01 EUMP2 =    -0.30349060827340D+03
 Normal termination of Gaussian 09 at Tue Aug 30 12:28:35 2022.
 SCF Done:  E(RHF) =  -302.083310136     A.U. after    9 cycles
 Normal termination of Gaussian 09 at Tue Aug 30 12:30:35 2022.

                         Standard orientation:
 ---------------------------------------------------------------------
 Center     Atomic      Atomic             Coordinates (Angstroms)
 Number     Number       Type             X           Y           Z
 ---------------------------------------------------------------------
      1          6           0        1.401607   -1.187216   -0.363265
      2          6           0        0.777015   -0.081523    0.035958
      3          8           0        1.467016    1.086363    0.230214
      4          7           0       -0.601583    0.063835    0.308750
      5          6           0       -1.287644    1.112479   -0.451136
      6          7           0       -1.300755   -1.168468    0.329375
      7          1           0        0.851905   -2.086583   -0.590722
      8          1           0        2.480700   -1.193433   -0.427379
      9          1           0        1.070284    1.530380    0.990297
     10          1           0       -1.508042    0.786335   -1.481956
     11          1           0       -0.663688    2.005877   -0.503585
     12          1           0       -2.230082    1.364534    0.044531
     13          1           0       -1.660448   -1.379189   -0.605686
     14          1           0       -2.106258   -1.048836    0.936572
 ---------------------------------------------------------------------

 SCF Done:  E(RHF) =  -302.088472071     A.U. after    8 cycles

 The electronic state is 1-A.
 Alpha  occ. eigenvalues --  -20.57977 -15.60138 -15.58451 -11.31759 -11.26344
 Alpha  occ. eigenvalues --  -11.19089  -1.40761  -1.30192  -1.08164  -1.01322
 Alpha  occ. eigenvalues --   -0.91183  -0.77490  -0.72180  -0.69365  -0.66493
 Alpha  occ. eigenvalues --   -0.61754  -0.60192  -0.58499  -0.56536  -0.53469
 Alpha  occ. eigenvalues --   -0.52778  -0.43032  -0.42188  -0.31944
 Alpha virt. eigenvalues --    0.03436   0.04419   0.04893   0.05053   0.06534
 Alpha virt. eigenvalues --    0.07239   0.07676   0.08177   0.08521   0.10266
 Alpha virt. eigenvalues --    0.10350   0.10777   0.12771   0.14196   0.14920

 Mulliken charges:
               1
     1  C   -0.495337
     2  C    0.321321
     3  O   -0.560027
     4  N   -0.059711
     5  C   -0.467039
     6  N   -0.650697
     7  H    0.184823
     8  H    0.208716
     9  H    0.384355
    10  H    0.154944
    11  H    0.199191
    12  H    0.169932
    13  H    0.292138
    14  H    0.317390
 Sum of Mulliken charges =  -0.00000

 Dipole moment (field-independent basis, Debye):
    X=             -3.0800    Y=              1.1223    Z=              0.0649  Tot=              3.2787
 Quadrupole moment (field-independent basis, Debye-Ang):
   XX=            -35.3755   YY=            -36.8618   ZZ=            -37.4740
   XY=             -0.1331   XZ=              1.2756   YZ=              3.4105

 Normal termination of Gaussian 09 at Tue Aug 30 12:38:02 2022.
