 Gaussian 09, Revision E.01,
 Gaussian 09:  ES64L-G09RevE.01 30-Nov-2015

 -----
 #P G4
 -----

 --------
 Frag_896
 --------
 Symbolic Z-matrix:
 Charge =  0 Multiplicity = 1

 SCF Done:  E(RB3LYP) =  -189.301265021     A.U. after   11 cycles
 SCF Done:  E(RB3LYP) =  -189.308383209     A.U. after   11 cycles
 SCF Done:  E(RB3LYP) =  -189.309546186     A.U. after    9 cycles
 SCF Done:  E(RB3LYP) =  -189.310104506     A.U. after   10 cycles
 SCF Done:  E(RB3LYP) =  -189.310296165     A.U. after   10 cycles
 SCF Done:  E(RB3LYP) =  -189.310479253     A.U. after   10 cycles
 SCF Done:  E(RB3LYP) =  -189.310561275     A.U. after    9 cycles
 SCF Done:  E(RB3LYP) =  -189.310565406     A.U. after    7 cycles
 Optimization completed.
    -- Stationary point found.
 Normal termination of Gaussian 09 at Tue Aug 30 11:44:58 2022.

 ----------------------------------------------------------
 #P Geom=AllCheck Guess=TCheck SCRF=Check B3LYP/GTBas3 Freq
 ----------------------------------------------------------

 Structure from the checkpoint file:  "G4.Frag_896.chk"
 --------
 Frag_896
 --------
 Charge =  0 Multiplicity = 1

 SCF Done:  E(RB3LYP) =  -189.310565406     A.U. after    1 cycles

  Exact polarizability:  57.193   0.016  23.930   5.456  -5.938  34.638
 Approx polarizability:  80.836  -0.013  35.172  13.725  -8.286  52.732

                      1                      2                      3
                     AU                     AG                     AU
 Frequencies --    200.7125               300.3357               306.6410
 Red. masses --      1.2204                 1.2073                 2.7342
 Frc consts  --      0.0290                 0.0642                 0.1515
 IR Inten    --     77.7905                 0.0000                59.1681

                      4                      5                      6
                     AU                     AG                     AG
 Frequencies --    320.3570               549.9096               773.1907
 Red. masses --      2.2197                 3.5454                 1.2700
 Frc consts  --      0.1342                 0.6317                 0.4473
 IR Inten    --     38.0560                 0.0000                 0.0000

                      7                      8                      9
                     AU                     AG                     AU
 Frequencies --    792.1376               845.1962               944.5396
 Red. masses --      1.5190                 1.9072                 1.0685
 Frc consts  --      0.5616                 0.8027                 0.5617
 IR Inten    --    499.8363                 0.0000                56.3663

                     10                     11                     12
                     AG                     AU                     AU
 Frequencies --   1028.3954              1127.7325              1176.3538
 Red. masses --      1.7744                 1.0801                 3.7100
 Frc consts  --      1.1057                 0.8093                 3.0248
 IR Inten    --      0.0000                 0.4880                86.1110

                     13                     14                     15
                     AG                     AG                     AU
 Frequencies --   1287.6389              1338.5548              1398.6851
 Red. masses --      1.7554                 1.2854                 1.3057
 Frc consts  --      1.7148                 1.3569                 1.5050
 IR Inten    --      0.0000                 0.0000                10.5038

                     16                     17                     18
                     AG                     AU                     AG
 Frequencies --   1646.7980              1653.5227              1762.8663
 Red. masses --      1.1001                 1.1154                 5.1294
 Frc consts  --      1.7577                 1.7968                 9.3919
 IR Inten    --      0.0000                54.2172                 0.0000

                     19                     20                     21
                     AG                     AU                     AG
 Frequencies --   3146.9622              3150.5587              3497.4893
 Red. masses --      1.0922                 1.0851                 1.0489
 Frc consts  --      6.3729                 6.3460                 7.5599
 IR Inten    --      0.0000                43.7893                 0.0000

                     22                     23                     24
                     AU                     AU                     AG
 Frequencies --   3499.6047              3588.8259              3589.4401
 Red. masses --      1.0483                 1.0935                 1.0936
 Frc consts  --      7.5644                 8.2983                 8.3018
 IR Inten    --      1.5739                 3.3224                 0.0000

 - Thermochemistry -
 -------------------
 Temperature   298.150 Kelvin.  Pressure   1.00000 Atm.
 Atom     1 has atomic number  7 and mass  14.00307

 Molecular mass:    58.05310 amu.
 Principal axes and moments of inertia in atomic units:
                           1         2         3
     Eigenvalues --    41.29359 456.90684 491.82279
           X            0.98797  -0.07046  -0.13764
           Y            0.09573  -0.42033   0.90231
           Z            0.12143   0.90463   0.40853
 This molecule is an asymmetric top.
 Rotational symmetry number  1.
 Rotational temperatures (Kelvin)      2.09751     0.18957     0.17611
 Rotational constants (GHZ):          43.70512     3.94991     3.66949
 Zero-point vibrational energy     226850.5 (Joules/Mol)
                                   54.21858 (Kcal/Mol)
 Warning -- explicit consideration of   5 degrees of freedom as
           vibrations may cause significant error
 Vibrational temperatures:    288.78   432.12   441.19   460.92   791.20
          (Kelvin)           1112.45  1139.71  1216.05  1358.98  1479.63
                             1622.55  1692.51  1852.62  1925.88  2012.39
                             2369.37  2379.05  2536.37  4527.77  4532.95
                             5032.10  5035.14  5163.51  5164.40

 Zero-point correction=                           0.086403 (Hartree/Particle)
 Thermal correction to Energy=                    0.091600
 Thermal correction to Enthalpy=                  0.092544
 Thermal correction to Gibbs Free Energy=         0.059465
 Sum of electronic and zero-point Energies=           -189.224163
 Sum of electronic and thermal Energies=              -189.218965
 Sum of electronic and thermal Enthalpies=            -189.218021
 Sum of electronic and thermal Free Energies=         -189.251100

                     E (Thermal)             CV                S
                      KCal/Mol        Cal/Mol-Kelvin    Cal/Mol-Kelvin
 Total                   57.480             17.623             69.621
 Electronic               0.000              0.000              0.000
 Translational            0.889              2.981             38.097
 Rotational               0.889              2.981             23.744
 Vibrational             55.703             11.661              7.780
 Vibration     1          0.638              1.839              2.127
 Vibration     2          0.693              1.673              1.415
 Vibration     3          0.697              1.661              1.380
 Vibration     4          0.706              1.635              1.308
 Vibration     5          0.905              1.140              0.544

 Optimization completed.
    -- Stationary point found.
 Normal termination of Gaussian 09 at Tue Aug 30 11:45:09 2022.

 -----------------------------------------------------------------
 #P Geom=AllCheck Guess=TCheck SCRF=Check CCSD(T,E4T,FrzG4)/GTBas1
 -----------------------------------------------------------------

 Structure from the checkpoint file:  "G4.Frag_896.chk"
 --------
 Frag_896
 --------
 Charge =  0 Multiplicity = 1

 SCF Done:  E(RHF) =  -188.080759017     A.U. after   11 cycles
 E2 =    -0.5812732855D+00 EUMP2 =    -0.18866203230266D+03
 CCSD(T)
 CCSD(T)= -0.18871841695D+03
 MP4SDTQ=-188.7172048\MP4SDQ=-188.6991254\CCSD=-188.6999028\CCSD(T)=-18
 Normal termination of Gaussian 09 at Tue Aug 30 11:45:26 2022.

 ---------------------------------------------------------
 #P Geom=AllCheck Guess=TCheck SCRF=Check MP4=FrzG4/GTBas2
 ---------------------------------------------------------

 Structure from the checkpoint file:  "G4.Frag_896.chk"
 --------
 Frag_896
 --------
 Charge =  0 Multiplicity = 1

 SCF Done:  E(RHF) =  -188.089327050     A.U. after   12 cycles
 E2 =    -0.5903821174D+00 EUMP2 =    -0.18867970916696D+03
 Normal termination of Gaussian 09 at Tue Aug 30 11:45:36 2022.

 ---------------------------------------------------------
 #P Geom=AllCheck Guess=TCheck SCRF=Check MP4=FrzG4/GTBas3
 ---------------------------------------------------------

 Structure from the checkpoint file:  "G4.Frag_896.chk"
 --------
 Frag_896
 --------
 Charge =  0 Multiplicity = 1

 SCF Done:  E(RHF) =  -188.112016830     A.U. after   11 cycles
 E2 =    -0.7096634186D+00 EUMP2 =    -0.18882168024855D+03
 Normal termination of Gaussian 09 at Tue Aug 30 11:46:27 2022.

 -----------------------------------------------------------
 #P Geom=AllCheck Guess=TCheck SCRF=Check MP2=Full/GTLargeXP
 -----------------------------------------------------------

 Structure from the checkpoint file:  "G4.Frag_896.chk"
 --------
 Frag_896
 --------
 Charge =  0 Multiplicity = 1

 SCF Done:  E(RHF) =  -188.162828364     A.U. after   11 cycles
 E2 =    -0.9310955967D+00 EUMP2 =    -0.18909392396030D+03
 Normal termination of Gaussian 09 at Tue Aug 30 11:46:41 2022.
 SCF Done:  E(RHF) =  -188.177776677     A.U. after    9 cycles
 Normal termination of Gaussian 09 at Tue Aug 30 11:46:55 2022.

                         Standard orientation:
 ---------------------------------------------------------------------
 Center     Atomic      Atomic             Coordinates (Angstroms)
 Number     Number       Type             X           Y           Z
 ---------------------------------------------------------------------
      1          7           0       -1.858643   -0.268930   -0.182423
      2          6           0       -0.511435    0.094720   -0.418897
      3          6           0        0.511435   -0.094720    0.418897
      4          7           0        1.858643    0.268930    0.182423
      5          1           0       -2.502961    0.478681   -0.416980
      6          1           0       -2.017080   -0.527606    0.785092
      7          1           0       -0.338536    0.504420   -1.411983
      8          1           0        0.338536   -0.504420    1.411983
      9          1           0        2.017080    0.527606   -0.785092
     10          1           0        2.502961   -0.478681    0.416980
 ---------------------------------------------------------------------

 SCF Done:  E(RHF) =  -188.181018688     A.U. after    8 cycles

 The electronic state is 1-AG.
 Alpha  occ. eigenvalues --  -15.55199 -15.55199 -11.24645 -11.24476  -1.20700
 Alpha  occ. eigenvalues --   -1.17691  -0.96135  -0.78538  -0.68374  -0.68125
 Alpha  occ. eigenvalues --   -0.60048  -0.59361  -0.52182  -0.50697  -0.44550
 Alpha  occ. eigenvalues --   -0.29041
 Alpha virt. eigenvalues --    0.04300   0.04395   0.04833   0.06906   0.07145
 Alpha virt. eigenvalues --    0.08062   0.08728   0.10324   0.11533   0.12119
 Alpha virt. eigenvalues --    0.12593   0.13426   0.15805   0.16830   0.18349

 Mulliken charges:
               1
     1  N   -0.662078
     2  C   -0.073690
     3  C   -0.073690
     4  N   -0.662078
     5  H    0.294876
     6  H    0.287419
     7  H    0.153472
     8  H    0.153472
     9  H    0.287419
    10  H    0.294876
 Sum of Mulliken charges =  -0.00000

 Dipole moment (field-independent basis, Debye):
    X=              0.0000    Y=              0.0000    Z=             -0.0000  Tot=              0.0000
 Quadrupole moment (field-independent basis, Debye-Ang):
   XX=            -22.3691   YY=            -28.0536   ZZ=            -23.4776
   XY=             -5.0964   XZ=             -3.4531   YZ=             -4.2152

 Normal termination of Gaussian 09 at Tue Aug 30 11:48:16 2022.
