 Gaussian 09, Revision E.01,
 Gaussian 09:  ES64L-G09RevE.01 30-Nov-2015

 -----
 #P G4
 -----

 --------
 Frag_919
 --------
 Symbolic Z-matrix:
 Charge =  0 Multiplicity = 1

 SCF Done:  E(RB3LYP) =  -305.021880349     A.U. after   12 cycles
 SCF Done:  E(RB3LYP) =  -305.030310639     A.U. after   11 cycles
 SCF Done:  E(RB3LYP) =  -305.031439992     A.U. after   11 cycles
 SCF Done:  E(RB3LYP) =  -305.031721536     A.U. after   11 cycles
 SCF Done:  E(RB3LYP) =  -305.031750709     A.U. after    9 cycles
 SCF Done:  E(RB3LYP) =  -305.031755369     A.U. after    8 cycles
 SCF Done:  E(RB3LYP) =  -305.031758909     A.U. after    7 cycles
 SCF Done:  E(RB3LYP) =  -305.031761476     A.U. after    8 cycles
 SCF Done:  E(RB3LYP) =  -305.031762317     A.U. after    7 cycles
 SCF Done:  E(RB3LYP) =  -305.031762548     A.U. after    6 cycles
 Optimization completed.
    -- Stationary point found.
 Normal termination of Gaussian 09 at Fri Aug 26 05:03:00 2022.

 ----------------------------------------------------------
 #P Geom=AllCheck Guess=TCheck SCRF=Check B3LYP/GTBas3 Freq
 ----------------------------------------------------------

 Structure from the checkpoint file:  "G4.Frag_919.chk"
 --------
 Frag_919
 --------
 Charge =  0 Multiplicity = 1

 SCF Done:  E(RB3LYP) =  -305.031762548     A.U. after    1 cycles

  Exact polarizability:  58.848  -0.060  49.071   1.749  -1.064  52.340
 Approx polarizability:  80.719  -0.372  67.929   2.358  -2.063  75.097

                      1                      2                      3
                      A                      A                      A
 Frequencies --    128.4165               190.0758               224.8067
 Red. masses --      2.4750                 1.2080                 1.0381
 Frc consts  --      0.0240                 0.0257                 0.0309
 IR Inten    --     20.4820                37.6034                25.2581

                      4                      5                      6
                      A                      A                      A
 Frequencies --    249.5879               270.7808               344.2421
 Red. masses --      1.6773                 1.5751                 2.1769
 Frc consts  --      0.0616                 0.0680                 0.1520
 IR Inten    --      0.5426                 0.1052                 6.9741

                      7                      8                      9
                      A                      A                      A
 Frequencies --    366.2106               399.2279               431.3886
 Red. masses --      2.1018                 1.5588                 1.8990
 Frc consts  --      0.1661                 0.1464                 0.2082
 IR Inten    --      2.7335                23.3744                28.6171

                     10                     11                     12
                      A                      A                      A
 Frequencies --    488.6077               564.3527               763.7447
 Red. masses --      2.7877                 3.1755                 4.5096
 Frc consts  --      0.3921                 0.5959                 1.5498
 IR Inten    --      7.7546                 9.8111                 7.2905

                     13                     14                     15
                      A                      A                      A
 Frequencies --    845.8737               917.5097               925.9445
 Red. masses --      2.4366                 1.5577                 1.5675
 Frc consts  --      1.0272                 0.7726                 0.7918
 IR Inten    --     60.1709                 4.0722                98.1360

                     16                     17                     18
                      A                      A                      A
 Frequencies --    954.8512               970.8379              1017.3697
 Red. masses --      2.1097                 1.9872                 1.3446
 Frc consts  --      1.1333                 1.1035                 0.8200
 IR Inten    --     28.8353                10.9416                17.6368

                     19                     20                     21
                      A                      A                      A
 Frequencies --   1037.2061              1118.0505              1201.6155
 Red. masses --      1.6208                 1.4106                 2.4831
 Frc consts  --      1.0273                 1.0389                 2.1124
 IR Inten    --     32.3570                28.8721                71.8301

                     22                     23                     24
                      A                      A                      A
 Frequencies --   1290.9183              1341.3051              1367.5415
 Red. masses --      2.6405                 1.7630                 1.2780
 Frc consts  --      2.5925                 1.8688                 1.4082
 IR Inten    --     13.9216                 5.0765                63.1194

                     25                     26                     27
                      A                      A                      A
 Frequencies --   1391.3070              1411.5010              1476.4982
 Red. masses --      1.2788                 1.2678                 1.0602
 Frc consts  --      1.4585                 1.4882                 1.3618
 IR Inten    --     12.3632                 5.4204                 1.1180

                     28                     29                     30
                      A                      A                      A
 Frequencies --   1481.3533              1483.8272              1504.1735
 Red. masses --      1.0526                 1.0560                 1.0761
 Frc consts  --      1.3609                 1.3698                 1.4345
 IR Inten    --      0.7002                 0.2554                 1.4706

                     31                     32                     33
                      A                      A                      A
 Frequencies --   1512.3881              1639.9887              3023.6604
 Red. masses --      1.0940                 1.1002                 1.0378
 Frc consts  --      1.4743                 1.7434                 5.5902
 IR Inten    --      6.3313                32.7675                19.2936

                     34                     35                     36
                      A                      A                      A
 Frequencies --   3040.3120              3086.5357              3103.7398
 Red. masses --      1.0367                 1.0998                 1.1004
 Frc consts  --      5.6459                 6.1734                 6.2453
 IR Inten    --     19.4398                20.0438                37.1428

                     37                     38                     39
                      A                      A                      A
 Frequencies --   3122.7189              3139.7311              3454.8715
 Red. masses --      1.0999                 1.1008                 1.0747
 Frc consts  --      6.3192                 6.3937                 7.5580
 IR Inten    --     16.2995                14.6156                 1.2969

                     40                     41                     42
                      A                      A                      A
 Frequencies --   3487.4443              3566.6702              3811.5096
 Red. masses --      1.0491                 1.0912                 1.0681
 Frc consts  --      7.5179                 8.1783                 9.1425
 IR Inten    --      0.8132                 0.6330                44.8752

 - Thermochemistry -
 -------------------
 Temperature   298.150 Kelvin.  Pressure   1.00000 Atm.
 Atom     1 has atomic number  6 and mass  12.00000

 Molecular mass:    90.07931 amu.
 Principal axes and moments of inertia in atomic units:
                           1         2         3
     Eigenvalues --   392.74433 655.70165 663.34598
           X            0.99955   0.00251   0.03000
           Y            0.00471   0.97116  -0.23837
           Z           -0.02974   0.23841   0.97071
 This molecule is an asymmetric top.
 Rotational symmetry number  1.
 Rotational temperatures (Kelvin)      0.22053     0.13209     0.13057
 Rotational constants (GHZ):           4.59521     2.75238     2.72066
 Zero-point vibrational energy     371731.8 (Joules/Mol)
                                   88.84602 (Kcal/Mol)
 Warning -- explicit consideration of  11 degrees of freedom as
           vibrations may cause significant error
 Vibrational temperatures:    184.76   273.48   323.45   359.10   389.59
          (Kelvin)            495.29   526.89   574.40   620.67   703.00
                              811.98  1098.86  1217.02  1320.09  1332.23
                             1373.82  1396.82  1463.77  1492.31  1608.62
                             1728.85  1857.34  1929.84  1967.58  2001.78
                             2030.83  2124.35  2131.33  2134.89  2164.17
                             2175.99  2359.58  4350.37  4374.33  4440.83
                             4465.58  4492.89  4517.37  4970.78  5017.65
                             5131.64  5483.91

 Zero-point correction=                           0.141585 (Hartree/Particle)
 Thermal correction to Energy=                    0.149378
 Thermal correction to Enthalpy=                  0.150322
 Thermal correction to Gibbs Free Energy=         0.110827
 Sum of electronic and zero-point Energies=           -304.890177
 Sum of electronic and thermal Energies=              -304.882385
 Sum of electronic and thermal Enthalpies=            -304.881441
 Sum of electronic and thermal Free Energies=         -304.920935

                     E (Thermal)             CV                S
                      KCal/Mol        Cal/Mol-Kelvin    Cal/Mol-Kelvin
 Total                   93.736             28.701             83.123
 Electronic               0.000              0.000              0.000
 Translational            0.889              2.981             39.407
 Rotational               0.889              2.981             26.638
 Vibrational             91.958             22.739             17.079
 Vibration     1          0.611              1.925              2.970
 Vibration     2          0.633              1.854              2.227
 Vibration     3          0.649              1.803              1.920
 Vibration     4          0.662              1.763              1.733
 Vibration     5          0.674              1.727              1.591
 Vibration     6          0.723              1.587              1.192
 Vibration     7          0.739              1.542              1.096
 Vibration     8          0.765              1.472              0.965
 Vibration     9          0.792              1.402              0.854
 Vibration    10          0.845              1.275              0.687
 Vibration    11          0.920              1.108              0.515

 Optimization completed.
    -- Stationary point found.
 Normal termination of Gaussian 09 at Fri Aug 26 05:03:38 2022.

 -----------------------------------------------------------------
 #P Geom=AllCheck Guess=TCheck SCRF=Check CCSD(T,E4T,FrzG4)/GTBas1
 -----------------------------------------------------------------

 Structure from the checkpoint file:  "G4.Frag_919.chk"
 --------
 Frag_919
 --------
 Charge =  0 Multiplicity = 1

 SCF Done:  E(RHF) =  -303.107537742     A.U. after   12 cycles
 E2 =    -0.9096172174D+00 EUMP2 =    -0.30401715495914D+03
 CCSD(T)
 CCSD(T)= -0.30410137888D+03
 =-304.1003794\MP4SDQ=-304.0736211\CCSD=-304.0745335\CCSD(T)=-304.10137
 Normal termination of Gaussian 09 at Fri Aug 26 05:06:07 2022.

 ---------------------------------------------------------
 #P Geom=AllCheck Guess=TCheck SCRF=Check MP4=FrzG4/GTBas2
 ---------------------------------------------------------

 Structure from the checkpoint file:  "G4.Frag_919.chk"
 --------
 Frag_919
 --------
 Charge =  0 Multiplicity = 1

 SCF Done:  E(RHF) =  -303.118082292     A.U. after   13 cycles
 E2 =    -0.9250787598D+00 EUMP2 =    -0.30404316105166D+03
 Normal termination of Gaussian 09 at Fri Aug 26 05:06:55 2022.

 ---------------------------------------------------------
 #P Geom=AllCheck Guess=TCheck SCRF=Check MP4=FrzG4/GTBas3
 ---------------------------------------------------------

 Structure from the checkpoint file:  "G4.Frag_919.chk"
 --------
 Frag_919
 --------
 Charge =  0 Multiplicity = 1

 SCF Done:  E(RHF) =  -303.151396318     A.U. after   11 cycles
 E2 =    -0.1125757972D+01 EUMP2 =    -0.30427715429067D+03
 Normal termination of Gaussian 09 at Fri Aug 26 05:11:39 2022.

 -----------------------------------------------------------
 #P Geom=AllCheck Guess=TCheck SCRF=Check MP2=Full/GTLargeXP
 -----------------------------------------------------------

 Structure from the checkpoint file:  "G4.Frag_919.chk"
 --------
 Frag_919
 --------
 Charge =  0 Multiplicity = 1

 SCF Done:  E(RHF) =  -303.230568484     A.U. after   12 cycles
 E2 =    -0.1467332485D+01 EUMP2 =    -0.30469790096844D+03
 Normal termination of Gaussian 09 at Fri Aug 26 05:13:54 2022.
 SCF Done:  E(RHF) =  -303.254879931     A.U. after    9 cycles
 Normal termination of Gaussian 09 at Fri Aug 26 05:16:20 2022.

                         Standard orientation:
 ---------------------------------------------------------------------
 Center     Atomic      Atomic             Coordinates (Angstroms)
 Number     Number       Type             X           Y           Z
 ---------------------------------------------------------------------
      1          6           0        1.617260   -0.833530    0.348926
      2          6           0        0.390806   -0.000322   -0.033717
      3          6           0        0.461003    1.411969    0.585071
      4          7           0        0.271401    0.022716   -1.494909
      5          7           0       -0.779547   -0.760755    0.457787
      6          8           0       -1.976464   -0.028398    0.114298
      7          1           0        1.556376   -1.818637   -0.116939
      8          1           0        2.533383   -0.337319    0.012899
      9          1           0        1.688006   -0.954234    1.435025
     10          1           0        1.306396    1.974229    0.174189
     11          1           0        0.588672    1.368283    1.673453
     12          1           0       -0.458851    1.961713    0.370407
     13          1           0        1.076298    0.504762   -1.884821
     14          1           0       -0.541112    0.585818   -1.732235
     15          1           0       -0.766692   -0.708390    1.476221
     16          1           0       -2.428157   -0.651473   -0.464406
 ---------------------------------------------------------------------

 SCF Done:  E(RHF) =  -303.260186410     A.U. after    8 cycles

 The electronic state is 1-A.
 Alpha  occ. eigenvalues --  -20.58177 -15.60146 -15.53673 -11.29199 -11.21624
 Alpha  occ. eigenvalues --  -11.21469  -1.39681  -1.20537  -1.09358  -0.98575
 Alpha  occ. eigenvalues --   -0.94039  -0.78223  -0.68791  -0.67828  -0.65060
 Alpha  occ. eigenvalues --   -0.60888  -0.59295  -0.56514  -0.54545  -0.53798
 Alpha  occ. eigenvalues --   -0.51729  -0.49132  -0.46858  -0.41646  -0.38703
 Alpha virt. eigenvalues --    0.03335   0.04401   0.05052   0.05350   0.07031
 Alpha virt. eigenvalues --    0.07355   0.07622   0.07759   0.08201   0.10234
 Alpha virt. eigenvalues --    0.11388   0.11855   0.12365   0.14142   0.14417

 Mulliken charges:
               1
     1  C   -0.572462
     2  C    0.464012
     3  C   -0.558347
     4  N   -0.761930
     5  N   -0.320252
     6  O   -0.565909
     7  H    0.194974
     8  H    0.163395
     9  H    0.160974
    10  H    0.163189
    11  H    0.156494
    12  H    0.196445
    13  H    0.287051
    14  H    0.300314
    15  H    0.287433
    16  H    0.404620
 Sum of Mulliken charges =  -0.00000

 Dipole moment (field-independent basis, Debye):
    X=              0.8503    Y=              0.9972    Z=              0.4384  Tot=              1.3819
 Quadrupole moment (field-independent basis, Debye-Ang):
   XX=            -36.6442   YY=            -40.4906   ZZ=            -37.0102
   XY=              2.2747   XZ=              1.6818   YZ=             -3.0011

 Normal termination of Gaussian 09 at Fri Aug 26 05:24:59 2022.
