 Gaussian 09, Revision E.01,
 Gaussian 09:  ES64L-G09RevE.01 30-Nov-2015

 -----
 #P G4
 -----

 --------
 Frag_525
 --------
 Symbolic Z-matrix:
 Charge =  0 Multiplicity = 1

 SCF Done:  E(RB3LYP) =  -194.069310247     A.U. after   14 cycles
 SCF Done:  E(RB3LYP) =  -194.070403315     A.U. after   12 cycles
 SCF Done:  E(RB3LYP) =  -194.067250608     A.U. after   14 cycles
 SCF Done:  E(RB3LYP) =  -194.070589111     A.U. after   11 cycles
 SCF Done:  E(RB3LYP) =  -194.070320246     A.U. after   12 cycles
 SCF Done:  E(RB3LYP) =  -194.070656174     A.U. after    9 cycles
 SCF Done:  E(RB3LYP) =  -194.070704472     A.U. after    9 cycles
 SCF Done:  E(RB3LYP) =  -194.070706000     A.U. after    8 cycles
 SCF Done:  E(RB3LYP) =  -194.070706053     A.U. after    6 cycles
 Optimization completed.
    -- Stationary point found.
 Normal termination of Gaussian 09 at Fri Aug 26 12:53:26 2022.

 ----------------------------------------------------------
 #P Geom=AllCheck Guess=TCheck SCRF=Check B3LYP/GTBas3 Freq
 ----------------------------------------------------------

 Structure from the checkpoint file:  "G4.Frag_525.chk"
 --------
 Frag_525
 --------
 Charge =  0 Multiplicity = 1

 SCF Done:  E(RB3LYP) =  -194.070706053     A.U. after    2 cycles

  Exact polarizability:  75.380  -8.927  52.226  -0.000  -0.000  28.623
 Approx polarizability: 124.033 -23.878  77.915  -0.000  -0.000  42.248

                      1                      2                      3
                      A                      A                      A
 Frequencies --    179.9275               185.2263               274.4672
 Red. masses --      1.0439                 3.2510                 3.4972
 Frc consts  --      0.0199                 0.0657                 0.1552
 IR Inten    --      0.0602                 0.9342                 4.2784

                      4                      5                      6
                      A                      A                      A
 Frequencies --    391.9584               546.9181               567.1289
 Red. masses --      2.3099                 2.4842                 4.8288
 Frc consts  --      0.2091                 0.4378                 0.9151
 IR Inten    --      0.2948                 5.4127                 4.7606

                      7                      8                      9
                      A                      A                      A
 Frequencies --    607.2815               634.3702               751.0201
 Red. masses --      1.2109                 1.2149                 1.2176
 Frc consts  --      0.2631                 0.2881                 0.4046
 IR Inten    --     35.9675                42.0304                 0.3347

                     10                     11                     12
                      A                      A                      A
 Frequencies --    777.9840               936.8749               968.1352
 Red. masses --      4.1314                 1.3500                 1.7955
 Frc consts  --      1.4733                 0.6981                 0.9915
 IR Inten    --      1.1760                34.4811                 0.6278

                     13                     14                     15
                      A                      A                      A
 Frequencies --   1030.4711              1072.6862              1285.4707
 Red. masses --      1.3811                 1.4689                 3.2035
 Frc consts  --      0.8641                 0.9958                 3.1188
 IR Inten    --      3.5468                 0.7646                12.1803

                     16                     17                     18
                      A                      A                      A
 Frequencies --   1407.8743              1440.8351              1475.3657
 Red. masses --      1.2267                 1.2083                 1.0441
 Frc consts  --      1.4325                 1.4780                 1.3390
 IR Inten    --      1.5000                 0.0142                 5.5273

                     19                     20                     21
                      A                      A                      A
 Frequencies --   1493.7886              1683.4277              2220.1872
 Red. masses --      1.0543                 4.9319                 6.0797
 Frc consts  --      1.3861                 8.2349                17.6568
 IR Inten    --      9.3898                12.0542                 0.2040

                     22                     23                     24
                      A                      A                      A
 Frequencies --   3035.1381              3092.6022              3124.3358
 Red. masses --      1.0355                 1.0997                 1.1020
 Frc consts  --      5.6202                 6.1971                 6.3378
 IR Inten    --     17.2121                13.6963                15.7011

                     25                     26                     27
                      A                      A                      A
 Frequencies --   3157.4050              3247.6399              3503.9000
 Red. masses --      1.0605                 1.1158                 1.1588
 Frc consts  --      6.2289                 6.9336                 8.3820
 IR Inten    --      2.7937                 6.7335                70.2106

 - Thermochemistry -
 -------------------
 Temperature   298.150 Kelvin.  Pressure   1.00000 Atm.
 Atom     1 has atomic number  6 and mass  12.00000

 Molecular mass:    66.04695 amu.
 Principal axes and moments of inertia in atomic units:
                           1         2         3
     Eigenvalues --   192.71233 447.42052 628.98921
           X            0.99990   0.01415  -0.00000
           Y           -0.01415   0.99990  -0.00000
           Z            0.00000   0.00000   1.00000
 This molecule is an asymmetric top.
 Rotational symmetry number  1.
 Rotational temperatures (Kelvin)      0.44945     0.19358     0.13770
 Rotational constants (GHZ):           9.36495     4.03366     2.86927
 Zero-point vibrational energy     233824.6 (Joules/Mol)
                                   55.88542 (Kcal/Mol)
 Warning -- explicit consideration of   7 degrees of freedom as
           vibrations may cause significant error
 Vibrational temperatures:    258.88   266.50   394.90   563.94   786.89
          (Kelvin)            815.97   873.74   912.72  1080.55  1119.34
                             1347.95  1392.93  1482.62  1543.35  1849.50
                             2025.61  2073.04  2122.72  2149.23  2422.07
                             3194.35  4366.88  4449.56  4495.22  4542.80
                             4672.62  5041.32

 Zero-point correction=                           0.089059 (Hartree/Particle)
 Thermal correction to Energy=                    0.094874
 Thermal correction to Enthalpy=                  0.095818
 Thermal correction to Gibbs Free Energy=         0.060665
 Sum of electronic and zero-point Energies=           -193.981647
 Sum of electronic and thermal Energies=              -193.975832
 Sum of electronic and thermal Enthalpies=            -193.974888
 Sum of electronic and thermal Free Energies=         -194.010041

                     E (Thermal)             CV                S
                      KCal/Mol        Cal/Mol-Kelvin    Cal/Mol-Kelvin
 Total                   59.534             20.611             73.985
 Electronic               0.000              0.000              0.000
 Translational            0.889              2.981             38.482
 Rotational               0.889              2.981             25.498
 Vibrational             57.757             14.650             10.006
 Vibration     1          0.629              1.867              2.329
 Vibration     2          0.631              1.860              2.275
 Vibration     3          0.677              1.721              1.568
 Vibration     4          0.759              1.487              0.993
 Vibration     5          0.902              1.146              0.551
 Vibration     6          0.923              1.102              0.510
 Vibration     7          0.966              1.016              0.437

 Optimization completed.
    -- Stationary point found.
 Normal termination of Gaussian 09 at Fri Aug 26 12:53:45 2022.

 -----------------------------------------------------------------
 #P Geom=AllCheck Guess=TCheck SCRF=Check CCSD(T,E4T,FrzG4)/GTBas1
 -----------------------------------------------------------------

 Structure from the checkpoint file:  "G4.Frag_525.chk"
 --------
 Frag_525
 --------
 Charge =  0 Multiplicity = 1

 SCF Done:  E(RHF) =  -192.745448785     A.U. after   13 cycles
 E2 =    -0.6311802646D+00 EUMP2 =    -0.19337662904972D+03
 CCSD(T)
 CCSD(T)= -0.19344551437D+03
 SDQ=-193.4171947\CCSD=-193.4180312\CCSD(T)=-193.4455144\RMSD=5.526e-09
 Normal termination of Gaussian 09 at Fri Aug 26 12:54:33 2022.

 ---------------------------------------------------------
 #P Geom=AllCheck Guess=TCheck SCRF=Check MP4=FrzG4/GTBas2
 ---------------------------------------------------------

 Structure from the checkpoint file:  "G4.Frag_525.chk"
 --------
 Frag_525
 --------
 Charge =  0 Multiplicity = 1

 SCF Done:  E(RHF) =  -192.752873818     A.U. after   14 cycles
 E2 =    -0.6356971672D+00 EUMP2 =    -0.19338857098468D+03
 Normal termination of Gaussian 09 at Fri Aug 26 12:54:46 2022.

 ---------------------------------------------------------
 #P Geom=AllCheck Guess=TCheck SCRF=Check MP4=FrzG4/GTBas3
 ---------------------------------------------------------

 Structure from the checkpoint file:  "G4.Frag_525.chk"
 --------
 Frag_525
 --------
 Charge =  0 Multiplicity = 1

 SCF Done:  E(RHF) =  -192.769581367     A.U. after   12 cycles
 E2 =    -0.7607561196D+00 EUMP2 =    -0.19353033748657D+03
 Normal termination of Gaussian 09 at Fri Aug 26 12:55:48 2022.

 -----------------------------------------------------------
 #P Geom=AllCheck Guess=TCheck SCRF=Check MP2=Full/GTLargeXP
 -----------------------------------------------------------

 Structure from the checkpoint file:  "G4.Frag_525.chk"
 --------
 Frag_525
 --------
 Charge =  0 Multiplicity = 1

 SCF Done:  E(RHF) =  -192.812517419     A.U. after   13 cycles
 E2 =    -0.1015186071D+01 EUMP2 =    -0.19382770348921D+03
 Normal termination of Gaussian 09 at Fri Aug 26 12:56:33 2022.
 SCF Done:  E(RHF) =  -192.827734479     A.U. after   10 cycles
 Normal termination of Gaussian 09 at Fri Aug 26 12:57:33 2022.

                         Standard orientation:
 ---------------------------------------------------------------------
 Center     Atomic      Atomic             Coordinates (Angstroms)
 Number     Number       Type             X           Y           Z
 ---------------------------------------------------------------------
      1          6           0        2.200116   -0.076115   -0.000005
      2          6           0        1.001565    0.045922    0.000019
      3          6           0       -0.423352    0.122749    0.000006
      4          6           0       -1.053208    1.304329   -0.000004
      5          6           0       -1.158152   -1.198272   -0.000004
      6          1           0        3.258414   -0.162146   -0.000045
      7          1           0       -0.506469    2.239534   -0.000001
      8          1           0       -2.136497    1.359713   -0.000020
      9          1           0       -0.888688   -1.792520   -0.879800
     10          1           0       -2.239819   -1.043758   -0.000048
     11          1           0       -0.888757   -1.792491    0.879834
 ---------------------------------------------------------------------

 SCF Done:  E(RHF) =  -192.830588720     A.U. after    7 cycles

 The electronic state is 1-A.
 Alpha  occ. eigenvalues --  -11.26525 -11.23649 -11.23564 -11.23083 -11.22802
 Alpha  occ. eigenvalues --   -1.11145  -1.00998  -0.94496  -0.82259  -0.71076
 Alpha  occ. eigenvalues --   -0.65994  -0.61088  -0.57990  -0.54547  -0.52236
 Alpha  occ. eigenvalues --   -0.44702  -0.39533  -0.33857
 Alpha virt. eigenvalues --    0.03902   0.04264   0.04522   0.05330   0.06323
 Alpha virt. eigenvalues --    0.06728   0.07602   0.08109   0.08136   0.09470
 Alpha virt. eigenvalues --    0.09860   0.11098   0.11687   0.11716   0.12372

 Mulliken charges:
               1
     1  C   -0.531622
     2  C    0.193526
     3  C    0.161557
     4  C   -0.437516
     5  C   -0.561013
     6  H    0.250722
     7  H    0.196506
     8  H    0.190221
     9  H    0.185790
    10  H    0.166039
    11  H    0.185789
 Sum of Mulliken charges =  -0.00000

 Dipole moment (field-independent basis, Debye):
    X=             -0.5075    Y=             -0.1959    Z=             -0.0001  Tot=              0.5440
 Quadrupole moment (field-independent basis, Debye-Ang):
   XX=            -25.1195   YY=            -30.1488   ZZ=            -33.7432
   XY=             -0.5073   XZ=             -0.0002   YZ=             -0.0000

 Normal termination of Gaussian 09 at Fri Aug 26 13:02:15 2022.
