 Gaussian 09, Revision E.01,
 Gaussian 09:  ES64L-G09RevE.01 30-Nov-2015

 -----
 #P G4
 -----

 --------
 Frag_971
 --------
 Symbolic Z-matrix:
 Charge =  0 Multiplicity = 1

 SCF Done:  E(RB3LYP) =  -265.901982467     A.U. after   15 cycles
 SCF Done:  E(RB3LYP) =  -265.914414188     A.U. after   13 cycles
 SCF Done:  E(RB3LYP) =  -265.909907923     A.U. after   14 cycles
 SCF Done:  E(RB3LYP) =  -265.914851115     A.U. after   11 cycles
 SCF Done:  E(RB3LYP) =  -265.915241749     A.U. after   12 cycles
 SCF Done:  E(RB3LYP) =  -265.915261796     A.U. after   12 cycles
 SCF Done:  E(RB3LYP) =  -265.915459185     A.U. after   12 cycles
 SCF Done:  E(RB3LYP) =  -265.915460295     A.U. after    8 cycles
 Optimization completed.
    -- Stationary point found.
 Normal termination of Gaussian 09 at Fri Aug 26 10:02:46 2022.

 ----------------------------------------------------------
 #P Geom=AllCheck Guess=TCheck SCRF=Check B3LYP/GTBas3 Freq
 ----------------------------------------------------------

 Structure from the checkpoint file:  "G4.Frag_971.chk"
 --------
 Frag_971
 --------
 Charge =  0 Multiplicity = 1

 SCF Done:  E(RB3LYP) =  -265.915460295     A.U. after    1 cycles

  Exact polarizability:  53.088  -2.780  31.824   0.000   0.000  18.701
 Approx polarizability:  92.838 -10.111  53.555  -0.000   0.000  27.196

                      1                      2                      3
                      A                      A                      A
 Frequencies --    186.6710               247.7432               509.0814
 Red. masses --      4.7096                 5.2941                 1.1244
 Frc consts  --      0.0967                 0.1914                 0.1717
 IR Inten    --      3.5568                 0.6968               104.8635

                      4                      5                      6
                      A                      A                      A
 Frequencies --    539.4957               603.8223               672.7933
 Red. masses --      6.5064                 8.2258                 1.2542
 Frc consts  --      1.1158                 1.7670                 0.3345
 IR Inten    --      3.7322                10.4816                37.4453

                      7                      8                      9
                      A                      A                      A
 Frequencies --    708.2714               768.2444               835.8359
 Red. masses --      1.3462                 6.8112                 9.3112
 Frc consts  --      0.3979                 2.3685                 3.8326
 IR Inten    --     24.9369                22.6794                21.2541

                     10                     11                     12
                      A                      A                      A
 Frequencies --   1176.4940              1310.7690              1855.6289
 Red. masses --      2.2963                 2.0975                10.4848
 Frc consts  --      1.8727                 2.1233                21.2712
 IR Inten    --     38.1934               461.1040               263.8568

                     13                     14                     15
                      A                      A                      A
 Frequencies --   2225.5172              3493.5690              3788.5006
 Red. masses --      5.8895                 1.1636                 1.0657
 Frc consts  --     17.1866                 8.3672                 9.0123
 IR Inten    --     51.4911                56.7627                52.4643

 - Thermochemistry -
 -------------------
 Temperature   298.150 Kelvin.  Pressure   1.00000 Atm.
 Atom     1 has atomic number  6 and mass  12.00000

 Molecular mass:    70.00548 amu.
 Principal axes and moments of inertia in atomic units:
                           1         2         3
     Eigenvalues --   154.01044 428.99562 583.00607
           X            0.99996   0.00888   0.00000
           Y           -0.00888   0.99996  -0.00000
           Z           -0.00000   0.00000   1.00000
 This molecule is an asymmetric top.
 Rotational symmetry number  1.
 Rotational temperatures (Kelvin)      0.56239     0.20190     0.14856
 Rotational constants (GHZ):          11.71830     4.20690     3.09558
 Zero-point vibrational energy     113181.3 (Joules/Mol)
                                   27.05098 (Kcal/Mol)
 Warning -- explicit consideration of   5 degrees of freedom as
           vibrations may cause significant error
 Vibrational temperatures:    268.58   356.45   732.45   776.21   868.76
          (Kelvin)            968.00  1019.04  1105.33  1202.58  1692.71
                             1885.90  2669.83  3202.02  5026.46  5450.80

 Zero-point correction=                           0.043108 (Hartree/Particle)
 Thermal correction to Energy=                    0.048005
 Thermal correction to Enthalpy=                  0.048949
 Thermal correction to Gibbs Free Energy=         0.015409
 Sum of electronic and zero-point Energies=           -265.872352
 Sum of electronic and thermal Energies=              -265.867455
 Sum of electronic and thermal Enthalpies=            -265.866511
 Sum of electronic and thermal Free Energies=         -265.900051

                     E (Thermal)             CV                S
                      KCal/Mol        Cal/Mol-Kelvin    Cal/Mol-Kelvin
 Total                   30.124             16.385             70.591
 Electronic               0.000              0.000              0.000
 Translational            0.889              2.981             38.655
 Rotational               0.889              2.981             25.158
 Vibrational             28.346             10.424              6.779
 Vibration     1          0.632              1.858              2.261
 Vibration     2          0.661              1.767              1.747
 Vibration     3          0.864              1.230              0.636
 Vibration     4          0.895              1.163              0.566
 Vibration     5          0.962              1.024              0.443

 Optimization completed.
    -- Stationary point found.
 Normal termination of Gaussian 09 at Fri Aug 26 10:03:00 2022.

 -----------------------------------------------------------------
 #P Geom=AllCheck Guess=TCheck SCRF=Check CCSD(T,E4T,FrzG4)/GTBas1
 -----------------------------------------------------------------

 Structure from the checkpoint file:  "G4.Frag_971.chk"
 --------
 Frag_971
 --------
 Charge =  0 Multiplicity = 1

 SCF Done:  E(RHF) =  -264.420527170     A.U. after   15 cycles
 E2 =    -0.7251120783D+00 EUMP2 =    -0.26514563924875D+03
 CCSD(T)
 CCSD(T)= -0.26518864003D+03
 6331\CCSD(T)=-265.18864\RMSD=6.062e-09\PG=C01 [X(C3H2O2)]\\@
 Normal termination of Gaussian 09 at Fri Aug 26 10:03:34 2022.

 ---------------------------------------------------------
 #P Geom=AllCheck Guess=TCheck SCRF=Check MP4=FrzG4/GTBas2
 ---------------------------------------------------------

 Structure from the checkpoint file:  "G4.Frag_971.chk"
 --------
 Frag_971
 --------
 Charge =  0 Multiplicity = 1

 SCF Done:  E(RHF) =  -264.430077560     A.U. after   14 cycles
 E2 =    -0.7343875672D+00 EUMP2 =    -0.26516446512682D+03
 Normal termination of Gaussian 09 at Fri Aug 26 10:03:44 2022.

 ---------------------------------------------------------
 #P Geom=AllCheck Guess=TCheck SCRF=Check MP4=FrzG4/GTBas3
 ---------------------------------------------------------

 Structure from the checkpoint file:  "G4.Frag_971.chk"
 --------
 Frag_971
 --------
 Charge =  0 Multiplicity = 1

 SCF Done:  E(RHF) =  -264.453073159     A.U. after   13 cycles
 E2 =    -0.8712459772D+00 EUMP2 =    -0.26532431913654D+03
 Normal termination of Gaussian 09 at Fri Aug 26 10:04:25 2022.

 -----------------------------------------------------------
 #P Geom=AllCheck Guess=TCheck SCRF=Check MP2=Full/GTLargeXP
 -----------------------------------------------------------

 Structure from the checkpoint file:  "G4.Frag_971.chk"
 --------
 Frag_971
 --------
 Charge =  0 Multiplicity = 1

 SCF Done:  E(RHF) =  -264.524791449     A.U. after   15 cycles
 E2 =    -0.1148205012D+01 EUMP2 =    -0.26567299646125D+03
 Normal termination of Gaussian 09 at Fri Aug 26 10:04:51 2022.
 SCF Done:  E(RHF) =  -264.546112105     A.U. after    9 cycles
 Normal termination of Gaussian 09 at Fri Aug 26 10:05:22 2022.

                         Standard orientation:
 ---------------------------------------------------------------------
 Center     Atomic      Atomic             Coordinates (Angstroms)
 Number     Number       Type             X           Y           Z
 ---------------------------------------------------------------------
      1          6           0       -2.139252   -0.008156    0.000003
      2          6           0       -0.938076   -0.060239    0.000009
      3          6           0        0.513889   -0.130152    0.000003
      4          8           0        1.139054   -1.151868   -0.000003
      5          8           0        1.126066    1.076146   -0.000003
      6          1           0       -3.202237    0.019297   -0.000041
      7          1           0        0.461915    1.777764    0.000000
 ---------------------------------------------------------------------

 SCF Done:  E(RHF) =  -264.550361699     A.U. after    8 cycles

 The electronic state is 1-A.
 Alpha  occ. eigenvalues --  -20.62922 -20.56589 -11.42367 -11.28635 -11.27620
 Alpha  occ. eigenvalues --   -1.48124  -1.38675  -1.08366  -0.91460  -0.82496
 Alpha  occ. eigenvalues --   -0.74934  -0.68302  -0.65270  -0.62038  -0.50694
 Alpha  occ. eigenvalues --   -0.49372  -0.44384  -0.44248
 Alpha virt. eigenvalues --    0.02763   0.04244   0.04982   0.05876   0.06648
 Alpha virt. eigenvalues --    0.06983   0.07440   0.09075   0.09885   0.10701
 Alpha virt. eigenvalues --    0.11648   0.12613   0.13392   0.13945   0.15086

 Mulliken charges:
               1
     1  C   -0.432505
     2  C    0.196036
     3  C    0.523207
     4  O   -0.463547
     5  O   -0.489366
     6  H    0.268703
     7  H    0.397472
 Sum of Mulliken charges =  -0.00000

 Dipole moment (field-independent basis, Debye):
    X=             -3.9942    Y=              2.8600    Z=             -0.0000  Tot=              4.9126
 Quadrupole moment (field-independent basis, Debye-Ang):
   XX=            -24.8533   YY=            -28.5501   ZZ=            -28.5496
   XY=              1.2673   XZ=              0.0002   YZ=             -0.0000

 Normal termination of Gaussian 09 at Fri Aug 26 10:08:22 2022.
