 Gaussian 09, Revision E.01,
 Gaussian 09:  ES64L-G09RevE.01 30-Nov-2015

 -------------------------
 #P OPT Freq B3LYP/6-31G**
 -------------------------

 ------
 KOBXOO
 ------
 Symbolic Z-matrix:
 Charge =  0 Multiplicity = 1

 SCF Done:  E(RB3LYP) =  -561.210108143     A.U. after   17 cycles
 SCF Done:  E(RB3LYP) =  -561.271282873     A.U. after   14 cycles
 SCF Done:  E(RB3LYP) =  -561.281686305     A.U. after   15 cycles
 SCF Done:  E(RB3LYP) =  -561.284286868     A.U. after   14 cycles
 SCF Done:  E(RB3LYP) =  -561.286021111     A.U. after   15 cycles
 SCF Done:  E(RB3LYP) =  -561.288702805     A.U. after   14 cycles
 SCF Done:  E(RB3LYP) =  -561.290134880     A.U. after   14 cycles
 SCF Done:  E(RB3LYP) =  -561.290625347     A.U. after   13 cycles
 SCF Done:  E(RB3LYP) =  -561.290772975     A.U. after   12 cycles
 SCF Done:  E(RB3LYP) =  -561.290819082     A.U. after   11 cycles
 SCF Done:  E(RB3LYP) =  -561.290840165     A.U. after   10 cycles
 SCF Done:  E(RB3LYP) =  -561.290853274     A.U. after   10 cycles
 SCF Done:  E(RB3LYP) =  -561.290859911     A.U. after    9 cycles
 SCF Done:  E(RB3LYP) =  -561.290861751     A.U. after   10 cycles
 Optimization completed.
    -- Stationary point found.
 Normal termination of Gaussian 09 at Fri Aug 20 15:57:36 2021.

 ----------------------------------------------------------------------
 #P Geom=AllCheck Guess=TCheck SCRF=Check GenChk RB3LYP/6-31G(d,p) Freq
 ----------------------------------------------------------------------

 Structure from the checkpoint file:  "/public/home/users/caep010/.cache/gau_scr/Gau-7003.chk"
 ------
 KOBXOO
 ------
 Charge =  0 Multiplicity = 1

                         Standard orientation:
 ---------------------------------------------------------------------
 Center     Atomic      Atomic             Coordinates (Angstroms)
 Number     Number       Type             X           Y           Z
 ---------------------------------------------------------------------
      1          8           0       -0.857908   -2.335881    0.049163
      2          6           0       -0.885941   -1.127628   -0.032448
      3          7           0       -2.106131   -0.380358   -0.123627
      4          1           0       -2.831512   -0.726036    0.498018
      5          6           0        0.155204   -0.101364   -0.031370
      6          7           0        1.552136   -0.307999   -0.005302
      7          8           0        2.280920    0.714302    0.026914
      8          6           0       -0.446834    1.147950    0.022593
      9          7           0        0.118538    2.362181   -0.041162
     10          1           0       -0.390654    3.171356    0.279675
     11          1           0        1.133471    2.342980    0.012595
     12          8           0        1.987257   -1.454108   -0.021923
     13          7           0       -1.818727    0.998262    0.105157
     14          1           0       -2.348745    1.598856   -0.521625
 ---------------------------------------------------------------------

 SCF Done:  E(RB3LYP) =  -561.290861751     A.U. after    1 cycles

 The electronic state is 1-A.
 Alpha  occ. eigenvalues --  -19.16997 -19.16805 -19.12723 -14.56731 -14.43535
 Alpha  occ. eigenvalues --  -14.40664 -14.40192 -10.32634 -10.30721 -10.24334
 Alpha  occ. eigenvalues --   -1.21188  -1.08091  -1.03922  -1.02877  -0.97256
 Alpha  occ. eigenvalues --   -0.84496  -0.84271  -0.72826  -0.64629  -0.61569
 Alpha  occ. eigenvalues --   -0.58198  -0.55273  -0.52875  -0.52631  -0.52128
 Alpha  occ. eigenvalues --   -0.51018  -0.48287  -0.44580  -0.42395  -0.40216
 Alpha  occ. eigenvalues --   -0.35850  -0.30655  -0.29893  -0.28307  -0.27401
 Alpha  occ. eigenvalues --   -0.26246  -0.25421
 Alpha virt. eigenvalues --   -0.07095  -0.01691   0.03930   0.06648   0.07187
 Alpha virt. eigenvalues --    0.10729   0.11172   0.14472   0.16570   0.22581
 Alpha virt. eigenvalues --    0.22817   0.26575   0.29633   0.33035   0.36012

 Mulliken charges:
               1
     1  O   -0.475406
     2  C    0.570920
     3  N   -0.419356
     4  H    0.292175
     5  C    0.182153
     6  N    0.338064
     7  O   -0.470603
     8  C    0.545322
     9  N   -0.645602
    10  H    0.283685
    11  H    0.322159
    12  O   -0.378630
    13  N   -0.439669
    14  H    0.294790
 Sum of Mulliken charges =   0.00000

 Dipole moment (field-independent basis, Debye):
    X=             -4.9045    Y=              7.1030    Z=              0.5188  Tot=              8.6473
 Quadrupole moment (field-independent basis, Debye-Ang):
   XX=            -55.7139   YY=            -53.9832   ZZ=            -54.9181
   XY=             -2.6186   XZ=             -0.7189   YZ=             -0.2852

  Exact polarizability:  83.275  -3.246  93.400  -0.896  -1.196  28.995
 Approx polarizability: 130.716  -8.824 182.494  -1.763  -2.411  44.722

                      1                      2                      3
                      A                      A                      A
 Frequencies --     84.2697               138.7463               206.9142
 Red. masses --     13.5285                 6.8021                 5.8408
 Frc consts  --      0.0566                 0.0772                 0.1473
 IR Inten    --      1.5474                 0.8014                 3.8287

                      4                      5                      6
                      A                      A                      A
 Frequencies --    227.4119               303.8692               326.0438
 Red. masses --     10.2444                 3.6623                 3.5131
 Frc consts  --      0.3122                 0.1992                 0.2200
 IR Inten    --      2.5281                 3.3118                11.5991

                      7                      8                      9
                      A                      A                      A
 Frequencies --    398.4144               416.5090               456.0439
 Red. masses --      1.2620                 9.5811                 8.2286
 Frc consts  --      0.1180                 0.9793                 1.0083
 IR Inten    --    200.9584                 1.0973                14.0687

                     10                     11                     12
                      A                      A                      A
 Frequencies --    568.3348               598.0004               612.3702
 Red. masses --      1.7030                 2.6097                 3.1918
 Frc consts  --      0.3241                 0.5498                 0.7052
 IR Inten    --    123.3821                71.8947                23.4924

                     13                     14                     15
                      A                      A                      A
 Frequencies --    652.4513               679.8364               734.9790
 Red. masses --      3.1021                 1.8009                 7.7503
 Frc consts  --      0.7780                 0.4904                 2.4667
 IR Inten    --     12.5510                45.0059                41.6973

                     16                     17                     18
                      A                      A                      A
 Frequencies --    756.7377               765.1100               780.7301
 Red. masses --      5.6498                 3.2807                 4.9863
 Frc consts  --      1.9062                 1.1315                 1.7907
 IR Inten    --     70.2816               161.4459               167.9139

                     19                     20                     21
                      A                      A                      A
 Frequencies --    844.9926              1050.8382              1107.0204
 Red. masses --      6.2468                 1.6875                 3.9734
 Frc consts  --      2.6279                 1.0979                 2.8690
 IR Inten    --      4.8856                 7.5637                14.0756

                     22                     23                     24
                      A                      A                      A
 Frequencies --   1146.8964              1211.8470              1276.8548
 Red. masses --      5.0644                 3.1506                 6.0822
 Frc consts  --      3.9249                 2.7261                 5.8424
 IR Inten    --     32.2347                11.0210                 0.9005

                     25                     26                     27
                      A                      A                      A
 Frequencies --   1368.4303              1370.6673              1425.8767
 Red. masses --      2.7509                 1.4249                 1.7357
 Frc consts  --      3.0351                 1.5772                 2.0792
 IR Inten    --    120.8060                90.4818                84.1101

                     28                     29                     30
                      A                      A                      A
 Frequencies --   1533.7315              1559.1036              1618.4103
 Red. masses --      2.6852                 2.6171                 3.6596
 Frc consts  --      3.7216                 3.7482                 5.6476
 IR Inten    --    238.0267               130.3524                71.0119

                     31                     32                     33
                      A                      A                      A
 Frequencies --   1698.7196              1850.2871              3511.1719
 Red. masses --      4.5365                11.7261                 1.0523
 Frc consts  --      7.7128                23.6527                 7.6437
 IR Inten    --    526.9099               396.3312               109.9005

                     34                     35                     36
                      A                      A                      A
 Frequencies --   3531.8948              3563.9771              3694.0321
 Red. masses --      1.0758                 1.0778                 1.0976
 Frc consts  --      7.9067                 8.0661                 8.8248
 IR Inten    --     19.5978                30.8629                91.6733

 - Thermochemistry -
 -------------------
 Temperature   298.150 Kelvin.  Pressure   1.00000 Atm.
 Atom     1 has atomic number  8 and mass  15.99491

 Molecular mass:   144.02834 amu.
 Principal axes and moments of inertia in atomic units:
                           1         2         3
     Eigenvalues --   983.735661173.691612149.68764
           X            0.99996  -0.00875  -0.00088
           Y            0.00875   0.99996  -0.00097
           Z            0.00088   0.00096   1.00000
 This molecule is an asymmetric top.
 Rotational symmetry number  1.
 Warning -- assumption of classical behavior for rotation
           may cause significant error
 Rotational temperatures (Kelvin)      0.08805     0.07380     0.04029
 Rotational constants (GHZ):           1.83458     1.53766     0.83954
 Zero-point vibrational energy     251643.6 (Joules/Mol)
                                   60.14426 (Kcal/Mol)
 Warning -- explicit consideration of  12 degrees of freedom as
           vibrations may cause significant error
 Vibrational temperatures:    121.25   199.62   297.70   327.19   437.20
          (Kelvin)            469.10   573.23   599.26   656.14   817.71
                              860.39   881.06   938.73   978.13  1057.47
                             1088.78  1100.82  1123.30  1215.75  1511.92
                             1592.75  1650.13  1743.58  1837.11  1968.86
                             1972.08  2051.52  2206.69  2243.20  2328.53
                             2444.08  2662.15  5051.79  5081.60  5127.76
                             5314.88

 Zero-point correction=                           0.095846 (Hartree/Particle)
 Thermal correction to Energy=                    0.104162
 Thermal correction to Enthalpy=                  0.105106
 Thermal correction to Gibbs Free Energy=         0.062538
 Sum of electronic and zero-point Energies=           -561.195016
 Sum of electronic and thermal Energies=              -561.186700
 Sum of electronic and thermal Enthalpies=            -561.185755
 Sum of electronic and thermal Free Energies=         -561.228324

                     E (Thermal)             CV                S
                      KCal/Mol        Cal/Mol-Kelvin    Cal/Mol-Kelvin
 Total                   65.363             31.168             89.592
 Electronic               0.000              0.000              0.000
 Translational            0.889              2.981             40.806
 Rotational               0.889              2.981             29.297
 Vibrational             63.585             25.207             19.490
 Vibration     1          0.601              1.960              3.789
 Vibration     2          0.614              1.915              2.821
 Vibration     3          0.641              1.830              2.071
 Vibration     4          0.651              1.799              1.899
 Vibration     5          0.695              1.666              1.396
 Vibration     6          0.710              1.623              1.280
 Vibration     7          0.765              1.474              0.968
 Vibration     8          0.780              1.434              0.904
 Vibration     9          0.814              1.348              0.778
 Vibration    10          0.924              1.100              0.507
 Vibration    11          0.956              1.036              0.453
 Vibration    12          0.972              1.006              0.429

 Normal termination of Gaussian 09 at Fri Aug 20 15:57:52 2021.
