 Gaussian 09, Revision E.01,
 Gaussian 09:  ES64L-G09RevE.01 30-Nov-2015

 -------------------------
 #P OPT Freq B3LYP/6-31G**
 -------------------------

 ------
 TAFTOJ
 ------
 Symbolic Z-matrix:
 Charge =  0 Multiplicity = 1

 SCF Done:  E(RB3LYP) =  -771.806008166     A.U. after   16 cycles
 SCF Done:  E(RB3LYP) =  -771.811730153     A.U. after   14 cycles
 SCF Done:  E(RB3LYP) =  -771.797392702     A.U. after   17 cycles
 SCF Done:  E(RB3LYP) =  -771.812606068     A.U. after   12 cycles
 SCF Done:  E(RB3LYP) =  -771.813028571     A.U. after   13 cycles
 SCF Done:  E(RB3LYP) =  -771.813059915     A.U. after   14 cycles
 SCF Done:  E(RB3LYP) =  -771.812363703     A.U. after   15 cycles
 SCF Done:  E(RB3LYP) =  -771.813096712     A.U. after    9 cycles
 SCF Done:  E(RB3LYP) =  -771.813140114     A.U. after   12 cycles
 SCF Done:  E(RB3LYP) =  -771.813147268     A.U. after   12 cycles
 SCF Done:  E(RB3LYP) =  -771.813152067     A.U. after   13 cycles
 SCF Done:  E(RB3LYP) =  -771.813154185     A.U. after   12 cycles
 SCF Done:  E(RB3LYP) =  -771.813154872     A.U. after   10 cycles
 SCF Done:  E(RB3LYP) =  -771.813155157     A.U. after    9 cycles
 SCF Done:  E(RB3LYP) =  -771.813155197     A.U. after    8 cycles
 Optimization completed.
    -- Stationary point found.
 Normal termination of Gaussian 09 at Fri Aug 20 15:54:39 2021.

 ----------------------------------------------------------------------
 #P Geom=AllCheck Guess=TCheck SCRF=Check GenChk RB3LYP/6-31G(d,p) Freq
 ----------------------------------------------------------------------

 Structure from the checkpoint file:  "/public/home/users/caep010/.cache/gau_scr/Gau-185507.chk"
 ------
 TAFTOJ
 ------
 Charge =  0 Multiplicity = 1

                         Standard orientation:
 ---------------------------------------------------------------------
 Center     Atomic      Atomic             Coordinates (Angstroms)
 Number     Number       Type             X           Y           Z
 ---------------------------------------------------------------------
      1          7           0       -0.278467   -1.761028   -0.005660
      2          6           0        1.030862   -1.520685   -0.024765
      3          6           0       -1.136606   -0.735270    0.007834
      4          8           0       -2.435613   -0.985266    0.064015
      5          6           0       -2.858777   -2.362987    0.107617
      6          1           0       -2.460924   -2.860428    0.994404
      7          6           0        1.548207   -0.227070   -0.012645
      8          6           0        0.682683    0.862142    0.004463
      9          1           0        1.054925    1.878213    0.020570
     10          7           0        2.994257   -0.013729   -0.022607
     11          8           0        3.395466    1.148574   -0.022930
     12          8           0        3.711515   -1.013928   -0.030177
     13          1           0        1.700116   -2.374485   -0.047853
     14          6           0       -0.677264    0.612388   -0.000874
     15          7           0       -1.581500    1.772772   -0.020647
     16          8           0       -1.110902    2.843220    0.365729
     17          8           0       -2.722870    1.608554   -0.436006
     18          1           0       -3.945863   -2.314016    0.144711
     19          1           0       -2.523686   -2.895726   -0.784255
 ---------------------------------------------------------------------

 SCF Done:  E(RB3LYP) =  -771.813155197     A.U. after    1 cycles

 The electronic state is 1-A.
 Alpha  occ. eigenvalues --  -19.23126 -19.20021 -19.19973 -19.19815 -19.19635
 Alpha  occ. eigenvalues --  -14.59355 -14.59223 -14.38254 -10.34596 -10.28804
 Alpha  occ. eigenvalues --  -10.28580 -10.27995 -10.26725 -10.26636  -1.24421
 Alpha  occ. eigenvalues --   -1.24276  -1.12964  -1.07175  -1.06941  -0.99499
 Alpha  occ. eigenvalues --   -0.88713  -0.85609  -0.77116  -0.74416  -0.72275
 Alpha  occ. eigenvalues --   -0.66332  -0.62015  -0.58694  -0.57426  -0.56702
 Alpha  occ. eigenvalues --   -0.55410  -0.55132  -0.54583  -0.52264  -0.51781
 Alpha  occ. eigenvalues --   -0.51026  -0.48576  -0.46852  -0.44576  -0.44381
 Alpha  occ. eigenvalues --   -0.38845  -0.37808  -0.34653  -0.34282  -0.32673
 Alpha  occ. eigenvalues --   -0.32363  -0.32236  -0.31203  -0.30741  -0.30335
 Alpha  occ. eigenvalues --   -0.28687
 Alpha virt. eigenvalues --   -0.11035  -0.10612  -0.05094  -0.01218   0.06600
 Alpha virt. eigenvalues --    0.08675   0.10068   0.11460   0.12930   0.13751
 Alpha virt. eigenvalues --    0.15081   0.15458   0.16724   0.20057   0.23438

 Mulliken charges:
               1
     1  N   -0.531929
     2  C    0.127988
     3  C    0.580753
     4  O   -0.457670
     5  C   -0.081745
     6  H    0.139168
     7  C    0.202087
     8  C   -0.041774
     9  H    0.190278
    10  N    0.381727
    11  O   -0.386307
    12  O   -0.390528
    13  H    0.164717
    14  C    0.202166
    15  N    0.365018
    16  O   -0.383128
    17  O   -0.363772
    18  H    0.141154
    19  H    0.141795
 Sum of Mulliken charges =  -0.00000

 Dipole moment (field-independent basis, Debye):
    X=             -2.1414    Y=             -4.0611    Z=              0.1059  Tot=              4.5923
 Quadrupole moment (field-independent basis, Debye-Ang):
   XX=            -92.1865   YY=            -80.2476   ZZ=            -74.9469
   XY=              9.9666   XZ=             -1.3418   YZ=             -0.9743

  Exact polarizability: 149.839   5.156 118.339   2.249   2.088  44.590
 Approx polarizability: 248.388  10.991 224.474  11.262   9.355  72.232

                      1                      2                      3
                      A                      A                      A
 Frequencies --     38.1778                55.4147                83.7235
 Red. masses --     13.6076                13.3676                 5.4687
 Frc consts  --      0.0117                 0.0242                 0.0226
 IR Inten    --      0.4364                 0.1920                 0.2291

                      4                      5                      6
                      A                      A                      A
 Frequencies --    122.2296               160.5590               166.2889
 Red. masses --      3.4046                10.0645                 3.1169
 Frc consts  --      0.0300                 0.1529                 0.0508
 IR Inten    --      0.1780                 3.7412                 9.9494

                      7                      8                      9
                      A                      A                      A
 Frequencies --    177.7340               191.1583               299.6554
 Red. masses --      1.4009                 4.3844                 6.3253
 Frc consts  --      0.0261                 0.0944                 0.3346
 IR Inten    --      4.2545                 2.1873                 5.3264

                     10                     11                     12
                      A                      A                      A
 Frequencies --    321.9319               341.1935               376.5548
 Red. masses --      9.6615                12.0049                10.0475
 Frc consts  --      0.5900                 0.8234                 0.8394
 IR Inten    --      0.7307                 1.2337                 0.9576

                     13                     14                     15
                      A                      A                      A
 Frequencies --    414.8797               465.1387               527.2231
 Red. masses --      6.0470                 5.5273                 5.7667
 Frc consts  --      0.6132                 0.7046                 0.9444
 IR Inten    --      4.2238                 3.6688                 1.3767

                     16                     17                     18
                      A                      A                      A
 Frequencies --    537.3580               629.8907               670.9758
 Red. masses --      4.2923                 7.4658                 6.7566
 Frc consts  --      0.7302                 1.7452                 1.7922
 IR Inten    --      2.7630                 8.6575                 3.0740

                     19                     20                     21
                      A                      A                      A
 Frequencies --    711.8967               732.4928               758.6391
 Red. masses --      8.6950                11.2843                 8.5463
 Frc consts  --      2.5963                 3.5672                 2.8980
 IR Inten    --     37.6063                16.0439                18.8851

                     22                     23                     24
                      A                      A                      A
 Frequencies --    784.6249               827.9731               841.2670
 Red. masses --     10.3294                 6.5236                14.8039
 Frc consts  --      3.7467                 2.6349                 6.1730
 IR Inten    --     13.8856                10.3125                32.2482

                     25                     26                     27
                      A                      A                      A
 Frequencies --    959.7784               980.2940               988.6923
 Red. masses --      8.9656                 1.4820                 1.3656
 Frc consts  --      4.8660                 0.8391                 0.7865
 IR Inten    --     31.4157                14.5699                 1.4287

                     28                     29                     30
                      A                      A                      A
 Frequencies --   1028.0581              1091.3380              1165.3309
 Red. masses --      8.1659                 1.9134                 5.3885
 Frc consts  --      5.0850                 1.3427                 4.3114
 IR Inten    --     67.2497                66.5497                17.5813

                     31                     32                     33
                      A                      A                      A
 Frequencies --   1173.2152              1198.6260              1258.2962
 Red. masses --      1.2644                 1.3966                 1.5918
 Frc consts  --      1.0254                 1.1822                 1.4849
 IR Inten    --      0.7638                17.6778                52.2284

                     34                     35                     36
                      A                      A                      A
 Frequencies --   1342.8279              1362.5806              1387.3505
 Red. masses --      7.9130                 3.4101                12.0019
 Frc consts  --      8.4069                 3.7303                13.6104
 IR Inten    --    131.0303                72.4146               514.7735

                     37                     38                     39
                      A                      A                      A
 Frequencies --   1401.8802              1444.0009              1459.1662
 Red. masses --      9.3183                 3.8035                 1.7965
 Frc consts  --     10.7897                 4.6727                 2.2537
 IR Inten    --    211.4358                81.9353                22.8726

                     40                     41                     42
                      A                      A                      A
 Frequencies --   1496.0278              1503.4851              1532.2752
 Red. masses --      1.0476                 1.0608                 2.4028
 Frc consts  --      1.3815                 1.4128                 3.3238
 IR Inten    --      8.1001                18.4262               104.3837

                     43                     44                     45
                      A                      A                      A
 Frequencies --   1595.1319              1630.9201              1660.8942
 Red. masses --      9.9427                 9.0665                11.6715
 Frc consts  --     14.9055                14.2088                18.9697
 IR Inten    --      3.8533                17.9191               220.2023

                     46                     47                     48
                      A                      A                      A
 Frequencies --   1675.9781              3073.4835              3156.8361
 Red. masses --     10.6934                 1.0293                 1.1077
 Frc consts  --     17.6971                 5.7289                 6.5037
 IR Inten    --    490.1248                33.0381                14.1703

                     49                     50                     51
                      A                      A                      A
 Frequencies --   3188.6357              3222.7442              3262.5836
 Red. masses --      1.1078                 1.0925                 1.0922
 Frc consts  --      6.6360                 6.6852                 6.8495
 IR Inten    --     11.1575                 0.5460                19.7303

 - Thermochemistry -
 -------------------
 Temperature   298.150 Kelvin.  Pressure   1.00000 Atm.
 Atom     1 has atomic number  7 and mass  14.00307

 Molecular mass:   199.02292 amu.
 Principal axes and moments of inertia in atomic units:
                           1         2         3
     Eigenvalues --  1655.766043591.705385196.98659
           X            0.99921   0.03968  -0.00115
           Y           -0.03968   0.99921  -0.00175
           Z            0.00108   0.00179   1.00000
 This molecule is an asymmetric top.
 Rotational symmetry number  1.
 Warning -- assumption of classical behavior for rotation
           may cause significant error
 Rotational temperatures (Kelvin)      0.05231     0.02411     0.01667
 Rotational constants (GHZ):           1.08997     0.50247     0.34727
 Zero-point vibrational energy     331828.6 (Joules/Mol)
                                   79.30894 (Kcal/Mol)
 Warning -- explicit consideration of  16 degrees of freedom as
           vibrations may cause significant error
 Vibrational temperatures:     54.93    79.73   120.46   175.86   231.01
          (Kelvin)            239.25   255.72   275.03   431.14   463.19
                              490.90   541.78   596.92   669.23   758.56
                              773.14   906.27   965.38  1024.26  1053.89
                             1091.51  1128.90  1191.27  1210.39  1380.91
                             1410.42  1422.51  1479.14  1570.19  1676.65
                             1687.99  1724.55  1810.41  1932.03  1960.45
                             1996.09  2016.99  2077.59  2099.41  2152.45
                             2163.18  2204.60  2295.04  2346.53  2389.65
                             2411.36  4422.05  4541.98  4587.73  4636.80
                             4694.12

 Zero-point correction=                           0.126387 (Hartree/Particle)
 Thermal correction to Energy=                    0.138349
 Thermal correction to Enthalpy=                  0.139293
 Thermal correction to Gibbs Free Energy=         0.086685
 Sum of electronic and zero-point Energies=           -771.686768
 Sum of electronic and thermal Energies=              -771.674806
 Sum of electronic and thermal Enthalpies=            -771.673862
 Sum of electronic and thermal Free Energies=         -771.726470

                     E (Thermal)             CV                S
                      KCal/Mol        Cal/Mol-Kelvin    Cal/Mol-Kelvin
 Total                   86.815             42.582            110.723
 Electronic               0.000              0.000              0.000
 Translational            0.889              2.981             41.770
 Rotational               0.889              2.981             31.803
 Vibrational             85.038             36.621             37.151
 Vibration     1          0.594              1.982              5.351
 Vibration     2          0.596              1.975              4.614
 Vibration     3          0.601              1.960              3.802
 Vibration     4          0.610              1.931              3.065
 Vibration     5          0.622              1.891              2.543
 Vibration     6          0.624              1.884              2.477
 Vibration     7          0.628              1.870              2.352
 Vibration     8          0.634              1.852              2.217
 Vibration     9          0.692              1.674              1.419
 Vibration    10          0.707              1.632              1.300
 Vibration    11          0.721              1.593              1.207
 Vibration    12          0.747              1.520              1.053
 Vibration    13          0.778              1.438              0.910
 Vibration    14          0.823              1.327              0.751
 Vibration    15          0.882              1.190              0.593
 Vibration    16          0.892              1.167              0.571

 Optimization completed.
    -- Stationary point found.
 Normal termination of Gaussian 09 at Fri Aug 20 15:55:12 2021.
