 Gaussian 09, Revision E.01,
 Gaussian 09:  ES64L-G09RevE.01 30-Nov-2015

 -------------------------
 #P OPT Freq B3LYP/6-31G**
 -------------------------

 ------
 FUHSEG
 ------
 Symbolic Z-matrix:
 Charge =  0 Multiplicity = 1

 SCF Done:  E(RB3LYP) =  -606.290613576     A.U. after   16 cycles
 SCF Done:  E(RB3LYP) =  -606.368787221     A.U. after   14 cycles
 SCF Done:  E(RB3LYP) =  -606.393814375     A.U. after   15 cycles
 SCF Done:  E(RB3LYP) =  -606.379841976     A.U. after   18 cycles
 SCF Done:  E(RB3LYP) =  -606.394586081     A.U. after   13 cycles
 SCF Done:  E(RB3LYP) =  -606.395349651     A.U. after   14 cycles
 SCF Done:  E(RB3LYP) =  -606.395425030     A.U. after   12 cycles
 SCF Done:  E(RB3LYP) =  -606.395441143     A.U. after   12 cycles
 SCF Done:  E(RB3LYP) =  -606.395445265     A.U. after   11 cycles
 SCF Done:  E(RB3LYP) =  -606.395446858     A.U. after   10 cycles
 SCF Done:  E(RB3LYP) =  -606.395447266     A.U. after    9 cycles
 Optimization completed.
    -- Stationary point found.
 Normal termination of Gaussian 09 at Fri Aug 20 15:40:48 2021.

 ----------------------------------------------------------------------
 #P Geom=AllCheck Guess=TCheck SCRF=Check GenChk RB3LYP/6-31G(d,p) Freq
 ----------------------------------------------------------------------

 Structure from the checkpoint file:  "/public/home/users/caep010/.cache/gau_scr/Gau-145964.chk"
 ------
 FUHSEG
 ------
 Charge =  0 Multiplicity = 1

                         Standard orientation:
 ---------------------------------------------------------------------
 Center     Atomic      Atomic             Coordinates (Angstroms)
 Number     Number       Type             X           Y           Z
 ---------------------------------------------------------------------
      1          8           0        3.759875    0.094385    0.000004
      2          7           0        2.766881   -0.627827    0.000077
      3          6           0        1.456700    0.061450   -0.000009
      4          8           0        2.779096   -1.856891    0.000102
      5          6           0        1.551869    1.480014   -0.000154
      6          6           0        0.336099   -0.700423    0.000054
      7          6           0       -1.068810   -0.338913    0.000041
      8          6           0       -1.561125    0.984680    0.000154
      9          6           0       -2.930748    1.220046    0.000157
     10          6           0       -3.834750    0.152921    0.000018
     11          6           0       -3.364217   -1.161885   -0.000146
     12          7           0        1.571322    2.643676   -0.000189
     13          6           0       -1.995693   -1.404375   -0.000131
     14          1           0       -1.626527   -2.426090   -0.000349
     15          1           0        0.551182   -1.766216   -0.000013
     16          1           0       -0.877846    1.824597    0.000238
     17          1           0       -3.297039    2.241712    0.000379
     18          1           0       -4.061965   -1.993189   -0.000328
     19          1           0       -4.902947    0.347186    0.000094
 ---------------------------------------------------------------------

 SCF Done:  E(RB3LYP) =  -606.395447266     A.U. after    1 cycles

 The electronic state is 1-A.
 Alpha  occ. eigenvalues --  -19.19528 -19.19477 -14.58870 -14.35929 -10.29220
 Alpha  occ. eigenvalues --  -10.26317 -10.25303 -10.24187 -10.23099 -10.22899
 Alpha  occ. eigenvalues --  -10.22637 -10.22381 -10.22266  -1.23972  -1.06785
 Alpha  occ. eigenvalues --   -0.92940  -0.89755  -0.86714  -0.79986  -0.78019
 Alpha  occ. eigenvalues --   -0.71932  -0.66721  -0.63615  -0.62887  -0.57255
 Alpha  occ. eigenvalues --   -0.55534  -0.54695  -0.52278  -0.50534  -0.49529
 Alpha  occ. eigenvalues --   -0.46319  -0.45498  -0.44074  -0.41633  -0.38981
 Alpha  occ. eigenvalues --   -0.38815  -0.38284  -0.37706  -0.35540  -0.33299
 Alpha  occ. eigenvalues --   -0.32136  -0.32066  -0.30210  -0.28548  -0.26890
 Alpha virt. eigenvalues --   -0.11945  -0.05554  -0.03321  -0.00596  -0.00261
 Alpha virt. eigenvalues --    0.06865   0.09953   0.10755   0.13134   0.14135
 Alpha virt. eigenvalues --    0.14498   0.14827   0.16496   0.18409   0.20339

 Mulliken charges:
               1
     1  O   -0.384618
     2  N    0.449799
     3  C    0.255612
     4  O   -0.403008
     5  C    0.308235
     6  C   -0.111644
     7  C    0.127670
     8  C   -0.108451
     9  C   -0.091348
    10  C   -0.069577
    11  C   -0.089383
    12  N   -0.492342
    13  C   -0.112985
    14  H    0.107861
    15  H    0.158644
    16  H    0.129467
    17  H    0.111296
    18  H    0.106742
    19  H    0.108029
 Sum of Mulliken charges =  -0.00000

 Dipole moment (field-independent basis, Debye):
    X=             -6.5524    Y=             -2.0399    Z=              0.0001  Tot=              6.8626
 Quadrupole moment (field-independent basis, Debye-Ang):
   XX=            -75.8625   YY=            -78.1495   ZZ=            -73.6866
   XY=             -1.0360   XZ=              0.0001   YZ=              0.0024

  Exact polarizability: 198.677  10.663 127.874  -0.001   0.004  38.873
 Approx polarizability: 316.399  33.717 256.291  -0.001   0.005  60.593

                      1                      2                      3
                      A                      A                      A
 Frequencies --     40.3842                62.7058                91.7538
 Red. masses --      4.6879                12.0659                 6.0294
 Frc consts  --      0.0045                 0.0280                 0.0299
 IR Inten    --      0.4183                 0.0098                 1.4794

                      4                      5                      6
                      A                      A                      A
 Frequencies --    117.4885               170.4952               236.0190
 Red. masses --      7.6314                10.1919                 7.8399
 Frc consts  --      0.0621                 0.1746                 0.2573
 IR Inten    --      1.3639                 3.4308                 8.6113

                      7                      8                      9
                      A                      A                      A
 Frequencies --    250.2498               332.1773               334.2926
 Red. masses --      7.9007                 3.8026                 7.1576
 Frc consts  --      0.2915                 0.2472                 0.4713
 IR Inten    --      0.0852                 0.0346                 1.0719

                     10                     11                     12
                      A                      A                      A
 Frequencies --    412.5705               441.4190               494.2425
 Red. masses --      2.9385                11.5794                 3.7021
 Frc consts  --      0.2947                 1.3294                 0.5328
 IR Inten    --      0.0013                 0.3410                 4.7527

                     13                     14                     15
                      A                      A                      A
 Frequencies --    531.6523               593.7920               611.1341
 Red. masses --     13.5979                 6.0707                 7.2126
 Frc consts  --      2.2645                 1.2611                 1.5871
 IR Inten    --      1.1620                 4.8696                17.7082

                     16                     17                     18
                      A                      A                      A
 Frequencies --    628.2446               697.5853               741.5562
 Red. masses --      6.4310                 1.8975                 6.2081
 Frc consts  --      1.4955                 0.5440                 2.0114
 IR Inten    --      0.1313                30.0548                 3.3351

                     19                     20                     21
                      A                      A                      A
 Frequencies --    773.3014               783.6745               813.4618
 Red. masses --      8.9529                 1.8642                 7.3509
 Frc consts  --      3.1544                 0.6746                 2.8659
 IR Inten    --     13.1387                32.6203                12.1687

                     22                     23                     24
                      A                      A                      A
 Frequencies --    858.7912               890.7040               945.2284
 Red. masses --      1.2570                 6.6173                 1.3272
 Frc consts  --      0.5462                 3.0931                 0.6987
 IR Inten    --      0.0483                32.3982                 0.0611

                     25                     26                     27
                      A                      A                      A
 Frequencies --    983.2643               994.8436              1014.9621
 Red. masses --      1.3874                 1.4232                 6.0143
 Frc consts  --      0.7903                 0.8299                 3.6503
 IR Inten    --      2.8282                 5.8573                 2.1422

                     28                     29                     30
                      A                      A                      A
 Frequencies --   1016.5494              1055.2498              1069.6252
 Red. masses --      1.2989                 2.5343                 3.1380
 Frc consts  --      0.7908                 1.6627                 2.1153
 IR Inten    --      0.1450                18.9007                73.1810

                     31                     32                     33
                      A                      A                      A
 Frequencies --   1125.4995              1193.9669              1221.1187
 Red. masses --      1.6251                 1.0973                 1.1656
 Frc consts  --      1.2129                 0.9217                 1.0241
 IR Inten    --      4.5335                 0.5996                31.4201

                     34                     35                     36
                      A                      A                      A
 Frequencies --   1249.2016              1355.2745              1374.0414
 Red. masses --      2.2321                 3.2016                 7.8920
 Frc consts  --      2.0523                 3.4647                 8.7789
 IR Inten    --     48.9028                93.0093               375.9744

                     37                     38                     39
                      A                      A                      A
 Frequencies --   1377.5438              1405.0502              1491.1869
 Red. masses --      2.0910                 1.7978                 2.2956
 Frc consts  --      2.3379                 2.0911                 3.0075
 IR Inten    --     63.8989                13.4271                19.2998

                     40                     41                     42
                      A                      A                      A
 Frequencies --   1538.3625              1622.0109              1631.8831
 Red. masses --      2.1703                 5.5236                 8.5699
 Frc consts  --      3.0262                 8.5621                13.4463
 IR Inten    --      1.6101                36.9246                90.4366

                     43                     44                     45
                      A                      A                      A
 Frequencies --   1654.1894              1682.5628              2344.0625
 Red. masses --      5.6982                 8.7215                12.6687
 Frc consts  --      9.1867                14.5474                41.0131
 IR Inten    --     77.5655               192.7612                 9.7740

                     46                     47                     48
                      A                      A                      A
 Frequencies --   3187.4801              3190.6689              3195.9520
 Red. masses --      1.0873                 1.0864                 1.0890
 Frc consts  --      6.5089                 6.5165                 6.5533
 IR Inten    --      4.2266                 2.1350                 1.0166

                     49                     50                     51
                      A                      A                      A
 Frequencies --   3206.8131              3215.8473              3241.6436
 Red. masses --      1.0928                 1.0977                 1.0928
 Frc consts  --      6.6213                 6.6882                 6.7659
 IR Inten    --     12.3881                15.2351                 3.5260

 - Thermochemistry -
 -------------------
 Temperature   298.150 Kelvin.  Pressure   1.00000 Atm.
 Atom     1 has atomic number  8 and mass  15.99491

 Molecular mass:   174.04293 amu.
 Principal axes and moments of inertia in atomic units:
                           1         2         3
     Eigenvalues --  1012.484833955.538174968.02298
           X            1.00000   0.00059  -0.00000
           Y           -0.00059   1.00000   0.00001
           Z            0.00000  -0.00001   1.00000
 This molecule is an asymmetric top.
 Rotational symmetry number  1.
 Warning -- assumption of classical behavior for rotation
           may cause significant error
 Rotational temperatures (Kelvin)      0.08555     0.02190     0.01743
 Rotational constants (GHZ):           1.78249     0.45626     0.36327
 Zero-point vibrational energy     355839.9 (Joules/Mol)
                                   85.04777 (Kcal/Mol)
 Warning -- explicit consideration of  15 degrees of freedom as
           vibrations may cause significant error
 Vibrational temperatures:     58.10    90.22   132.01   169.04   245.30
          (Kelvin)            339.58   360.05   477.93   480.97   593.60
                              635.10   711.10   764.93   854.33   879.28
                              903.90  1003.67  1066.93  1112.61  1127.53
                             1170.39  1235.61  1281.52  1359.97  1414.70
                             1431.36  1460.30  1462.59  1518.27  1538.95
                             1619.34  1717.85  1756.92  1797.32  1949.94
                             1976.94  1981.98  2021.55  2145.48  2213.36
                             2333.71  2347.91  2380.01  2420.83  3372.58
                             4586.07  4590.66  4598.26  4613.88  4626.88
                             4664.00

 Zero-point correction=                           0.135532 (Hartree/Particle)
 Thermal correction to Energy=                    0.146248
 Thermal correction to Enthalpy=                  0.147192
 Thermal correction to Gibbs Free Energy=         0.097619
 Sum of electronic and zero-point Energies=           -606.259915
 Sum of electronic and thermal Energies=              -606.249199
 Sum of electronic and thermal Enthalpies=            -606.248255
 Sum of electronic and thermal Free Energies=         -606.297829

                     E (Thermal)             CV                S
                      KCal/Mol        Cal/Mol-Kelvin    Cal/Mol-Kelvin
 Total                   91.772             39.584            104.337
 Electronic               0.000              0.000              0.000
 Translational            0.889              2.981             41.370
 Rotational               0.889              2.981             31.365
 Vibrational             89.995             33.622             31.602
 Vibration     1          0.594              1.981              5.240
 Vibration     2          0.597              1.972              4.370
 Vibration     3          0.602              1.955              3.622
 Vibration     4          0.608              1.935              3.141
 Vibration     5          0.626              1.879              2.430
 Vibration     6          0.655              1.786              1.833
 Vibration     7          0.663              1.762              1.729
 Vibration     8          0.714              1.611              1.249
 Vibration     9          0.716              1.607              1.239
 Vibration    10          0.776              1.443              0.918
 Vibration    11          0.801              1.380              0.822
 Vibration    12          0.850              1.263              0.673
 Vibration    13          0.887              1.180              0.584
 Vibration    14          0.951              1.045              0.460
 Vibration    15          0.970              1.008              0.431

 Optimization completed.
    -- Stationary point found.
 Normal termination of Gaussian 09 at Fri Aug 20 15:41:17 2021.
