 Gaussian 09, Revision E.01,
 Gaussian 09:  ES64L-G09RevE.01 30-Nov-2015

 -------------------------
 #P OPT Freq B3LYP/6-31G**
 -------------------------

 --------
 NTBZAM01
 --------
 Symbolic Z-matrix:
 Charge =  0 Multiplicity = 1

 SCF Done:  E(RB3LYP) =  -605.379251881     A.U. after   18 cycles
 SCF Done:  E(RB3LYP) =  -605.446335311     A.U. after   14 cycles
 SCF Done:  E(RB3LYP) =  -605.462372346     A.U. after   16 cycles
 SCF Done:  E(RB3LYP) =  -605.452256571     A.U. after   17 cycles
 SCF Done:  E(RB3LYP) =  -605.462587304     A.U. after   11 cycles
 SCF Done:  E(RB3LYP) =  -605.462820925     A.U. after   13 cycles
 SCF Done:  E(RB3LYP) =  -605.462857799     A.U. after   12 cycles
 SCF Done:  E(RB3LYP) =  -605.462884780     A.U. after   11 cycles
 SCF Done:  E(RB3LYP) =  -605.462891906     A.U. after   10 cycles
 SCF Done:  E(RB3LYP) =  -605.462908318     A.U. after   12 cycles
 SCF Done:  E(RB3LYP) =  -605.462991934     A.U. after   13 cycles
 SCF Done:  E(RB3LYP) =  -605.463042000     A.U. after   15 cycles
 SCF Done:  E(RB3LYP) =  -605.463105805     A.U. after   14 cycles
 SCF Done:  E(RB3LYP) =  -605.463387504     A.U. after   14 cycles
 SCF Done:  E(RB3LYP) =  -605.463600227     A.U. after   14 cycles
 SCF Done:  E(RB3LYP) =  -605.463476537     A.U. after   14 cycles
 SCF Done:  E(RB3LYP) =  -605.463688877     A.U. after   14 cycles
 SCF Done:  E(RB3LYP) =  -605.463695346     A.U. after   11 cycles
 SCF Done:  E(RB3LYP) =  -605.463696785     A.U. after   10 cycles
 Optimization completed.
    -- Stationary point found.
 Normal termination of Gaussian 09 at Fri Aug 20 15:56:57 2021.

 ----------------------------------------------------------------------
 #P Geom=AllCheck Guess=TCheck SCRF=Check GenChk RB3LYP/6-31G(d,p) Freq
 ----------------------------------------------------------------------

 Structure from the checkpoint file:  "/public/home/users/caep010/.cache/gau_scr/Gau-174872.chk"
 --------
 NTBZAM01
 --------
 Charge =  0 Multiplicity = 1

                         Standard orientation:
 ---------------------------------------------------------------------
 Center     Atomic      Atomic             Coordinates (Angstroms)
 Number     Number       Type             X           Y           Z
 ---------------------------------------------------------------------
      1          8           0       -3.432261   -1.161533    0.314985
      2          6           0       -2.861251   -0.117895    0.029712
      3          7           0       -3.543826    1.032871   -0.270394
      4          6           0       -1.356865   -0.023145    0.018902
      5          6           0       -0.662015    1.189694    0.132607
      6          6           0       -0.641639   -1.224131   -0.081474
      7          1           0       -1.199525   -2.151544   -0.142921
      8          1           0       -1.200902    2.122762    0.261573
      9          1           0       -4.544530    0.932703   -0.363866
     10          6           0        0.748294   -1.220189   -0.097431
     11          1           0        1.322681   -2.133801   -0.182834
     12          6           0        1.411835    0.001556    0.003079
     13          7           0        2.886056    0.017248   -0.012719
     14          8           0        3.465959   -1.061693   -0.122259
     15          8           0        3.445517    1.108936    0.083055
     16          6           0        0.729875    1.209469    0.125460
     17          1           0        1.290009    2.131072    0.218857
     18          1           0       -3.106470    1.770146   -0.800400
 ---------------------------------------------------------------------

 SCF Done:  E(RB3LYP) =  -605.463696785     A.U. after    1 cycles

 The electronic state is 1-A.
 Alpha  occ. eigenvalues --  -19.18817 -19.18799 -19.13204 -14.57908 -14.37546
 Alpha  occ. eigenvalues --  -10.31078 -10.26471 -10.23440 -10.23158 -10.23096
 Alpha  occ. eigenvalues --  -10.22850 -10.22290  -1.23121  -1.05859  -1.05061
 Alpha  occ. eigenvalues --   -0.92349  -0.90047  -0.82061  -0.78405  -0.72451
 Alpha  occ. eigenvalues --   -0.64576  -0.63474  -0.59348  -0.57459  -0.55631
 Alpha  occ. eigenvalues --   -0.53845  -0.52326  -0.50945  -0.48198  -0.47283
 Alpha  occ. eigenvalues --   -0.45729  -0.44173  -0.43269  -0.40589  -0.39088
 Alpha  occ. eigenvalues --   -0.37828  -0.31655  -0.31398  -0.29791  -0.29166
 Alpha  occ. eigenvalues --   -0.29093  -0.28665  -0.26875
 Alpha virt. eigenvalues --   -0.10167  -0.03814  -0.03187   0.04397   0.06034
 Alpha virt. eigenvalues --    0.09056   0.11166   0.13663   0.14498   0.15423
 Alpha virt. eigenvalues --    0.17802   0.18138   0.22857   0.26141   0.26654

 Mulliken charges:
               1
     1  O   -0.491194
     2  C    0.538029
     3  N   -0.616988
     4  C    0.064061
     5  C   -0.134014
     6  C   -0.113509
     7  H    0.137347
     8  H    0.104522
     9  H    0.284491
    10  C   -0.092144
    11  H    0.144442
    12  C    0.248982
    13  N    0.389931
    14  O   -0.390055
    15  O   -0.393743
    16  C   -0.092623
    17  H    0.142267
    18  H    0.270199
 Sum of Mulliken charges =  -0.00000

 Dipole moment (field-independent basis, Debye):
    X=             -3.4421    Y=              2.8233    Z=             -1.4750  Tot=              4.6898
 Quadrupole moment (field-independent basis, Debye-Ang):
   XX=            -81.2440   YY=            -63.3473   ZZ=            -66.9464
   XY=            -11.4427   XZ=              5.8030   YZ=             -0.7153

  Exact polarizability: 142.840  -1.312 103.755  -0.053   0.970  36.600
 Approx polarizability: 210.959   3.864 213.965  -2.555   3.565  57.634

                      1                      2                      3
                      A                      A                      A
 Frequencies --     51.9900                74.0716                81.6373
 Red. masses --      9.4674                 4.9352                 8.0948
 Frc consts  --      0.0151                 0.0160                 0.0318
 IR Inten    --      3.6550                 2.1511                 5.2550

                      4                      5                      6
                      A                      A                      A
 Frequencies --    161.0295               238.3253               280.5397
 Red. masses --      7.5412                 6.0107                 5.7281
 Frc consts  --      0.1152                 0.2011                 0.2656
 IR Inten    --      7.8182                 4.7834                 2.4548

                      7                      8                      9
                      A                      A                      A
 Frequencies --    294.0634               398.8034               422.2682
 Red. masses --     10.4950                 1.2381                 2.9892
 Frc consts  --      0.5347                 0.1160                 0.3140
 IR Inten    --      0.0738               180.2286                 1.8439

                     10                     11                     12
                      A                      A                      A
 Frequencies --    436.4530               480.7629               510.2526
 Red. masses --      3.3213                 4.0746                 7.0101
 Frc consts  --      0.3728                 0.5549                 1.0753
 IR Inten    --     16.4311                 7.9176                 6.6038

                     13                     14                     15
                      A                      A                      A
 Frequencies --    546.4193               567.2997               641.9390
 Red. masses --      5.0073                 1.2800                 6.5847
 Frc consts  --      0.8809                 0.2427                 1.5987
 IR Inten    --      4.9583                31.6970                 1.9275

                     16                     17                     18
                      A                      A                      A
 Frequencies --    646.2169               690.2386               732.6050
 Red. masses --      4.1407                 4.3707                 3.4546
 Frc consts  --      1.0188                 1.2269                 1.0924
 IR Inten    --     10.4466                 3.5283                66.9213

                     19                     20                     21
                      A                      A                      A
 Frequencies --    770.3865               791.3580               861.0600
 Red. masses --      5.5485                 5.9426                 1.2904
 Frc consts  --      1.9402                 2.1927                 0.5637
 IR Inten    --     29.1368                 5.0791                 2.7516

                     22                     23                     24
                      A                      A                      A
 Frequencies --    869.5982               895.5910               989.0843
 Red. masses --      8.3728                 1.7874                 1.3234
 Frc consts  --      3.7304                 0.8447                 0.7628
 IR Inten    --     32.7606                19.6184                 0.5090

                     25                     26                     27
                      A                      A                      A
 Frequencies --   1007.0564              1032.7396              1093.8860
 Red. masses --      1.3278                 2.9020                 1.8309
 Frc consts  --      0.7934                 1.8236                 1.2908
 IR Inten    --      1.0083                 6.6295                 5.5385

                     28                     29                     30
                      A                      A                      A
 Frequencies --   1128.0585              1132.5220              1143.7579
 Red. masses --      2.9997                 1.3713                 2.8067
 Frc consts  --      2.2490                 1.0363                 2.1633
 IR Inten    --     32.5799                 5.9770                 4.0561

                     31                     32                     33
                      A                      A                      A
 Frequencies --   1202.5460              1322.6226              1367.0016
 Red. masses --      1.2695                 1.3108                 5.3202
 Frc consts  --      1.0816                 1.3510                 5.8576
 IR Inten    --      0.3447                 0.7732               214.5152

                     34                     35                     36
                      A                      A                      A
 Frequencies --   1380.3021              1400.5171              1443.9054
 Red. masses --      5.6405                12.1768                 3.3775
 Frc consts  --      6.3317                14.0721                 4.1488
 IR Inten    --    171.6214               195.4689                11.2268

                     37                     38                     39
                      A                      A                      A
 Frequencies --   1530.2782              1617.6304              1626.1484
 Red. masses --      2.3916                 9.6409                 1.2700
 Frc consts  --      3.2998                14.8637                 1.9787
 IR Inten    --      0.8217                82.1835               151.1046

                     40                     41                     42
                      A                      A                      A
 Frequencies --   1655.2488              1670.5813              1789.8760
 Red. masses --      5.7920                10.0045                 8.9113
 Frc consts  --      9.3499                16.4505                16.8204
 IR Inten    --      2.3438               124.0449               247.9609

                     43                     44                     45
                      A                      A                      A
 Frequencies --   3203.4095              3227.7264              3247.6052
 Red. masses --      1.0900                 1.0901                 1.0929
 Frc consts  --      6.5903                 6.6914                 6.7914
 IR Inten    --      6.0912                 1.0615                 1.4801

                     46                     47                     48
                      A                      A                      A
 Frequencies --   3248.7815              3594.7966              3726.1949
 Red. masses --      1.0938                 1.0460                 1.1032
 Frc consts  --      6.8016                 7.9637                 9.0248
 IR Inten    --      1.2941                47.6123                35.8922

 - Thermochemistry -
 -------------------
 Temperature   298.150 Kelvin.  Pressure   1.00000 Atm.
 Atom     1 has atomic number  8 and mass  15.99491

 Molecular mass:   166.03784 amu.
 Principal axes and moments of inertia in atomic units:
                           1         2         3
     Eigenvalues --   612.580973827.101214407.54226
           X            0.99993  -0.01087   0.00381
           Y            0.01087   0.99994  -0.00055
           Z           -0.00380   0.00059   0.99999
 This molecule is an asymmetric top.
 Rotational symmetry number  1.
 Warning -- assumption of classical behavior for rotation
           may cause significant error
 Rotational temperatures (Kelvin)      0.14139     0.02263     0.01965
 Rotational constants (GHZ):           2.94613     0.47157     0.40947
 Zero-point vibrational energy     342282.6 (Joules/Mol)
                                   81.80751 (Kcal/Mol)
 Warning -- explicit consideration of  14 degrees of freedom as
           vibrations may cause significant error
 Vibrational temperatures:     74.80   106.57   117.46   231.69   342.90
          (Kelvin)            403.63   423.09   573.79   607.55   627.96
                              691.71   734.14   786.17   816.22   923.61
                              929.76   993.10  1054.05  1108.41  1138.59
                             1238.87  1251.16  1288.55  1423.07  1448.93
                             1485.88  1573.86  1623.02  1629.44  1645.61
                             1730.19  1902.96  1966.81  1985.94  2015.03
                             2077.46  2201.73  2327.41  2339.66  2381.53
                             2403.59  2575.23  4608.99  4643.97  4672.57
                             4674.27  5172.10  5361.16

 Zero-point correction=                           0.130369 (Hartree/Particle)
 Thermal correction to Energy=                    0.140397
 Thermal correction to Enthalpy=                  0.141341
 Thermal correction to Gibbs Free Energy=         0.093859
 Sum of electronic and zero-point Energies=           -605.333328
 Sum of electronic and thermal Energies=              -605.323300
 Sum of electronic and thermal Enthalpies=            -605.322355
 Sum of electronic and thermal Free Energies=         -605.369837

                     E (Thermal)             CV                S
                      KCal/Mol        Cal/Mol-Kelvin    Cal/Mol-Kelvin
 Total                   88.101             37.639             99.934
 Electronic               0.000              0.000              0.000
 Translational            0.889              2.981             41.229
 Rotational               0.889              2.981             30.714
 Vibrational             86.323             31.678             27.991
 Vibration     1          0.596              1.977              4.740
 Vibration     2          0.599              1.966              4.042
 Vibration     3          0.600              1.962              3.851
 Vibration     4          0.622              1.890              2.538
 Vibration     5          0.656              1.782              1.815
 Vibration     6          0.680              1.710              1.530
 Vibration     7          0.689              1.685              1.450
 Vibration     8          0.765              1.473              0.967
 Vibration     9          0.785              1.422              0.884
 Vibration    10          0.797              1.391              0.838
 Vibration    11          0.837              1.293              0.708
 Vibration    12          0.865              1.227              0.633
 Vibration    13          0.902              1.148              0.552
 Vibration    14          0.923              1.102              0.509

 Normal termination of Gaussian 09 at Fri Aug 20 15:57:22 2021.
