 Gaussian 09, Revision E.01,
 Gaussian 09:  ES64L-G09RevE.01 30-Nov-2015

 -------------------------
 #P OPT Freq B3LYP/6-31G**
 -------------------------

 --------
 FESNIA01
 --------
 Symbolic Z-matrix:
 Charge =  0 Multiplicity = 1

 SCF Done:  E(RB3LYP) =  -755.731120629     A.U. after   16 cycles
 SCF Done:  E(RB3LYP) =  -755.752344669     A.U. after   15 cycles
 SCF Done:  E(RB3LYP) =  -755.744208192     A.U. after   16 cycles
 SCF Done:  E(RB3LYP) =  -755.753973153     A.U. after   13 cycles
 SCF Done:  E(RB3LYP) =  -755.748109054     A.U. after   15 cycles
 SCF Done:  E(RB3LYP) =  -755.755137493     A.U. after   12 cycles
 SCF Done:  E(RB3LYP) =  -755.749862803     A.U. after   16 cycles
 SCF Done:  E(RB3LYP) =  -755.755537431     A.U. after   11 cycles
 SCF Done:  E(RB3LYP) =  -755.756379815     A.U. after   15 cycles
 SCF Done:  E(RB3LYP) =  -755.756671793     A.U. after   14 cycles
 SCF Done:  E(RB3LYP) =  -755.757289743     A.U. after   14 cycles
 SCF Done:  E(RB3LYP) =  -755.757435076     A.U. after   14 cycles
 SCF Done:  E(RB3LYP) =  -755.757541269     A.U. after   14 cycles
 SCF Done:  E(RB3LYP) =  -755.757601094     A.U. after   14 cycles
 SCF Done:  E(RB3LYP) =  -755.757640076     A.U. after   13 cycles
 SCF Done:  E(RB3LYP) =  -755.757652727     A.U. after   11 cycles
 SCF Done:  E(RB3LYP) =  -755.757654721     A.U. after   12 cycles
 SCF Done:  E(RB3LYP) =  -755.757655096     A.U. after    8 cycles
 SCF Done:  E(RB3LYP) =  -755.757655146     A.U. after    9 cycles
 Optimization completed.
    -- Stationary point found.
 Normal termination of Gaussian 09 at Fri Aug 20 15:46:46 2021.

 ----------------------------------------------------------------------
 #P Geom=AllCheck Guess=TCheck SCRF=Check GenChk RB3LYP/6-31G(d,p) Freq
 ----------------------------------------------------------------------

 Structure from the checkpoint file:  "/public/home/users/caep010/.cache/gau_scr/Gau-99822.chk"
 --------
 FESNIA01
 --------
 Charge =  0 Multiplicity = 1

                         Standard orientation:
 ---------------------------------------------------------------------
 Center     Atomic      Atomic             Coordinates (Angstroms)
 Number     Number       Type             X           Y           Z
 ---------------------------------------------------------------------
      1          8           0       -0.000152   -1.551339    0.465817
      2          6           0        0.000023   -2.570457   -0.564112
      3          1           0       -0.903879   -2.489124   -1.167994
      4          1           0        0.000465   -3.515622   -0.022082
      5          1           0        0.903689   -2.488572   -1.168279
      6          6           0       -0.000026   -0.259338    0.086122
      7          6           0       -1.194823    0.487673   -0.033211
      8          7           0       -2.514580   -0.141375    0.155850
      9          8           0       -2.657481   -1.318954   -0.160123
     10          8           0       -3.406193    0.576284    0.607760
     11          6           0        1.194823    0.487585   -0.033202
     12          6           0       -1.199722    1.858142   -0.287816
     13          6           0        0.000042    2.543541   -0.440567
     14          1           0       -2.154909    2.365064   -0.348359
     15          1           0        0.000073    3.606489   -0.653009
     16          6           0        1.199748    1.858054   -0.287927
     17          1           0        2.154977    2.364887   -0.348559
     18          7           0        2.514599   -0.141432    0.155861
     19          8           0        2.657316   -1.319283   -0.159187
     20          8           0        3.406393    0.576458    0.607055
 ---------------------------------------------------------------------

 SCF Done:  E(RB3LYP) =  -755.757655146     A.U. after    1 cycles

 The electronic state is 1-A.
 Alpha  occ. eigenvalues --  -19.19895 -19.19895 -19.19727 -19.19726 -19.19703
 Alpha  occ. eigenvalues --  -14.59050 -14.59050 -10.31405 -10.27987 -10.27987
 Alpha  occ. eigenvalues --  -10.24809 -10.24807 -10.24376 -10.23887  -1.24246
 Alpha  occ. eigenvalues --   -1.24224  -1.08935  -1.06885  -1.06716  -0.91871
 Alpha  occ. eigenvalues --   -0.85088  -0.81392  -0.74976  -0.72232  -0.70397
 Alpha  occ. eigenvalues --   -0.63086  -0.61295  -0.57894  -0.56169  -0.55085
 Alpha  occ. eigenvalues --   -0.54247  -0.53939  -0.53254  -0.52178  -0.50517
 Alpha  occ. eigenvalues --   -0.50475  -0.48050  -0.44900  -0.42901  -0.42668
 Alpha  occ. eigenvalues --   -0.41170  -0.37266  -0.33039  -0.32789  -0.32559
 Alpha  occ. eigenvalues --   -0.32487  -0.31841  -0.31176  -0.29715  -0.29145
 Alpha  occ. eigenvalues --   -0.28627
 Alpha virt. eigenvalues --   -0.10676  -0.09755  -0.03694  -0.01990   0.04432
 Alpha virt. eigenvalues --    0.09352   0.11165   0.12311   0.13160   0.13526
 Alpha virt. eigenvalues --    0.15774   0.16679   0.17174   0.17695   0.22844

 Mulliken charges:
               1
     1  O   -0.521964
     2  C   -0.087557
     3  H    0.132693
     4  H    0.135291
     5  H    0.132656
     6  C    0.363538
     7  C    0.208706
     8  N    0.376354
     9  O   -0.370678
    10  O   -0.378996
    11  C    0.208755
    12  C   -0.069027
    13  C   -0.108719
    14  H    0.149815
    15  H    0.121723
    16  C   -0.069059
    17  H    0.149829
    18  N    0.376349
    19  O   -0.370693
    20  O   -0.379015
 Sum of Mulliken charges =  -0.00000

 Dipole moment (field-independent basis, Debye):
    X=             -0.0001    Y=              2.6204    Z=             -2.2656  Tot=              3.4640
 Quadrupole moment (field-independent basis, Debye-Ang):
   XX=            -99.0224   YY=            -67.6355   ZZ=            -77.4567
   XY=             -0.0015   XZ=             -0.0001   YZ=             -1.1033

  Exact polarizability: 132.056   0.001 130.226  -0.002  -0.335  49.283
 Approx polarizability: 214.713   0.008 245.392  -0.009   9.344  84.516

                      1                      2                      3
                      A                      A                      A
 Frequencies --     36.0277                58.2270                73.3562
 Red. masses --     14.5937                12.2588                 5.9044
 Frc consts  --      0.0112                 0.0245                 0.0187
 IR Inten    --      0.0944                 0.5648                 5.2433

                      4                      5                      6
                      A                      A                      A
 Frequencies --    105.3068               171.5268               181.6091
 Red. masses --      1.1209                 4.5294                 6.0367
 Frc consts  --      0.0073                 0.0785                 0.1173
 IR Inten    --      0.8614                 1.4143                 0.1823

                      7                      8                      9
                      A                      A                      A
 Frequencies --    192.7731               231.4995               271.9668
 Red. masses --      7.8058                 2.7102                 9.4960
 Frc consts  --      0.1709                 0.0856                 0.4138
 IR Inten    --      5.6012                 6.8782                 0.9528

                     10                     11                     12
                      A                      A                      A
 Frequencies --    303.6452               340.9208               362.9053
 Red. masses --      6.2091                 9.1187                 8.5436
 Frc consts  --      0.3373                 0.6244                 0.6629
 IR Inten    --      4.6598                 0.5563                 1.2038

                     13                     14                     15
                      A                      A                      A
 Frequencies --    401.8879               464.1413               495.0670
 Red. masses --      7.3039                 6.2898                 7.6519
 Frc consts  --      0.6950                 0.7983                 1.1050
 IR Inten    --      0.6476                 0.9903                 1.0866

                     16                     17                     18
                      A                      A                      A
 Frequencies --    557.7480               595.8851               642.2720
 Red. masses --      5.0216                 4.5766                 5.8377
 Frc consts  --      0.9204                 0.9574                 1.4188
 IR Inten    --      6.7481                 7.4716                 0.0258

                     19                     20                     21
                      A                      A                      A
 Frequencies --    706.5483               722.3358               768.8329
 Red. masses --      9.7236                 9.8869                 2.2893
 Frc consts  --      2.8600                 3.0394                 0.7973
 IR Inten    --     14.4999                46.9493                35.4887

                     22                     23                     24
                      A                      A                      A
 Frequencies --    774.5863               806.2881               837.3844
 Red. masses --      9.4492                 4.3461                 2.8291
 Frc consts  --      3.3403                 1.6647                 1.1688
 IR Inten    --      2.2654                 7.6106                 6.2728

                     25                     26                     27
                      A                      A                      A
 Frequencies --    855.2116               924.1470               960.8648
 Red. masses --      8.5136                10.2012                 1.4074
 Frc consts  --      3.6687                 5.1331                 0.7656
 IR Inten    --     11.7051                48.0364                 1.2349

                     28                     29                     30
                      A                      A                      A
 Frequencies --    993.9440              1008.3794              1119.4732
 Red. masses --      1.3306                 8.1590                 1.7126
 Frc consts  --      0.7745                 4.8881                 1.2645
 IR Inten    --      5.4459                88.7970                34.4133

                     31                     32                     33
                      A                      A                      A
 Frequencies --   1162.3127              1162.7976              1190.8478
 Red. masses --      1.2204                 8.7420                 1.1898
 Frc consts  --      0.9714                 6.9642                 0.9941
 IR Inten    --      0.4911                 5.3457                 0.3815

                     34                     35                     36
                      A                      A                      A
 Frequencies --   1209.4102              1233.5417              1286.3694
 Red. masses --      1.3331                 1.9132                 3.9208
 Frc consts  --      1.1488                 1.7152                 3.8226
 IR Inten    --      2.0796                19.7231                73.1183

                     37                     38                     39
                      A                      A                      A
 Frequencies --   1338.7736              1394.3092              1404.4506
 Red. masses --      8.0878                14.4180                 9.0915
 Frc consts  --      8.5407                16.5147                10.5657
 IR Inten    --     18.1025               432.4811                50.6306

                     40                     41                     42
                      A                      A                      A
 Frequencies --   1450.4763              1484.9489              1506.9866
 Red. masses --      1.6413                 2.3832                 1.0522
 Frc consts  --      2.0345                 3.0962                 1.4079
 IR Inten    --     38.0457                 1.2971                 4.1035

                     43                     44                     45
                      A                      A                      A
 Frequencies --   1507.2572              1515.8583              1613.2158
 Red. masses --      1.5140                 1.3377                 7.1209
 Frc consts  --      2.0265                 1.8110                10.9188
 IR Inten    --     36.5339                23.3687                 5.9147

                     46                     47                     48
                      A                      A                      A
 Frequencies --   1625.7102              1647.5206              1677.0852
 Red. masses --      7.7164                11.8781                10.0194
 Frc consts  --     12.0158                18.9959                16.6035
 IR Inten    --    157.9792                69.2186               334.4152

                     49                     50                     51
                      A                      A                      A
 Frequencies --   3083.4403              3179.6477              3184.1920
 Red. masses --      1.0275                 1.1090                 1.1073
 Frc consts  --      5.7559                 6.6060                 6.6147
 IR Inten    --     44.3907                 6.2038                11.0706

                     52                     53                     54
                      A                      A                      A
 Frequencies --   3219.6427              3240.8479              3243.7454
 Red. masses --      1.0894                 1.0917                 1.0959
 Frc consts  --      6.6538                 6.7555                 6.7938
 IR Inten    --      2.9010                 4.2143                 0.1373

 - Thermochemistry -
 -------------------
 Temperature   298.150 Kelvin.  Pressure   1.00000 Atm.
 Atom     1 has atomic number  8 and mass  15.99491

 Molecular mass:   198.02767 amu.
 Principal axes and moments of inertia in atomic units:
                           1         2         3
     Eigenvalues --  1533.219573150.919984481.52534
           X            1.00000  -0.00000  -0.00000
           Y            0.00000   0.99999   0.00504
           Z            0.00000  -0.00504   0.99999
 This molecule is an asymmetric top.
 Rotational symmetry number  1.
 Warning -- assumption of classical behavior for rotation
           may cause significant error
 Rotational temperatures (Kelvin)      0.05649     0.02749     0.01933
 Rotational constants (GHZ):           1.17709     0.57277     0.40271
 Zero-point vibrational energy     362038.7 (Joules/Mol)
                                   86.52933 (Kcal/Mol)
 Warning -- explicit consideration of  17 degrees of freedom as
           vibrations may cause significant error
 Vibrational temperatures:     51.84    83.78   105.54   151.51   246.79
          (Kelvin)            261.29   277.36   333.08   391.30   436.88
                              490.51   522.14   578.23   667.80   712.29
                              802.47   857.34   924.08  1016.56  1039.28
                             1106.18  1114.46  1160.07  1204.81  1230.46
                             1329.64  1382.47  1430.06  1450.83  1610.67
                             1672.31  1673.00  1713.36  1740.07  1774.79
                             1850.80  1926.19  2006.10  2020.69  2086.91
                             2136.51  2168.21  2168.60  2180.98  2321.05
                             2339.03  2370.41  2412.95  4436.38  4574.80
                             4581.34  4632.34  4662.85  4667.02

 Zero-point correction=                           0.137893 (Hartree/Particle)
 Thermal correction to Energy=                    0.150010
 Thermal correction to Enthalpy=                  0.150954
 Thermal correction to Gibbs Free Energy=         0.098259
 Sum of electronic and zero-point Energies=           -755.619762
 Sum of electronic and thermal Energies=              -755.607645
 Sum of electronic and thermal Enthalpies=            -755.606701
 Sum of electronic and thermal Free Energies=         -755.659397

                     E (Thermal)             CV                S
                      KCal/Mol        Cal/Mol-Kelvin    Cal/Mol-Kelvin
 Total                   94.133             43.734            110.907
 Electronic               0.000              0.000              0.000
 Translational            0.889              2.981             41.755
 Rotational               0.889              2.981             31.449
 Vibrational             92.355             37.773             37.703
 Vibration     1          0.594              1.982              5.466
 Vibration     2          0.596              1.974              4.516
 Vibration     3          0.599              1.967              4.061
 Vibration     4          0.605              1.945              3.354
 Vibration     5          0.626              1.878              2.419
 Vibration     6          0.630              1.865              2.312
 Vibration     7          0.635              1.850              2.201
 Vibration     8          0.653              1.793              1.867
 Vibration     9          0.675              1.725              1.584
 Vibration    10          0.695              1.667              1.397
 Vibration    11          0.720              1.594              1.208
 Vibration    12          0.737              1.549              1.110
 Vibration    13          0.768              1.466              0.956
 Vibration    14          0.822              1.330              0.754
 Vibration    15          0.851              1.261              0.671
 Vibration    16          0.913              1.123              0.528
 Vibration    17          0.954              1.041              0.457

 Optimization completed.
    -- Stationary point found.
 Normal termination of Gaussian 09 at Fri Aug 20 15:47:22 2021.
