 Gaussian 09, Revision E.01,
 Gaussian 09:  ES64L-G09RevE.01 30-Nov-2015

 -------------------------
 #P OPT Freq B3LYP/6-31G**
 -------------------------

 ------
 QIKDET
 ------
 Symbolic Z-matrix:
 Charge =  0 Multiplicity = 1

 SCF Done:  E(RB3LYP) =  -696.496372860     A.U. after   16 cycles
 SCF Done:  E(RB3LYP) =  -696.584708935     A.U. after   14 cycles
 SCF Done:  E(RB3LYP) =  -696.601331315     A.U. after   17 cycles
 SCF Done:  E(RB3LYP) =  -696.601771314     A.U. after   18 cycles
 SCF Done:  E(RB3LYP) =  -696.612143157     A.U. after   16 cycles
 SCF Done:  E(RB3LYP) =  -696.604733891     A.U. after   17 cycles
 SCF Done:  E(RB3LYP) =  -696.612663230     A.U. after   12 cycles
 SCF Done:  E(RB3LYP) =  -696.612944424     A.U. after   14 cycles
 SCF Done:  E(RB3LYP) =  -696.613213003     A.U. after   12 cycles
 SCF Done:  E(RB3LYP) =  -696.613217583     A.U. after   11 cycles
 SCF Done:  E(RB3LYP) =  -696.613220877     A.U. after   10 cycles
 SCF Done:  E(RB3LYP) =  -696.613220988     A.U. after   12 cycles
 SCF Done:  E(RB3LYP) =  -696.613231244     A.U. after   10 cycles
 SCF Done:  E(RB3LYP) =  -696.613679501     A.U. after   13 cycles
 SCF Done:  E(RB3LYP) =  -696.613750243     A.U. after   13 cycles
 SCF Done:  E(RB3LYP) =  -696.613761408     A.U. after   11 cycles
 SCF Done:  E(RB3LYP) =  -696.613766060     A.U. after   11 cycles
 SCF Done:  E(RB3LYP) =  -696.613767172     A.U. after   10 cycles
 SCF Done:  E(RB3LYP) =  -696.613767211     A.U. after    8 cycles
 Optimization completed.
    -- Stationary point found.
 Normal termination of Gaussian 09 at Fri Aug 20 16:05:06 2021.

 ----------------------------------------------------------------------
 #P Geom=AllCheck Guess=TCheck SCRF=Check GenChk RB3LYP/6-31G(d,p) Freq
 ----------------------------------------------------------------------

 Structure from the checkpoint file:  "/public/home/users/caep010/.cache/gau_scr/Gau-110699.chk"
 ------
 QIKDET
 ------
 Charge =  0 Multiplicity = 1

                         Standard orientation:
 ---------------------------------------------------------------------
 Center     Atomic      Atomic             Coordinates (Angstroms)
 Number     Number       Type             X           Y           Z
 ---------------------------------------------------------------------
      1          6           0        0.000029    1.929553   -0.007409
      2          7           0        0.000091    3.309027   -0.062728
      3          1           0        0.845905    3.782412    0.217179
      4          6           0        1.208279    1.209198   -0.005421
      5          6           0        1.177366   -0.179770   -0.003483
      6          7           0        2.464790   -0.906033    0.002347
      7          8           0        3.495597   -0.234845    0.011488
      8          1           0        2.166935    1.713621   -0.008658
      9          6           0       -0.000014   -0.918750   -0.002855
     10          6           0       -1.177365   -0.179739   -0.003499
     11          1           0       -0.000038   -1.998468   -0.000037
     12          8           0        2.423341   -2.133391   -0.001572
     13          7           0       -2.464804   -0.905980    0.002329
     14          8           0       -3.495627   -0.234809    0.011624
     15          8           0       -2.423397   -2.133346   -0.001757
     16          6           0       -1.208246    1.209239   -0.005350
     17          1           0       -2.166897    1.713674   -0.008436
     18          1           0       -0.846061    3.782405    0.216168
 ---------------------------------------------------------------------

 SCF Done:  E(RB3LYP) =  -696.613767211     A.U. after    3 cycles

 The electronic state is 1-A.
 Alpha  occ. eigenvalues --  -19.19459 -19.19459 -19.19430 -19.19430 -14.58564
 Alpha  occ. eigenvalues --  -14.58563 -14.38222 -10.28140 -10.27466 -10.27466
 Alpha  occ. eigenvalues --  -10.23718 -10.23718 -10.23423  -1.23801  -1.23792
 Alpha  occ. eigenvalues --   -1.06564  -1.06550  -0.96489  -0.90639  -0.84260
 Alpha  occ. eigenvalues --   -0.79217  -0.72823  -0.72339  -0.63737  -0.60459
 Alpha  occ. eigenvalues --   -0.58108  -0.56450  -0.54652  -0.54306  -0.53772
 Alpha  occ. eigenvalues --   -0.52608  -0.52039  -0.51648  -0.51031  -0.47436
 Alpha  occ. eigenvalues --   -0.42926  -0.42046  -0.41866  -0.35838  -0.32545
 Alpha  occ. eigenvalues --   -0.32213  -0.32212  -0.31682  -0.30475  -0.30426
 Alpha  occ. eigenvalues --   -0.30316  -0.24863
 Alpha virt. eigenvalues --   -0.10773  -0.09522  -0.01440  -0.00267   0.04893
 Alpha virt. eigenvalues --    0.07582   0.08740   0.13427   0.13891   0.14938
 Alpha virt. eigenvalues --    0.17689   0.18583   0.22298   0.24817   0.25971

 Mulliken charges:
               1
     1  C    0.292188
     2  N   -0.661883
     3  H    0.275277
     4  C   -0.108630
     5  C    0.227283
     6  N    0.393589
     7  O   -0.393249
     8  H    0.138301
     9  C   -0.106391
    10  C    0.227295
    11  H    0.173300
    12  O   -0.381159
    13  N    0.393570
    14  O   -0.393249
    15  O   -0.381157
    16  C   -0.108646
    17  H    0.138292
    18  H    0.275270
 Sum of Mulliken charges =  -0.00000

 Dipole moment (field-independent basis, Debye):
    X=             -0.0001    Y=              6.1071    Z=              0.8543  Tot=              6.1666
 Quadrupole moment (field-independent basis, Debye-Ang):
   XX=            -92.3746   YY=            -63.2792   ZZ=            -71.6196
   XY=             -0.0018   XZ=              0.0017   YZ=              3.5614

  Exact polarizability: 130.496   0.001 130.046   0.000   0.343  35.028
 Approx polarizability: 221.284   0.003 255.436  -0.002  -0.609  55.134

                      1                      2                      3
                      A                      A                      A
 Frequencies --     51.4777                54.0022               133.5053
 Red. masses --     15.9276                13.6102                 7.7574
 Frc consts  --      0.0249                 0.0234                 0.0815
 IR Inten    --      0.0008                 0.9501                 2.2081

                      4                      5                      6
                      A                      A                      A
 Frequencies --    162.0605               196.4444               235.4372
 Red. masses --     12.9826                 4.5175                 3.6992
 Frc consts  --      0.2009                 0.1027                 0.1208
 IR Inten    --      3.2459                 0.5648                 4.3422

                      7                      8                      9
                      A                      A                      A
 Frequencies --    236.3637               343.7423               353.0520
 Red. masses --      4.9595                 1.0641                13.1007
 Frc consts  --      0.1632                 0.0741                 0.9621
 IR Inten    --      0.6361                10.3742                 0.5820

                     10                     11                     12
                      A                      A                      A
 Frequencies --    366.1526               438.2176               453.1485
 Red. masses --      8.0092                 5.0304                 1.3864
 Frc consts  --      0.6327                 0.5692                 0.1677
 IR Inten    --      3.4268                 0.0235               334.2983

                     13                     14                     15
                      A                      A                      A
 Frequencies --    482.3802               487.2842               563.1915
 Red. masses --      5.5717                 5.9616                 5.7630
 Frc consts  --      0.7639                 0.8340                 1.0770
 IR Inten    --      0.3741                32.2913                 2.8841

                     16                     17                     18
                      A                      A                      A
 Frequencies --    565.9333               609.5368               664.6324
 Red. masses --      6.2619                 4.3051                 2.6056
 Frc consts  --      1.1817                 0.9424                 0.6782
 IR Inten    --      1.2355                 1.0855                 1.5128

                     19                     20                     21
                      A                      A                      A
 Frequencies --    742.9503               745.6732               767.4547
 Red. masses --      5.0502                11.5139                 7.8671
 Frc consts  --      1.6424                 3.7720                 2.7300
 IR Inten    --     40.8469                42.9131                 0.0371

                     22                     23                     24
                      A                      A                      A
 Frequencies --    823.8225               887.5441               918.5318
 Red. masses --     13.0405                 1.5678                 1.4051
 Frc consts  --      5.2145                 0.7276                 0.6985
 IR Inten    --     30.5345                16.0887                 0.2135

                     25                     26                     27
                      A                      A                      A
 Frequencies --    918.5650               934.8472               999.0417
 Red. masses --      1.5546                 9.2172                 4.6885
 Frc consts  --      0.7728                 4.7460                 2.7571
 IR Inten    --     21.7874                38.4725                 0.5516

                     28                     29                     30
                      A                      A                      A
 Frequencies --   1015.7483              1077.8854              1115.9880
 Red. masses --      6.5765                 1.5118                 1.2205
 Frc consts  --      3.9977                 1.0349                 0.8956
 IR Inten    --      4.1505                33.6847                35.5980

                     31                     32                     33
                      A                      A                      A
 Frequencies --   1131.8593              1270.5977              1338.6197
 Red. masses --      1.7368                 1.3078                 3.5380
 Frc consts  --      1.3110                 1.2439                 3.7352
 IR Inten    --      4.3583                 0.4346                54.9489

                     34                     35                     36
                      A                      A                      A
 Frequencies --   1394.7665              1400.6375              1404.9151
 Red. masses --     14.6366                 6.5482                14.7785
 Frc consts  --     16.7762                 7.5687                17.1863
 IR Inten    --    432.4823                26.1339               102.9576

                     37                     38                     39
                      A                      A                      A
 Frequencies --   1500.1870              1517.2261              1622.8337
 Red. masses --      3.4139                 4.4091                 7.9615
 Frc consts  --      4.5268                 5.9799                12.3536
 IR Inten    --      0.4716                38.2717                31.3926

                     40                     41                     42
                      A                      A                      A
 Frequencies --   1639.3763              1660.2055              1668.0670
 Red. masses --      6.9813                11.5373                 1.3421
 Frc consts  --     11.0546                18.7361                 2.2001
 IR Inten    --    384.3325                58.1164               193.4845

                     43                     44                     45
                      A                      A                      A
 Frequencies --   1697.2260              3235.2428              3235.3408
 Red. masses --      5.7540                 1.0907                 1.0916
 Frc consts  --      9.7657                 6.7265                 6.7319
 IR Inten    --     16.4826                 8.3343                 1.2300

                     46                     47                     48
                      A                      A                      A
 Frequencies --   3284.5127              3598.4646              3711.7397
 Red. masses --      1.0921                 1.0472                 1.1012
 Frc consts  --      6.9415                 7.9892                 8.9386
 IR Inten    --     27.6610                53.0841                25.6924

 - Thermochemistry -
 -------------------
 Temperature   298.150 Kelvin.  Pressure   1.00000 Atm.
 Atom     1 has atomic number  6 and mass  12.00000

 Molecular mass:   183.02801 amu.
 Principal axes and moments of inertia in atomic units:
                           1         2         3
     Eigenvalues --  1617.178062957.795014573.90591
           X            1.00000  -0.00000   0.00000
           Y            0.00000   0.99999   0.00358
           Z           -0.00000  -0.00358   0.99999
 This molecule is an asymmetric top.
 Rotational symmetry number  1.
 Warning -- assumption of classical behavior for rotation
           may cause significant error
 Rotational temperatures (Kelvin)      0.05356     0.02928     0.01894
 Rotational constants (GHZ):           1.11598     0.61016     0.39457
 Zero-point vibrational energy     320936.7 (Joules/Mol)
                                   76.70572 (Kcal/Mol)
 Warning -- explicit consideration of  17 degrees of freedom as
           vibrations may cause significant error
 Vibrational temperatures:     74.06    77.70   192.08   233.17   282.64
          (Kelvin)            338.74   340.07   494.57   507.96   526.81
                              630.50   651.98   694.04   701.09   810.31
                              814.25   876.99   956.26  1068.94  1072.86
                             1104.19  1185.30  1276.98  1321.56  1321.61
                             1345.03  1437.40  1461.43  1550.83  1605.66
                             1628.49  1828.10  1925.97  2006.76  2015.20
                             2021.36  2158.43  2182.95  2334.89  2358.69
                             2388.66  2399.97  2441.93  4654.79  4654.93
                             4725.68  5177.38  5340.36

 Zero-point correction=                           0.122238 (Hartree/Particle)
 Thermal correction to Energy=                    0.133091
 Thermal correction to Enthalpy=                  0.134036
 Thermal correction to Gibbs Free Energy=         0.084660
 Sum of electronic and zero-point Energies=           -696.491529
 Sum of electronic and thermal Energies=              -696.480676
 Sum of electronic and thermal Enthalpies=            -696.479732
 Sum of electronic and thermal Free Energies=         -696.529107

                     E (Thermal)             CV                S
                      KCal/Mol        Cal/Mol-Kelvin    Cal/Mol-Kelvin
 Total                   83.516             40.536            103.919
 Electronic               0.000              0.000              0.000
 Translational            0.889              2.981             41.520
 Rotational               0.889              2.981             31.459
 Vibrational             81.739             34.574             30.940
 Vibration     1          0.596              1.977              4.760
 Vibration     2          0.596              1.976              4.665
 Vibration     3          0.613              1.920              2.895
 Vibration     4          0.622              1.889              2.526
 Vibration     5          0.636              1.845              2.166
 Vibration     6          0.655              1.787              1.837
 Vibration     7          0.655              1.785              1.830
 Vibration     8          0.722              1.588              1.195
 Vibration     9          0.729              1.569              1.153
 Vibration    10          0.739              1.542              1.096
 Vibration    11          0.798              1.387              0.832
 Vibration    12          0.812              1.354              0.786
 Vibration    13          0.839              1.289              0.704
 Vibration    14          0.843              1.278              0.691
 Vibration    15          0.919              1.111              0.518
 Vibration    16          0.922              1.105              0.512
 Vibration    17          0.969              1.012              0.434

 Optimization completed.
    -- Stationary point found.
 Normal termination of Gaussian 09 at Fri Aug 20 16:05:35 2021.
