 Gaussian 09, Revision E.01,
 Gaussian 09:  ES64L-G09RevE.01 30-Nov-2015

 -------------------------
 #P OPT Freq B3LYP/6-31G**
 -------------------------

 --------
 ISAYAC02
 --------
 Symbolic Z-matrix:
 Charge =  0 Multiplicity = 1

 SCF Done:  E(RB3LYP) =  -735.791182969     A.U. after   15 cycles
 SCF Done:  E(RB3LYP) =  -735.884165532     A.U. after   14 cycles
 SCF Done:  E(RB3LYP) =  -735.920840066     A.U. after   17 cycles
 SCF Done:  E(RB3LYP) =  -735.907600582     A.U. after   17 cycles
 SCF Done:  E(RB3LYP) =  -735.921765930     A.U. after   13 cycles
 SCF Done:  E(RB3LYP) =  -735.921156758     A.U. after   15 cycles
 SCF Done:  E(RB3LYP) =  -735.922309325     A.U. after   11 cycles
 SCF Done:  E(RB3LYP) =  -735.922336719     A.U. after   15 cycles
 SCF Done:  E(RB3LYP) =  -735.919258405     A.U. after   15 cycles
 SCF Done:  E(RB3LYP) =  -735.922588972     A.U. after   11 cycles
 SCF Done:  E(RB3LYP) =  -735.922877900     A.U. after   13 cycles
 SCF Done:  E(RB3LYP) =  -735.923004316     A.U. after   14 cycles
 SCF Done:  E(RB3LYP) =  -735.923078493     A.U. after   13 cycles
 SCF Done:  E(RB3LYP) =  -735.923122986     A.U. after   12 cycles
 SCF Done:  E(RB3LYP) =  -735.923131800     A.U. after   10 cycles
 SCF Done:  E(RB3LYP) =  -735.923132659     A.U. after   10 cycles
 SCF Done:  E(RB3LYP) =  -735.923132922     A.U. after    8 cycles
 SCF Done:  E(RB3LYP) =  -735.923133012     A.U. after    8 cycles
 Optimization completed.
    -- Stationary point found.
 Normal termination of Gaussian 09 at Fri Aug 20 16:03:06 2021.

 ----------------------------------------------------------------------
 #P Geom=AllCheck Guess=TCheck SCRF=Check GenChk RB3LYP/6-31G(d,p) Freq
 ----------------------------------------------------------------------

 Structure from the checkpoint file:  "/public/home/users/caep010/.cache/gau_scr/Gau-56367.chk"
 --------
 ISAYAC02
 --------
 Charge =  0 Multiplicity = 1

                         Standard orientation:
 ---------------------------------------------------------------------
 Center     Atomic      Atomic             Coordinates (Angstroms)
 Number     Number       Type             X           Y           Z
 ---------------------------------------------------------------------
      1          8           0        3.433473   -0.027772    0.520517
      2          7           0        2.507485   -0.660466    0.013402
      3          6           0        1.172556   -0.022881    0.007562
      4          6           0       -0.000017   -0.801981    0.059187
      5          6           0       -1.172533   -0.022800    0.007436
      6          7           0       -2.507491   -0.660322    0.013377
      7          8           0       -3.433476   -0.027461    0.520288
      8          6           0        1.196124    1.366147   -0.061735
      9          6           0        0.000070    2.093518   -0.103829
     10          7           0        0.000211    3.470350   -0.241063
     11          1           0       -0.843447    3.951670    0.033960
     12          1           0        0.843178    3.951807    0.035945
     13          6           0       -1.196031    1.366241   -0.061776
     14          1           0       -2.156970    1.866159   -0.081107
     15          8           0        2.621992   -1.765194   -0.513365
     16          1           0        2.157081    1.866014   -0.081225
     17          6           0       -0.000215   -2.300586    0.252572
     18          1           0       -0.887802   -2.621539    0.795818
     19          1           0       -0.001471   -2.819523   -0.709625
     20          8           0       -2.621982   -1.765246   -0.512972
     21          1           0        0.888214   -2.622084    0.793984
 ---------------------------------------------------------------------

 SCF Done:  E(RB3LYP) =  -735.923133012     A.U. after    1 cycles

 The electronic state is 1-A.
 Alpha  occ. eigenvalues --  -19.19351 -19.19351 -19.19206 -19.19205 -14.58291
 Alpha  occ. eigenvalues --  -14.58291 -14.37726 -10.27361 -10.27209 -10.27208
 Alpha  occ. eigenvalues --  -10.24966 -10.23223 -10.23223 -10.19688  -1.23596
 Alpha  occ. eigenvalues --   -1.23587  -1.06292  -1.06280  -0.95986  -0.90507
 Alpha  occ. eigenvalues --   -0.84046  -0.79984  -0.75327  -0.71742  -0.68928
 Alpha  occ. eigenvalues --   -0.62388  -0.60295  -0.56973  -0.56879  -0.54405
 Alpha  occ. eigenvalues --   -0.54314  -0.52779  -0.51908  -0.51703  -0.51274
 Alpha  occ. eigenvalues --   -0.48617  -0.47417  -0.43910  -0.42274  -0.41224
 Alpha  occ. eigenvalues --   -0.40618  -0.39764  -0.34545  -0.32291  -0.31978
 Alpha  occ. eigenvalues --   -0.31797  -0.31755  -0.30880  -0.30120  -0.28391
 Alpha  occ. eigenvalues --   -0.24107
 Alpha virt. eigenvalues --   -0.09907  -0.09028  -0.01562  -0.01331   0.05123
 Alpha virt. eigenvalues --    0.07811   0.09194   0.11908   0.12527   0.14073
 Alpha virt. eigenvalues --    0.14763   0.16840   0.18687   0.19310   0.21701

 Mulliken charges:
               1
     1  O   -0.380555
     2  N    0.357272
     3  C    0.167552
     4  C    0.132302
     5  C    0.167582
     6  N    0.357295
     7  O   -0.380580
     8  C   -0.089560
     9  C    0.280595
    10  N   -0.663339
    11  H    0.272857
    12  H    0.272875
    13  C   -0.089603
    14  H    0.133182
    15  O   -0.372781
    16  H    0.133186
    17  C   -0.332401
    18  H    0.125136
    19  H    0.156625
    20  O   -0.372794
    21  H    0.125153
 Sum of Mulliken charges =   0.00000

 Dipole moment (field-independent basis, Debye):
    X=             -0.0009    Y=              4.9161    Z=              0.7733  Tot=              4.9765
 Quadrupole moment (field-independent basis, Debye-Ang):
   XX=            -99.9721   YY=            -64.5612   ZZ=            -80.2175
   XY=             -0.0020   XZ=              0.0040   YZ=             -0.2318

  Exact polarizability: 136.503   0.004 144.886   0.004   4.935  50.684
 Approx polarizability: 226.625   0.008 264.364   0.009  26.918  90.882

                      1                      2                      3
                      A                      A                      A
 Frequencies --     50.7117                60.5551               100.6034
 Red. masses --     10.3430                10.2736                 6.3457
 Frc consts  --      0.0157                 0.0222                 0.0378
 IR Inten    --      0.2090                 2.8105                 1.9543

                      4                      5                      6
                      A                      A                      A
 Frequencies --    158.7097               178.3147               180.2465
 Red. masses --      4.7861                 1.7279                 2.4035
 Frc consts  --      0.0710                 0.0324                 0.0460
 IR Inten    --      0.1009                 0.0013                 1.6285

                      7                      8                      9
                      A                      A                      A
 Frequencies --    205.2493               241.6425               327.2557
 Red. masses --      9.0587                 3.7577                 3.9217
 Frc consts  --      0.2248                 0.1293                 0.2475
 IR Inten    --      6.7114                 1.2340                 6.2094

                     10                     11                     12
                      A                      A                      A
 Frequencies --    328.0149               331.0448               359.8304
 Red. masses --      1.0589                11.1815                 5.2407
 Frc consts  --      0.0671                 0.7220                 0.3998
 IR Inten    --     13.9762                 0.3835                 3.1930

                     13                     14                     15
                      A                      A                      A
 Frequencies --    386.8045               438.7822               467.3533
 Red. masses --      3.0642                 4.9265                 8.5425
 Frc consts  --      0.2701                 0.5588                 1.0993
 IR Inten    --      0.2825                 0.0183                 0.1306

                     16                     17                     18
                      A                      A                      A
 Frequencies --    483.5256               487.1651               501.7586
 Red. masses --      4.7073                 3.9965                 1.4374
 Frc consts  --      0.6484                 0.5588                 0.2132
 IR Inten    --      0.1107                85.3563               303.9141

                     19                     20                     21
                      A                      A                      A
 Frequencies --    602.2124               656.6037               672.5583
 Red. masses --      4.3130                 4.4966                 4.0709
 Frc consts  --      0.9216                 1.1422                 1.0849
 IR Inten    --      6.5358                 0.3181                 1.2933

                     22                     23                     24
                      A                      A                      A
 Frequencies --    743.0939               761.8582               779.9000
 Red. masses --     10.2496                 4.6333                 7.0991
 Frc consts  --      3.3346                 1.5845                 2.5441
 IR Inten    --     43.7244                12.6761                 0.6004

                     25                     26                     27
                      A                      A                      A
 Frequencies --    790.5434               821.1331               879.2040
 Red. masses --      6.1326                12.4622                 1.7148
 Frc consts  --      2.2581                 4.9508                 0.7810
 IR Inten    --     11.7766                15.1323                27.6502

                     28                     29                     30
                      A                      A                      A
 Frequencies --    905.4054               917.5483              1009.5600
 Red. masses --      1.4318                 5.8694                 5.5194
 Frc consts  --      0.6915                 2.9114                 3.3144
 IR Inten    --      0.5906                51.0797                 2.5786

                     31                     32                     33
                      A                      A                      A
 Frequencies --   1046.7205              1058.7017              1114.6241
 Red. masses --      1.6283                 1.4803                 2.8884
 Frc consts  --      1.0511                 0.9776                 2.1143
 IR Inten    --      2.9450                 0.5824                 0.1994

                     34                     35                     36
                      A                      A                      A
 Frequencies --   1114.8650              1225.7703              1244.1000
 Red. masses --      1.3031                 2.5575                 1.5622
 Frc consts  --      0.9543                 2.2640                 1.4246
 IR Inten    --      1.5614                 1.4528                14.8740

                     37                     38                     39
                      A                      A                      A
 Frequencies --   1335.3692              1363.5498              1396.1447
 Red. masses --      3.6049                 5.2395                13.4765
 Frc consts  --      3.7874                 5.7396                15.4771
 IR Inten    --     63.9013                71.1561               367.5420

                     40                     41                     42
                      A                      A                      A
 Frequencies --   1403.2581              1437.6209              1467.7762
 Red. masses --     12.7746                 1.1786                 2.2779
 Frc consts  --     14.8208                 1.4351                 2.8914
 IR Inten    --     46.0858                 3.5678                16.2886

                     43                     44                     45
                      A                      A                      A
 Frequencies --   1494.0088              1495.8889              1529.2067
 Red. masses --      1.1882                 1.2841                 3.6188
 Frc consts  --      1.5625                 1.6929                 4.9859
 IR Inten    --      0.0231                 9.9955                60.1502

                     46                     47                     48
                      A                      A                      A
 Frequencies --   1605.9229              1638.7617              1642.8776
 Red. masses --      6.8078                 7.3356                12.4070
 Frc consts  --     10.3444                11.6069                19.7300
 IR Inten    --      4.1230               430.6920                56.2627

                     49                     50                     51
                      A                      A                      A
 Frequencies --   1666.5451              1695.9551              3082.3568
 Red. masses --      1.3424                 4.7919                 1.0396
 Frc consts  --      2.1967                 8.1206                 5.8197
 IR Inten    --    151.9168                64.4894                 5.6177

                     52                     53                     54
                      A                      A                      A
 Frequencies --   3150.2758              3179.7036              3230.3327
 Red. masses --      1.0964                 1.1044                 1.0915
 Frc consts  --      6.4111                 6.5786                 6.7107
 IR Inten    --      7.0457                 7.4642                 1.9830

                     55                     56                     57
                      A                      A                      A
 Frequencies --   3230.4567              3590.6205              3701.6665
 Red. masses --      1.0909                 1.0474                 1.1005
 Frc consts  --      6.7073                 7.9560                 8.8843
 IR Inten    --      4.4718                48.1236                22.6284

 - Thermochemistry -
 -------------------
 Temperature   298.150 Kelvin.  Pressure   1.00000 Atm.
 Atom     1 has atomic number  8 and mass  15.99491

 Molecular mass:   197.04366 amu.
 Principal axes and moments of inertia in atomic units:
                           1         2         3
     Eigenvalues --  1893.468803119.630934865.11085
           X            1.00000   0.00000   0.00000
           Y           -0.00000   0.99999  -0.00440
           Z           -0.00000   0.00440   0.99999
 This molecule is an asymmetric top.
 Rotational symmetry number  1.
 Warning -- assumption of classical behavior for rotation
           may cause significant error
 Rotational temperatures (Kelvin)      0.04574     0.02776     0.01780
 Rotational constants (GHZ):           0.95314     0.57851     0.37096
 Zero-point vibrational energy     394589.8 (Joules/Mol)
                                   94.30923 (Kcal/Mol)
 Warning -- explicit consideration of  19 degrees of freedom as
           vibrations may cause significant error
 Vibrational temperatures:     72.96    87.13   144.75   228.35   256.55
          (Kelvin)            259.33   295.31   347.67   470.85   471.94
                              476.30   517.72   556.52   631.31   672.42
                              695.68   700.92   721.92   866.45   944.71
                              967.66  1069.14  1096.14  1122.10  1137.41
                             1181.43  1264.98  1302.67  1320.15  1452.53
                             1506.00  1523.23  1603.69  1604.04  1763.61
                             1789.98  1921.30  1961.84  2008.74  2018.97
                             2068.41  2111.80  2149.54  2152.25  2200.18
                             2310.56  2357.81  2363.73  2397.78  2440.10
                             4434.82  4532.54  4574.88  4647.72  4647.90
                             5166.10  5325.87

 Zero-point correction=                           0.150291 (Hartree/Particle)
 Thermal correction to Energy=                    0.162661
 Thermal correction to Enthalpy=                  0.163606
 Thermal correction to Gibbs Free Energy=         0.111288
 Sum of electronic and zero-point Energies=           -735.772842
 Sum of electronic and thermal Energies=              -735.760472
 Sum of electronic and thermal Enthalpies=            -735.759527
 Sum of electronic and thermal Free Energies=         -735.811845

                     E (Thermal)             CV                S
                      KCal/Mol        Cal/Mol-Kelvin    Cal/Mol-Kelvin
 Total                  102.072             46.276            110.111
 Electronic               0.000              0.000              0.000
 Translational            0.889              2.981             41.740
 Rotational               0.889              2.981             31.730
 Vibrational            100.294             40.314             36.641
 Vibration     1          0.595              1.977              4.789
 Vibration     2          0.597              1.973              4.439
 Vibration     3          0.604              1.949              3.443
 Vibration     4          0.621              1.893              2.565
 Vibration     5          0.629              1.869              2.346
 Vibration     6          0.629              1.867              2.326
 Vibration     7          0.640              1.832              2.086
 Vibration     8          0.658              1.777              1.791
 Vibration     9          0.711              1.621              1.274
 Vibration    10          0.711              1.620              1.270
 Vibration    11          0.713              1.614              1.255
 Vibration    12          0.734              1.555              1.123
 Vibration    13          0.755              1.498              1.012
 Vibration    14          0.799              1.386              0.830
 Vibration    15          0.825              1.322              0.745
 Vibration    16          0.840              1.287              0.701
 Vibration    17          0.843              1.279              0.691
 Vibration    18          0.857              1.246              0.654
 Vibration    19          0.961              1.027              0.446

 Normal termination of Gaussian 09 at Fri Aug 20 16:03:44 2021.
