 Gaussian 09, Revision E.01,
 Gaussian 09:  ES64L-G09RevE.01 30-Nov-2015

 -------------------------
 #P OPT Freq B3LYP/6-31G**
 -------------------------

 ------
 SEGFAL
 ------
 Symbolic Z-matrix:
 Charge =  0 Multiplicity = 1

 SCF Done:  E(RB3LYP) =  -690.438369453     A.U. after   17 cycles
 SCF Done:  E(RB3LYP) =  -690.516790063     A.U. after   14 cycles
 SCF Done:  E(RB3LYP) =  -690.527366491     A.U. after   17 cycles
 SCF Done:  E(RB3LYP) =  -690.527578742     A.U. after   17 cycles
 SCF Done:  E(RB3LYP) =  -690.538031180     A.U. after   16 cycles
 SCF Done:  E(RB3LYP) =  -690.534504338     A.U. after   15 cycles
 SCF Done:  E(RB3LYP) =  -690.538187694     A.U. after   11 cycles
 SCF Done:  E(RB3LYP) =  -690.538477405     A.U. after   14 cycles
 SCF Done:  E(RB3LYP) =  -690.538536915     A.U. after   13 cycles
 SCF Done:  E(RB3LYP) =  -690.538545414     A.U. after   11 cycles
 SCF Done:  E(RB3LYP) =  -690.538548153     A.U. after   10 cycles
 SCF Done:  E(RB3LYP) =  -690.538549590     A.U. after   10 cycles
 SCF Done:  E(RB3LYP) =  -690.538550392     A.U. after   10 cycles
 SCF Done:  E(RB3LYP) =  -690.538550628     A.U. after   10 cycles
 SCF Done:  E(RB3LYP) =  -690.538550698     A.U. after    9 cycles
 Optimization completed.
    -- Stationary point found.
 Normal termination of Gaussian 09 at Fri Aug 20 15:37:26 2021.

 ----------------------------------------------------------------------
 #P Geom=AllCheck Guess=TCheck SCRF=Check GenChk RB3LYP/6-31G(d,p) Freq
 ----------------------------------------------------------------------

 Structure from the checkpoint file:  "/public/home/users/caep010/.cache/gau_scr/Gau-187896.chk"
 ------
 SEGFAL
 ------
 Charge =  0 Multiplicity = 1

                         Standard orientation:
 ---------------------------------------------------------------------
 Center     Atomic      Atomic             Coordinates (Angstroms)
 Number     Number       Type             X           Y           Z
 ---------------------------------------------------------------------
      1          6           0        1.497221    2.261876    0.000065
      2          7           0        0.612685    1.092240    0.000127
      3          7           0       -0.717324    1.269046    0.000116
      4          6           0       -1.169756    0.018908    0.000140
      5          7           0       -0.246053   -0.954675    0.000074
      6          1           0        2.131457    2.246194    0.885881
      7          6           0        0.862917   -0.247305    0.000186
      8          1           0        2.127327    2.249285   -0.888893
      9          7           0       -2.608273   -0.257022   -0.000049
     10          8           0       -3.350717    0.718728    0.000034
     11          8           0       -2.938798   -1.435121   -0.000331
     12          1           0        0.844293    3.132346    0.002871
     13          7           0        2.200882   -0.820959    0.000025
     14          8           0        2.287335   -2.036298    0.000345
     15          8           0        3.134832   -0.013448   -0.000580
 ---------------------------------------------------------------------

 SCF Done:  E(RB3LYP) =  -690.538550698     A.U. after    1 cycles

 The electronic state is 1-A.
 Alpha  occ. eigenvalues --  -19.22687 -19.22476 -19.20319 -19.20204 -14.62221
 Alpha  occ. eigenvalues --  -14.59831 -14.50323 -14.43372 -14.40279 -10.35531
 Alpha  occ. eigenvalues --  -10.33260 -10.27833  -1.27359  -1.25044  -1.15893
 Alpha  occ. eigenvalues --   -1.10104  -1.07815  -0.98785  -0.92292  -0.81828
 Alpha  occ. eigenvalues --   -0.80253  -0.74041  -0.65881  -0.62583  -0.59296
 Alpha  occ. eigenvalues --   -0.59049  -0.56490  -0.56224  -0.54451  -0.54150
 Alpha  occ. eigenvalues --   -0.53246  -0.51803  -0.46660  -0.46537  -0.40529
 Alpha  occ. eigenvalues --   -0.36223  -0.35493  -0.35050  -0.35038  -0.33152
 Alpha  occ. eigenvalues --   -0.33068  -0.32667  -0.32640  -0.31032
 Alpha virt. eigenvalues --   -0.13074  -0.10692  -0.01795   0.02575   0.07313
 Alpha virt. eigenvalues --    0.07987   0.09550   0.10768   0.13331   0.14082
 Alpha virt. eigenvalues --    0.19067   0.21778   0.22880   0.23979   0.28536

 Mulliken charges:
               1
     1  C   -0.171327
     2  N   -0.295524
     3  N   -0.255026
     4  C    0.634383
     5  N   -0.431496
     6  H    0.170234
     7  C    0.736722
     8  H    0.170175
     9  N    0.367865
    10  O   -0.367177
    11  O   -0.355495
    12  H    0.168914
    13  N    0.358939
    14  O   -0.336175
    15  O   -0.395012
 Sum of Mulliken charges =  -0.00000

 Dipole moment (field-independent basis, Debye):
    X=              3.2282    Y=              4.0913    Z=              0.0008  Tot=              5.2115
 Quadrupole moment (field-independent basis, Debye-Ang):
   XX=            -82.2535   YY=            -68.1917   ZZ=            -61.6830
   XY=              6.7273   XZ=              0.0014   YZ=              0.0002

  Exact polarizability: 107.154   2.315  91.443  -0.006  -0.006  35.821
 Approx polarizability: 161.858   3.919 199.526  -0.013  -0.014  55.492

                      1                      2                      3
                      A                      A                      A
 Frequencies --     36.4294                43.3451               125.9933
 Red. masses --     13.7955                 7.4203                 7.2000
 Frc consts  --      0.0108                 0.0082                 0.0673
 IR Inten    --      0.0048                 1.8192                 0.9570

                      4                      5                      6
                      A                      A                      A
 Frequencies --    145.6014               152.9384               204.7493
 Red. masses --      1.1175                13.3173                 5.2592
 Frc consts  --      0.0140                 0.1835                 0.1299
 IR Inten    --      0.6806                 2.3342                 3.3487

                      7                      8                      9
                      A                      A                      A
 Frequencies --    252.6326               317.6808               345.4007
 Red. masses --      5.1186                 7.8920                12.5650
 Frc consts  --      0.1925                 0.4693                 0.8832
 IR Inten    --      3.8665                 0.0133                 0.3129

                     10                     11                     12
                      A                      A                      A
 Frequencies --    353.7818               471.6241               515.6830
 Red. masses --      5.8612                 9.0982                 9.9812
 Frc consts  --      0.4322                 1.1923                 1.5639
 IR Inten    --      0.9030                 1.7875                 0.6486

                     13                     14                     15
                      A                      A                      A
 Frequencies --    636.5709               644.4180               661.0435
 Red. masses --      7.8385                10.7945                13.4506
 Frc consts  --      1.8714                 2.6411                 3.4630
 IR Inten    --      3.3051                 7.7326                20.1784

                     16                     17                     18
                      A                      A                      A
 Frequencies --    727.6593               758.2428               781.5375
 Red. masses --      7.0222                13.0911                13.2589
 Frc consts  --      2.1907                 4.4345                 4.7715
 IR Inten    --     18.4765                 2.1680                 0.2315

                     19                     20                     21
                      A                      A                      A
 Frequencies --    836.7325               867.1036              1043.0382
 Red. masses --     14.9508                12.6748                10.0572
 Frc consts  --      6.1672                 5.6148                 6.4466
 IR Inten    --     23.1721               122.7735                 2.2455

                     22                     23                     24
                      A                      A                      A
 Frequencies --   1069.2720              1150.5094              1189.9728
 Red. masses --      2.0855                 1.3066                 5.9846
 Frc consts  --      1.4048                 1.0190                 4.9930
 IR Inten    --     12.5106                 0.0061                 7.3259

                     25                     26                     27
                      A                      A                      A
 Frequencies --   1323.1247              1375.2478              1385.1961
 Red. masses --      4.4716                12.1690                10.4290
 Frc consts  --      4.6123                13.5602                11.7900
 IR Inten    --     23.1199                11.5609               287.6703

                     28                     29                     30
                      A                      A                      A
 Frequencies --   1407.7890              1424.1875              1446.7953
 Red. masses --      9.0833                 3.4406                 7.1175
 Frc consts  --     10.6064                 4.1117                 8.7779
 IR Inten    --     51.3989                69.5021                 4.2266

                     31                     32                     33
                      A                      A                      A
 Frequencies --   1482.8051              1488.7354              1504.9058
 Red. masses --      1.7530                 1.0414                 1.1207
 Frc consts  --      2.2709                 1.3599                 1.4954
 IR Inten    --      7.6391                12.8463                19.9836

                     34                     35                     36
                      A                      A                      A
 Frequencies --   1552.2935              1667.2656              1676.8617
 Red. masses --     10.3131                13.9731                14.5002
 Frc consts  --     14.6415                22.8851                24.0226
 IR Inten    --     74.9817               112.7974               283.1089

                     37                     38                     39
                      A                      A                      A
 Frequencies --   3096.1015              3182.4343              3206.0198
 Red. masses --      1.0306                 1.1067                 1.1083
 Frc consts  --      5.8208                 6.6041                 6.7117
 IR Inten    --      4.2334                 1.1671                 0.5625

 - Thermochemistry -
 -------------------
 Temperature   298.150 Kelvin.  Pressure   1.00000 Atm.
 Atom     1 has atomic number  6 and mass  12.00000

 Molecular mass:   173.01850 amu.
 Principal axes and moments of inertia in atomic units:
                           1         2         3
     Eigenvalues --   903.820602852.650743745.13493
           X            0.99974   0.02260  -0.00000
           Y           -0.02260   0.99974  -0.00000
           Z            0.00000   0.00000   1.00000
 This molecule is an asymmetric top.
 Rotational symmetry number  1.
 Warning -- assumption of classical behavior for rotation
           may cause significant error
 Rotational temperatures (Kelvin)      0.09583     0.03036     0.02313
 Rotational constants (GHZ):           1.99679     0.63265     0.48189
 Zero-point vibrational energy     242553.2 (Joules/Mol)
                                   57.97160 (Kcal/Mol)
 Warning -- explicit consideration of  12 degrees of freedom as
           vibrations may cause significant error
 Vibrational temperatures:     52.41    62.36   181.28   209.49   220.04
          (Kelvin)            294.59   363.48   457.07   496.95   509.01
                              678.56   741.95   915.88   927.17   951.09
                             1046.94  1090.94  1124.46  1203.87  1247.57
                             1500.70  1538.44  1655.32  1712.10  1903.68
                             1978.67  1992.99  2025.49  2049.09  2081.61
                             2133.42  2141.96  2165.22  2233.40  2398.82
                             2412.63  4454.59  4578.81  4612.74

 Zero-point correction=                           0.092384 (Hartree/Particle)
 Thermal correction to Energy=                    0.102503
 Thermal correction to Enthalpy=                  0.103447
 Thermal correction to Gibbs Free Energy=         0.054819
 Sum of electronic and zero-point Energies=           -690.446167
 Sum of electronic and thermal Energies=              -690.436048
 Sum of electronic and thermal Enthalpies=            -690.435104
 Sum of electronic and thermal Free Energies=         -690.483732

                     E (Thermal)             CV                S
                      KCal/Mol        Cal/Mol-Kelvin    Cal/Mol-Kelvin
 Total                   64.321             34.809            102.346
 Electronic               0.000              0.000              0.000
 Translational            0.889              2.981             41.352
 Rotational               0.889              2.981             30.647
 Vibrational             62.544             28.847             30.347
 Vibration     1          0.594              1.982              5.444
 Vibration     2          0.595              1.980              5.100
 Vibration     3          0.611              1.927              3.006
 Vibration     4          0.617              1.907              2.729
 Vibration     5          0.619              1.899              2.635
 Vibration     6          0.640              1.833              2.090
 Vibration     7          0.664              1.758              1.712
 Vibration     8          0.704              1.640              1.322
 Vibration     9          0.724              1.585              1.187
 Vibration    10          0.730              1.568              1.149
 Vibration    11          0.829              1.313              0.733
 Vibration    12          0.871              1.215              0.620

 Normal termination of Gaussian 09 at Fri Aug 20 15:37:46 2021.
