 Gaussian 09, Revision E.01,
 Gaussian 09:  ES64L-G09RevE.01 30-Nov-2015

 -------------------------
 #P OPT Freq B3LYP/6-31G**
 -------------------------

 ------
 WUKZIL
 ------
 Symbolic Z-matrix:
 Charge =  0 Multiplicity = 1

 SCF Done:  E(RB3LYP) =  -547.309288651     A.U. after   16 cycles
 SCF Done:  E(RB3LYP) =  -547.395745643     A.U. after   13 cycles
 SCF Done:  E(RB3LYP) =  -547.431381184     A.U. after   14 cycles
 SCF Done:  E(RB3LYP) =  -547.426088105     A.U. after   14 cycles
 SCF Done:  E(RB3LYP) =  -547.433091836     A.U. after   11 cycles
 SCF Done:  E(RB3LYP) =  -547.434049976     A.U. after   13 cycles
 SCF Done:  E(RB3LYP) =  -547.434467022     A.U. after   13 cycles
 SCF Done:  E(RB3LYP) =  -547.434633317     A.U. after   13 cycles
 SCF Done:  E(RB3LYP) =  -547.434747652     A.U. after   16 cycles
 SCF Done:  E(RB3LYP) =  -547.434995174     A.U. after   13 cycles
 SCF Done:  E(RB3LYP) =  -547.435779923     A.U. after   14 cycles
 SCF Done:  E(RB3LYP) =  -547.436035897     A.U. after   13 cycles
 SCF Done:  E(RB3LYP) =  -547.436385088     A.U. after   14 cycles
 SCF Done:  E(RB3LYP) =  -547.436393777     A.U. after   13 cycles
 SCF Done:  E(RB3LYP) =  -547.436474881     A.U. after   12 cycles
 SCF Done:  E(RB3LYP) =  -547.436482825     A.U. after   11 cycles
 SCF Done:  E(RB3LYP) =  -547.436483738     A.U. after    9 cycles
 SCF Done:  E(RB3LYP) =  -547.436483985     A.U. after    8 cycles
 SCF Done:  E(RB3LYP) =  -547.436483959     A.U. after    8 cycles
 Optimization completed.
    -- Stationary point found.
 Normal termination of Gaussian 09 at Fri Aug 20 15:46:47 2021.

 ----------------------------------------------------------------------
 #P Geom=AllCheck Guess=TCheck SCRF=Check GenChk RB3LYP/6-31G(d,p) Freq
 ----------------------------------------------------------------------

 Structure from the checkpoint file:  "/public/home/users/caep010/.cache/gau_scr/Gau-7029.chk"
 ------
 WUKZIL
 ------
 Charge =  0 Multiplicity = 1

                         Standard orientation:
 ---------------------------------------------------------------------
 Center     Atomic      Atomic             Coordinates (Angstroms)
 Number     Number       Type             X           Y           Z
 ---------------------------------------------------------------------
      1          7           0        3.136239   -0.193176   -0.095764
      2          6           0        2.541523    0.940043   -0.481281
      3          6           0        1.167768    1.167363   -0.404058
      4          1           0        3.192149    1.714262   -0.883132
      5          6           0        0.350571    0.157748    0.116771
      6          6           0        0.957020   -1.033324    0.532526
      7          7           0       -1.042716    0.394376    0.274551
      8          7           0       -1.968326   -0.543265   -0.191772
      9          8           0       -1.552759   -1.647310   -0.526587
     10          1           0        0.372534   -1.844398    0.943329
     11          6           0       -1.579092    1.729571    0.529261
     12          1           0       -0.813903    2.290537    1.064765
     13          1           0       -1.848967    2.252729   -0.394529
     14          8           0       -3.140569   -0.173260   -0.208980
     15          6           0        2.337963   -1.150589    0.395976
     16          1           0        2.829408   -2.068559    0.711341
     17          1           0        0.753322    2.106383   -0.752688
     18          1           0       -2.468822    1.643195    1.151177
 ---------------------------------------------------------------------

 SCF Done:  E(RB3LYP) =  -547.436483959     A.U. after    1 cycles

 The electronic state is 1-A.
 Alpha  occ. eigenvalues --  -19.18689 -19.18547 -14.60859 -14.43500 -14.34039
 Alpha  occ. eigenvalues --  -10.27027 -10.25002 -10.23753 -10.23483 -10.21814
 Alpha  occ. eigenvalues --  -10.21278  -1.24941  -1.06784  -0.99754  -0.95062
 Alpha  occ. eigenvalues --   -0.82388  -0.77962  -0.76088  -0.69256  -0.64790
 Alpha  occ. eigenvalues --   -0.59982  -0.57074  -0.56135  -0.54571  -0.51147
 Alpha  occ. eigenvalues --   -0.49998  -0.48252  -0.45969  -0.45835  -0.44370
 Alpha  occ. eigenvalues --   -0.43231  -0.41208  -0.38395  -0.33752  -0.33209
 Alpha  occ. eigenvalues --   -0.31615  -0.29949  -0.27599  -0.26705  -0.26351
 Alpha virt. eigenvalues --   -0.06514  -0.02726  -0.02399   0.07827   0.09657
 Alpha virt. eigenvalues --    0.10185   0.12709   0.13323   0.13998   0.14881
 Alpha virt. eigenvalues --    0.16306   0.18010   0.18134   0.21295   0.25517

 Mulliken charges:
               1
     1  N   -0.425365
     2  C    0.090107
     3  C   -0.117437
     4  H    0.106744
     5  C    0.314234
     6  C   -0.069874
     7  N   -0.401743
     8  N    0.644706
     9  O   -0.415654
    10  H    0.121774
    11  C   -0.170553
    12  H    0.135961
    13  H    0.141374
    14  O   -0.411327
    15  C    0.082626
    16  H    0.109675
    17  H    0.101687
    18  H    0.163063
 Sum of Mulliken charges =  -0.00000

 Dipole moment (field-independent basis, Debye):
    X=              0.3530    Y=              3.1594    Z=              1.2693  Tot=              3.4231
 Quadrupole moment (field-independent basis, Debye-Ang):
   XX=            -77.7430   YY=            -56.8393   ZZ=            -61.8129
   XY=             -4.2307   XZ=             -2.3264   YZ=             -3.2715

  Exact polarizability: 123.046  -2.961  93.551  -2.524  -8.713  47.847
 Approx polarizability: 201.321  -9.158 164.608  -5.643 -15.527  76.166

                      1                      2                      3
                      A                      A                      A
 Frequencies --     60.0646                73.7903               125.5739
 Red. masses --      4.6327                 7.5804                 5.0355
 Frc consts  --      0.0098                 0.0243                 0.0468
 IR Inten    --      2.4365                 0.7494                 2.6085

                      4                      5                      6
                      A                      A                      A
 Frequencies --    159.8373               199.5654               285.3066
 Red. masses --      1.9434                 1.7671                 7.1822
 Frc consts  --      0.0293                 0.0415                 0.3445
 IR Inten    --      1.9629                 2.4791                 4.4173

                      7                      8                      9
                      A                      A                      A
 Frequencies --    346.7997               386.1090               396.4301
 Red. masses --      4.0525                 4.8586                 2.9019
 Frc consts  --      0.2872                 0.4268                 0.2687
 IR Inten    --      4.2780                 0.8009                 0.6796

                     10                     11                     12
                      A                      A                      A
 Frequencies --    425.3761               538.8747               633.8120
 Red. masses --      4.1715                 3.9039                 5.2236
 Frc consts  --      0.4447                 0.6679                 1.2364
 IR Inten    --      0.9269                 6.9450                25.2214

                     13                     14                     15
                      A                      A                      A
 Frequencies --    667.7378               681.6791               753.8964
 Red. masses --      6.8459                 6.8619                 3.6938
 Frc consts  --      1.7984                 1.8787                 1.2369
 IR Inten    --     13.0869                 1.0631                 0.6299

                     16                     17                     18
                      A                      A                      A
 Frequencies --    757.8038               815.7929               839.9332
 Red. masses --     13.2203                 6.3297                 1.5041
 Frc consts  --      4.4731                 2.4819                 0.6252
 IR Inten    --     15.5025                 3.7835                26.9142

                     19                     20                     21
                      A                      A                      A
 Frequencies --    871.8368               959.3623               975.8824
 Red. masses --      1.2523                 3.3190                 1.3421
 Frc consts  --      0.5608                 1.7998                 0.7531
 IR Inten    --      2.0311               112.8114                 5.7340

                     22                     23                     24
                      A                      A                      A
 Frequencies --    997.3184              1012.7605              1096.1131
 Red. masses --      1.4362                 7.5985                 1.9779
 Frc consts  --      0.8416                 4.5919                 1.4001
 IR Inten    --      0.5968                 6.3472                 5.2504

                     25                     26                     27
                      A                      A                      A
 Frequencies --   1119.9632              1127.3133              1148.4693
 Red. masses --      1.9461                 1.9339                 1.5165
 Frc consts  --      1.4382                 1.4480                 1.1785
 IR Inten    --     28.1728                37.8049                 4.2137

                     28                     29                     30
                      A                      A                      A
 Frequencies --   1190.8855              1254.6539              1304.2965
 Red. masses --      2.1368                 1.2904                10.3039
 Frc consts  --      1.7855                 1.1968                10.3277
 IR Inten    --     18.9488                 8.2128                 9.2800

                     31                     32                     33
                      A                      A                      A
 Frequencies --   1326.2513              1357.6750              1373.0464
 Red. masses --      7.3324                 2.7157                 1.6413
 Frc consts  --      7.5989                 2.9493                 1.8231
 IR Inten    --    407.0689                18.7311                21.9246

                     34                     35                     36
                      A                      A                      A
 Frequencies --   1456.0790              1466.3340              1495.2669
 Red. masses --      2.1117                 1.2127                 1.0640
 Frc consts  --      2.6379                 1.5363                 1.4016
 IR Inten    --     19.5949                43.8738                18.8709

                     37                     38                     39
                      A                      A                      A
 Frequencies --   1520.4960              1539.8808              1616.1007
 Red. masses --      1.0702                 2.1940                 7.4876
 Frc consts  --      1.4578                 3.0652                11.5220
 IR Inten    --      9.3356                20.6559                26.7165

                     40                     41                     42
                      A                      A                      A
 Frequencies --   1641.0515              1671.5476              3057.0968
 Red. masses --      5.3350                12.7396                 1.0428
 Frc consts  --      8.4650                20.9722                 5.7420
 IR Inten    --     61.7506               311.5994                20.0231

                     43                     44                     45
                      A                      A                      A
 Frequencies --   3146.8684              3170.4182              3176.1910
 Red. masses --      1.0935                 1.0890                 1.0915
 Frc consts  --      6.3801                 6.4492                 6.4879
 IR Inten    --      9.2494                26.6912                18.0555

                     46                     47                     48
                      A                      A                      A
 Frequencies --   3184.7599              3219.0620              3258.9105
 Red. masses --      1.1058                 1.0933                 1.0938
 Frc consts  --      6.6079                 6.6751                 6.8443
 IR Inten    --      2.3229                 5.2793                 0.3834

 - Thermochemistry -
 -------------------
 Temperature   298.150 Kelvin.  Pressure   1.00000 Atm.
 Atom     1 has atomic number  7 and mass  14.00307

 Molecular mass:   153.05383 amu.
 Principal axes and moments of inertia in atomic units:
                           1         2         3
     Eigenvalues --   700.538292358.945522876.05918
           X            0.99977  -0.02040  -0.00618
           Y            0.02028   0.99962  -0.01871
           Z            0.00656   0.01858   0.99981
 This molecule is an asymmetric top.
 Rotational symmetry number  1.
 Warning -- assumption of classical behavior for rotation
           may cause significant error
 Rotational temperatures (Kelvin)      0.12364     0.03672     0.03012
 Rotational constants (GHZ):           2.57622     0.76506     0.62750
 Zero-point vibrational energy     358187.5 (Joules/Mol)
                                   85.60887 (Kcal/Mol)
 Warning -- explicit consideration of  11 degrees of freedom as
           vibrations may cause significant error
 Vibrational temperatures:     86.42   106.17   180.67   229.97   287.13
          (Kelvin)            410.49   498.97   555.52   570.37   612.02
                              775.32   911.91   960.72   980.78  1084.69
                             1090.31  1173.74  1208.48  1254.38  1380.31
                             1404.08  1434.92  1457.13  1577.06  1611.38
                             1621.95  1652.39  1713.42  1805.16  1876.59
                             1908.18  1953.39  1975.51  2094.97  2109.72
                             2151.35  2187.65  2215.54  2325.21  2361.10
                             2404.98  4398.47  4527.64  4561.52  4569.82
                             4582.15  4631.51  4688.84

 Zero-point correction=                           0.136426 (Hartree/Particle)
 Thermal correction to Energy=                    0.145780
 Thermal correction to Enthalpy=                  0.146724
 Thermal correction to Gibbs Free Energy=         0.101010
 Sum of electronic and zero-point Energies=           -547.300058
 Sum of electronic and thermal Energies=              -547.290704
 Sum of electronic and thermal Enthalpies=            -547.289760
 Sum of electronic and thermal Free Energies=         -547.335474

                     E (Thermal)             CV                S
                      KCal/Mol        Cal/Mol-Kelvin    Cal/Mol-Kelvin
 Total                   91.478             34.361             96.214
 Electronic               0.000              0.000              0.000
 Translational            0.889              2.981             40.987
 Rotational               0.889              2.981             29.942
 Vibrational             89.701             28.399             25.285
 Vibration     1          0.597              1.973              4.455
 Vibration     2          0.599              1.966              4.050
 Vibration     3          0.611              1.927              3.013
 Vibration     4          0.622              1.892              2.552
 Vibration     5          0.638              1.840              2.137
 Vibration     6          0.683              1.701              1.502
 Vibration     7          0.725              1.582              1.181
 Vibration     8          0.755              1.500              1.015
 Vibration     9          0.763              1.478              0.976
 Vibration    10          0.787              1.415              0.874
 Vibration    11          0.894              1.164              0.568

 Optimization completed.
    -- Stationary point found.
 Normal termination of Gaussian 09 at Fri Aug 20 15:47:11 2021.
