 Gaussian 09, Revision E.01,
 Gaussian 09:  ES64L-G09RevE.01 30-Nov-2015

 -------------------------
 #P OPT Freq B3LYP/6-31G**
 -------------------------

 --------
 NTPYRO11
 --------
 Symbolic Z-matrix:
 Charge =  0 Multiplicity = 1

 SCF Done:  E(RB3LYP) =  -527.860859634     A.U. after   16 cycles
 SCF Done:  E(RB3LYP) =  -527.933450350     A.U. after   14 cycles
 SCF Done:  E(RB3LYP) =  -527.952424073     A.U. after   14 cycles
 SCF Done:  E(RB3LYP) =  -527.952959606     A.U. after   14 cycles
 SCF Done:  E(RB3LYP) =  -527.952998879     A.U. after   10 cycles
 SCF Done:  E(RB3LYP) =  -527.953004883     A.U. after    9 cycles
 Optimization completed.
    -- Stationary point found.
 Normal termination of Gaussian 09 at Fri Aug 20 15:42:19 2021.

 ----------------------------------------------------------------------
 #P Geom=AllCheck Guess=TCheck SCRF=Check GenChk RB3LYP/6-31G(d,p) Freq
 ----------------------------------------------------------------------

 Structure from the checkpoint file:  "/public/home/users/caep010/.cache/gau_scr/Gau-203786.chk"
 --------
 NTPYRO11
 --------
 Charge =  0 Multiplicity = 1

                         Standard orientation:
 ---------------------------------------------------------------------
 Center     Atomic      Atomic             Coordinates (Angstroms)
 Number     Number       Type             X           Y           Z
 ---------------------------------------------------------------------
      1          6           0        1.188073   -1.405939    0.000000
      2          6           0        1.207522   -0.029654    0.000000
      3          6           0        0.000000    0.669070   -0.000000
      4          6           0       -1.207708   -0.029012   -0.000000
      5          6           0       -1.188828   -1.405428    0.000000
      6          1           0       -2.066110   -2.036128    0.000000
      7          7           0        0.000451    2.125719   -0.000000
      8          8           0       -1.092502    2.694814   -0.000000
      9          8           0        1.093912    2.693842   -0.000000
     10          1           0        2.065106   -2.037525    0.000000
     11          1           0       -2.147774    0.507531   -0.000000
     12          1           0        2.147595    0.506906   -0.000000
     13          7           0       -0.000550   -2.106888    0.000000
     14          8           0       -0.000468   -3.372009    0.000000
 ---------------------------------------------------------------------

 SCF Done:  E(RB3LYP) =  -527.953004883     A.U. after    2 cycles

 The electronic state is 1-A'.
 Alpha  occ. eigenvalues --  -19.19222 -19.19220 -19.15845 -14.58548 -14.52020
 Alpha  occ. eigenvalues --  -10.27583 -10.26869 -10.26867 -10.25234 -10.25232
 Alpha  occ. eigenvalues --   -1.23563  -1.14645  -1.06295  -0.93858  -0.85603
 Alpha  occ. eigenvalues --   -0.82383  -0.74325  -0.70287  -0.63444  -0.57664
 Alpha  occ. eigenvalues --   -0.55889  -0.54526  -0.52543  -0.51181  -0.50646
 Alpha  occ. eigenvalues --   -0.50254  -0.48429  -0.45183  -0.41966  -0.37826
 Alpha  occ. eigenvalues --   -0.32317  -0.32078  -0.31342  -0.30436  -0.28096
 Alpha  occ. eigenvalues --   -0.25042
 Alpha virt. eigenvalues --   -0.11090  -0.05631  -0.03494   0.06474   0.10170
 Alpha virt. eigenvalues --    0.10985   0.12885   0.15395   0.16423   0.16970
 Alpha virt. eigenvalues --    0.22369   0.24245   0.25562   0.27055   0.32581

 Mulliken charges:
               1
     1  C    0.125172
     2  C   -0.127042
     3  C    0.270236
     4  C   -0.127079
     5  C    0.125235
     6  H    0.156647
     7  N    0.386938
     8  O   -0.398450
     9  O   -0.398421
    10  H    0.156696
    11  H    0.160114
    12  H    0.160137
    13  N   -0.019611
    14  O   -0.470572
 Sum of Mulliken charges =  -0.00000

 Dipole moment (field-independent basis, Debye):
    X=             -0.0014    Y=             -1.2441    Z=             -0.0000  Tot=              1.2441
 Quadrupole moment (field-independent basis, Debye-Ang):
   XX=            -48.7049   YY=            -78.4705   ZZ=            -55.1546
   XY=             -0.0057   XZ=             -0.0000   YZ=              0.0000

  Exact polarizability:  82.522   0.003 132.287   0.000   0.000  27.866
 Approx polarizability: 163.113   0.000 288.029   0.000   0.000  43.278

                      1                      2                      3
                     A"                     A"                     A'
 Frequencies --     76.4253               114.4207               228.5365
 Red. masses --      7.8796                10.2586                 8.9571
 Frc consts  --      0.0271                 0.0791                 0.2756
 IR Inten    --      0.0001                11.3790                 6.6647

                      4                      5                      6
                     A"                     A'                     A"
 Frequencies --    289.5223               363.3417               434.2092
 Red. masses --      7.0115                12.5831                 3.1911
 Frc consts  --      0.3463                 0.9787                 0.3545
 IR Inten    --      0.4798                 0.2825                 0.0000

                      7                      8                      9
                     A'                     A"                     A'
 Frequencies --    474.2907               509.7129               550.3703
 Red. masses --      9.1862                 2.9397                 5.8623
 Frc consts  --      1.2175                 0.4500                 1.0462
 IR Inten    --      9.6566                 4.6094                 0.0047

                     10                     11                     12
                     A'                     A'                     A"
 Frequencies --    658.5196               665.3724               690.7114
 Red. masses --      8.1570                 7.0916                 3.6356
 Frc consts  --      2.0841                 1.8498                 1.0219
 IR Inten    --     35.3130                 0.6201                12.9114

                     13                     14                     15
                     A"                     A"                     A'
 Frequencies --    756.4318               824.1308               838.9613
 Red. masses --      7.7477                 1.2486                 6.6880
 Frc consts  --      2.6119                 0.4996                 2.7735
 IR Inten    --     18.0285                 0.0092                 2.4783

                     16                     17                     18
                     A"                     A'                     A"
 Frequencies --    861.5572               883.4301               972.8676
 Red. masses --      1.7962                 7.8414                 1.2913
 Frc consts  --      0.7855                 3.6057                 0.7201
 IR Inten    --     50.8013                15.6632                 1.0847

                     19                     20                     21
                     A"                     A'                     A'
 Frequencies --    973.2466              1035.9573              1108.6264
 Red. masses --      1.2953                 2.7159                 1.2886
 Frc consts  --      0.7229                 1.7173                 0.9331
 IR Inten    --      0.7138                10.5484                14.4014

                     22                     23                     24
                     A'                     A'                     A'
 Frequencies --   1141.4935              1200.7796              1283.4663
 Red. masses --      2.1601                 1.4740                 6.6752
 Frc consts  --      1.6583                 1.2522                 6.4787
 IR Inten    --    140.8067                 6.6257                 0.0001

                     25                     26                     27
                     A'                     A'                     A'
 Frequencies --   1314.5579              1384.9968              1398.4859
 Red. masses --      1.2962                10.0667                 5.1434
 Frc consts  --      1.3198                11.3772                 5.9267
 IR Inten    --      0.2794               624.1861                10.6855

                     28                     29                     30
                     A'                     A'                     A'
 Frequencies --   1500.1103              1513.5717              1582.8575
 Red. masses --      3.7227                 2.9753                 9.5619
 Frc consts  --      4.9358                 4.0159                14.1149
 IR Inten    --      0.7842                83.7198                37.8461

                     31                     32                     33
                     A'                     A'                     A'
 Frequencies --   1649.2655              1673.5701              3250.5777
 Red. masses --     12.2821                 5.9170                 1.0911
 Frc consts  --     19.6835                 9.7643                 6.7926
 IR Inten    --    173.7243                91.0363                 4.6864

                     34                     35                     36
                     A'                     A'                     A'
 Frequencies --   3251.5877              3271.4261              3274.4460
 Red. masses --      1.0909                 1.0955                 1.0960
 Frc consts  --      6.7956                 6.9081                 6.9237
 IR Inten    --      3.7134                 3.2678                 1.2715

 - Thermochemistry -
 -------------------
 Temperature   298.150 Kelvin.  Pressure   1.00000 Atm.
 Atom     1 has atomic number  6 and mass  12.00000

 Molecular mass:   140.02219 amu.
 Principal axes and moments of inertia in atomic units:
                           1         2         3
     Eigenvalues --   446.478102146.787912593.26600
           X            0.00019   1.00000   0.00000
           Y            1.00000  -0.00019   0.00000
           Z           -0.00000   0.00000   1.00000
 This molecule is an asymmetric top.
 Rotational symmetry number  1.
 Warning -- assumption of classical behavior for rotation
           may cause significant error
 Rotational temperatures (Kelvin)      0.19399     0.04035     0.03340
 Rotational constants (GHZ):           4.04217     0.84067     0.69593
 Zero-point vibrational energy     251226.8 (Joules/Mol)
                                   60.04464 (Kcal/Mol)
 Warning -- explicit consideration of   9 degrees of freedom as
           vibrations may cause significant error
 Vibrational temperatures:    109.96   164.63   328.81   416.56   522.77
          (Kelvin)            624.73   682.40   733.36   791.86   947.46
                              957.32   993.78  1088.34  1185.74  1207.08
                             1239.59  1271.06  1399.74  1400.28  1490.51
                             1595.06  1642.35  1727.65  1846.62  1891.35
                             1992.70  2012.11  2158.32  2177.69  2277.38
                             2372.92  2407.89  4676.85  4678.30  4706.85
                             4711.19

 Zero-point correction=                           0.095687 (Hartree/Particle)
 Thermal correction to Energy=                    0.103191
 Thermal correction to Enthalpy=                  0.104135
 Thermal correction to Gibbs Free Energy=         0.062824
 Sum of electronic and zero-point Energies=           -527.857318
 Sum of electronic and thermal Energies=              -527.849814
 Sum of electronic and thermal Enthalpies=            -527.848870
 Sum of electronic and thermal Free Energies=         -527.890180

                     E (Thermal)             CV                S
                      KCal/Mol        Cal/Mol-Kelvin    Cal/Mol-Kelvin
 Total                   64.753             28.311             86.945
 Electronic               0.000              0.000              0.000
 Translational            0.889              2.981             40.721
 Rotational               0.889              2.981             29.298
 Vibrational             62.976             22.349             16.925
 Vibration     1          0.599              1.965              3.981
 Vibration     2          0.607              1.937              3.193
 Vibration     3          0.651              1.797              1.890
 Vibration     4          0.686              1.693              1.477
 Vibration     5          0.737              1.548              1.108
 Vibration     6          0.795              1.396              0.845
 Vibration     7          0.831              1.307              0.726
 Vibration     8          0.865              1.228              0.634
 Vibration     9          0.906              1.139              0.543

 Optimization completed.
    -- Stationary point found.
 Normal termination of Gaussian 09 at Fri Aug 20 15:42:32 2021.
