 Gaussian 09, Revision E.01,
 Gaussian 09:  ES64L-G09RevE.01 30-Nov-2015

 -------------------------
 #P OPT Freq B3LYP/6-31G**
 -------------------------

 ------
 MADKUZ
 ------
 Symbolic Z-matrix:
 Charge =  0 Multiplicity = 1

 SCF Done:  E(RB3LYP) =  -685.068943312     A.U. after   15 cycles
 SCF Done:  E(RB3LYP) =  -685.189232389     A.U. after   13 cycles
 SCF Done:  E(RB3LYP) =  -685.272481056     A.U. after   14 cycles
 SCF Done:  E(RB3LYP) =  -685.270870751     A.U. after   15 cycles
 SCF Done:  E(RB3LYP) =  -685.273135098     A.U. after   11 cycles
 SCF Done:  E(RB3LYP) =  -685.269531792     A.U. after   15 cycles
 SCF Done:  E(RB3LYP) =  -685.273978856     A.U. after   10 cycles
 SCF Done:  E(RB3LYP) =  -685.274137905     A.U. after   12 cycles
 SCF Done:  E(RB3LYP) =  -685.274155867     A.U. after   13 cycles
 SCF Done:  E(RB3LYP) =  -685.274228621     A.U. after   13 cycles
 SCF Done:  E(RB3LYP) =  -685.274241816     A.U. after   10 cycles
 SCF Done:  E(RB3LYP) =  -685.274251271     A.U. after   11 cycles
 SCF Done:  E(RB3LYP) =  -685.274253414     A.U. after   10 cycles
 SCF Done:  E(RB3LYP) =  -685.274254041     A.U. after   10 cycles
 SCF Done:  E(RB3LYP) =  -685.274254496     A.U. after    7 cycles
 SCF Done:  E(RB3LYP) =  -685.274254525     A.U. after    8 cycles
 Optimization completed.
    -- Stationary point found.
 Normal termination of Gaussian 09 at Fri Aug 20 15:52:12 2021.

 ----------------------------------------------------------------------
 #P Geom=AllCheck Guess=TCheck SCRF=Check GenChk RB3LYP/6-31G(d,p) Freq
 ----------------------------------------------------------------------

 Structure from the checkpoint file:  "/public/home/users/caep010/.cache/gau_scr/Gau-86970.chk"
 ------
 MADKUZ
 ------
 Charge =  0 Multiplicity = 1

                         Standard orientation:
 ---------------------------------------------------------------------
 Center     Atomic      Atomic             Coordinates (Angstroms)
 Number     Number       Type             X           Y           Z
 ---------------------------------------------------------------------
      1          6           0       -3.239744   -1.039589    0.303876
      2          6           0       -1.883828   -1.164856    0.000867
      3          6           0       -1.165319   -0.025765   -0.376455
      4          6           0       -1.867495    1.182260   -0.447767
      5          6           0       -3.223823    1.199999   -0.121876
      6          6           0        0.312117   -0.104123   -0.731889
      7          6           0        1.263998    0.151537    0.471749
      8          8           0        0.671222   -1.384022   -1.238049
      9          6           0        1.082539    1.549009    1.074595
     10          6           0        1.199703   -0.944550    1.528826
     11          7           0       -3.914346    0.116093    0.253026
     12          7           0        2.686025    0.158115   -0.160003
     13          8           0        2.870492    0.940361   -1.090132
     14          8           0        3.539689   -0.575565    0.318125
     15          1           0       -3.813793   -1.915429    0.600926
     16          1           0       -1.393459   -2.131040    0.040965
     17          1           0       -1.373627    2.097035   -0.762678
     18          1           0       -3.784064    2.131852   -0.172486
     19          1           0        0.538350    0.677881   -1.467447
     20          1           0        1.936307   -0.764279    2.313238
     21          1           0        1.390483   -1.924454    1.091785
     22          1           0        0.257339   -1.492466   -2.104231
     23          1           0        1.843055    1.726472    1.840224
     24          1           0        1.172850    2.324336    0.310847
     25          1           0        0.203723   -0.942730    1.979302
     26          1           0        0.100978    1.623646    1.547288
 ---------------------------------------------------------------------

 SCF Done:  E(RB3LYP) =  -685.274254525     A.U. after    1 cycles

 The electronic state is 1-A.
 Alpha  occ. eigenvalues --  -19.18472 -19.18158 -19.17408 -14.56317 -14.34016
 Alpha  occ. eigenvalues --  -10.27072 -10.26639 -10.23465 -10.23379 -10.22767
 Alpha  occ. eigenvalues --  -10.21271 -10.20929 -10.20446 -10.19107  -1.22274
 Alpha  occ. eigenvalues --   -1.05332  -1.04946  -0.95043  -0.86067  -0.82139
 Alpha  occ. eigenvalues --   -0.77205  -0.71478  -0.71238  -0.69491  -0.64262
 Alpha  occ. eigenvalues --   -0.62214  -0.56649  -0.55228  -0.52957  -0.52942
 Alpha  occ. eigenvalues --   -0.51559  -0.50709  -0.48790  -0.47943  -0.46447
 Alpha  occ. eigenvalues --   -0.43901  -0.42937  -0.42233  -0.41288  -0.40755
 Alpha  occ. eigenvalues --   -0.40487  -0.39367  -0.37342  -0.36876  -0.35044
 Alpha  occ. eigenvalues --   -0.31248  -0.30875  -0.29877  -0.28914  -0.28420
 Alpha  occ. eigenvalues --   -0.27399  -0.26409
 Alpha virt. eigenvalues --   -0.06397  -0.03800  -0.02431   0.05839   0.07538
 Alpha virt. eigenvalues --    0.09812   0.10654   0.11342   0.12603   0.13875
 Alpha virt. eigenvalues --    0.14513   0.15271   0.15928   0.16862   0.17497

 Mulliken charges:
               1
     1  C    0.091784
     2  C   -0.123848
     3  C    0.093172
     4  C   -0.130394
     5  C    0.091644
     6  C    0.128201
     7  C    0.087044
     8  O   -0.545025
     9  C   -0.320180
    10  C   -0.311083
    11  N   -0.425792
    12  N    0.475245
    13  O   -0.378078
    14  O   -0.373882
    15  H    0.105030
    16  H    0.110308
    17  H    0.095732
    18  H    0.104711
    19  H    0.122064
    20  H    0.127222
    21  H    0.148559
    22  H    0.318850
    23  H    0.128709
    24  H    0.133672
    25  H    0.114317
    26  H    0.132018
 Sum of Mulliken charges =  -0.00000

 Dipole moment (field-independent basis, Debye):
    X=             -2.0363    Y=              0.4775    Z=              0.1098  Tot=              2.0944
 Quadrupole moment (field-independent basis, Debye-Ang):
   XX=           -107.2575   YY=            -76.0400   ZZ=            -77.2400
   XY=              2.0900   XZ=              5.7332   YZ=              2.1155

  Exact polarizability: 140.357  -3.840 114.445  -5.512  -9.778  80.715
 Approx polarizability: 204.980 -13.038 202.423 -11.544 -31.136 132.322

                      1                      2                      3
                      A                      A                      A
 Frequencies --     47.7828                58.3832                77.5706
 Red. masses --      4.3326                 8.6950                 5.4116
 Frc consts  --      0.0058                 0.0175                 0.0192
 IR Inten    --      1.9408                 0.5762                 1.4993

                      4                      5                      6
                      A                      A                      A
 Frequencies --     92.6099               185.0433               225.1078
 Red. masses --      5.4016                 4.9082                 4.4201
 Frc consts  --      0.0273                 0.0990                 0.1320
 IR Inten    --      3.5031                 4.5576                 1.2722

                      7                      8                      9
                      A                      A                      A
 Frequencies --    236.2094               247.1237               267.1428
 Red. masses --      1.2273                 3.1890                 1.2947
 Frc consts  --      0.0403                 0.1147                 0.0544
 IR Inten    --      1.3583                 4.1187                 0.5217

                     10                     11                     12
                      A                      A                      A
 Frequencies --    270.7328               286.9959               298.7612
 Red. masses --      2.3662                 1.2579                 2.4679
 Frc consts  --      0.1022                 0.0610                 0.1298
 IR Inten    --      2.1626                92.9359                24.1563

                     13                     14                     15
                      A                      A                      A
 Frequencies --    349.5094               357.9979               393.1543
 Red. masses --      3.9711                 3.1612                 2.6205
 Frc consts  --      0.2858                 0.2387                 0.2386
 IR Inten    --      5.3003                 3.9119                 0.2654

                     16                     17                     18
                      A                      A                      A
 Frequencies --    396.1275               495.8966               535.1695
 Red. masses --      3.8391                 5.3915                 4.9923
 Frc consts  --      0.3549                 0.7812                 0.8424
 IR Inten    --      1.3295                 7.6923                 6.4914

                     19                     20                     21
                      A                      A                      A
 Frequencies --    539.8025               613.1302               679.0052
 Red. masses --      4.5516                 4.0824                 4.3179
 Frc consts  --      0.7814                 0.9042                 1.1729
 IR Inten    --     17.7155                26.3785                 8.7386

                     22                     23                     24
                      A                      A                      A
 Frequencies --    684.3630               734.8476               761.5537
 Red. masses --      6.3824                 6.8293                 4.0551
 Frc consts  --      1.7612                 2.1728                 1.3857
 IR Inten    --      2.9834                 2.0764                 2.2742

                     25                     26                     27
                      A                      A                      A
 Frequencies --    790.0718               850.1684               859.5804
 Red. masses --      2.5410                 1.5805                 9.2911
 Frc consts  --      0.9345                 0.6731                 4.0447
 IR Inten    --     16.8511                16.2570                39.3341

                     28                     29                     30
                      A                      A                      A
 Frequencies --    889.6631               904.0253               959.0282
 Red. masses --      3.4062                 1.2483                 1.4713
 Frc consts  --      1.5884                 0.6011                 0.7973
 IR Inten    --      8.5976                 0.2900                 0.5988

                     31                     32                     33
                      A                      A                      A
 Frequencies --    975.9389               988.9279              1001.8335
 Red. masses --      1.7361                 1.4092                 1.4438
 Frc consts  --      0.9743                 0.8120                 0.8538
 IR Inten    --      1.8379                 0.4461                 0.0278

                     34                     35                     36
                      A                      A                      A
 Frequencies --   1011.2895              1029.1143              1090.1855
 Red. masses --      7.3551                 1.3702                 3.7257
 Frc consts  --      4.4319                 0.8550                 2.6089
 IR Inten    --      3.9511                12.6732                40.9214

                     37                     38                     39
                      A                      A                      A
 Frequencies --   1093.6152              1122.4460              1163.0452
 Red. masses --      1.8126                 1.7917                 1.6499
 Frc consts  --      1.2772                 1.3300                 1.3149
 IR Inten    --      3.2073                18.7790                13.9166

                     40                     41                     42
                      A                      A                      A
 Frequencies --   1186.0398              1221.3625              1247.6135
 Red. masses --      1.8219                 2.4649                 2.0208
 Frc consts  --      1.5100                 2.1664                 1.8532
 IR Inten    --     32.9961                 2.8274                16.2088

                     43                     44                     45
                      A                      A                      A
 Frequencies --   1252.4715              1292.4920              1312.6892
 Red. masses --      1.4885                 6.6363                 2.0091
 Frc consts  --      1.3757                 6.5318                 2.0398
 IR Inten    --     14.9874                 1.5039                42.8395

                     46                     47                     48
                      A                      A                      A
 Frequencies --   1339.1664              1369.8507              1403.0863
 Red. masses --      1.7237                 1.3677                 2.4069
 Frc consts  --      1.8213                 1.5122                 2.7918
 IR Inten    --      5.1020                10.5745                66.6107

                     49                     50                     51
                      A                      A                      A
 Frequencies --   1415.2010              1420.4266              1450.5587
 Red. masses --      1.2800                 1.4951                 1.6797
 Frc consts  --      1.5105                 1.7773                 2.0824
 IR Inten    --      4.2450                23.9479                47.9968

                     52                     53                     54
                      A                      A                      A
 Frequencies --   1455.0521              1494.3172              1498.6936
 Red. masses --      1.9608                 1.0498                 1.0509
 Frc consts  --      2.4459                 1.3811                 1.3907
 IR Inten    --     19.6747                 1.4749                 1.5308

                     55                     56                     57
                      A                      A                      A
 Frequencies --   1513.3577              1524.7994              1535.1692
 Red. masses --      1.0539                 1.0678                 2.0927
 Frc consts  --      1.4221                 1.4628                 2.9058
 IR Inten    --     11.5286                18.5865                 0.5204

                     58                     59                     60
                      A                      A                      A
 Frequencies --   1616.0334              1649.3183              1663.7042
 Red. masses --      6.8606                 5.4061                13.0337
 Frc consts  --     10.5564                 8.6644                21.2555
 IR Inten    --     19.7016                41.2565               210.1394

                     61                     62                     63
                      A                      A                      A
 Frequencies --   3047.8387              3066.0651              3077.2708
 Red. masses --      1.0842                 1.0354                 1.0373
 Frc consts  --      5.9339                 5.7348                 5.7873
 IR Inten    --      9.9687                 7.3322                 8.6220

                     64                     65                     66
                      A                      A                      A
 Frequencies --   3141.2458              3151.4003              3157.1303
 Red. masses --      1.1024                 1.1010                 1.1038
 Frc consts  --      6.4090                 6.4426                 6.4821
 IR Inten    --      8.5717                16.2707                 8.0439

                     67                     68                     69
                      A                      A                      A
 Frequencies --   3165.7500              3168.4005              3176.6203
 Red. masses --      1.0876                 1.0912                 1.1031
 Frc consts  --      6.4220                 6.4540                 6.5584
 IR Inten    --     27.5360                17.6858                 4.2899

                     70                     71                     72
                      A                      A                      A
 Frequencies --   3195.6594              3221.1319              3823.1487
 Red. masses --      1.0939                 1.0927                 1.0667
 Frc consts  --      6.5822                 6.6796                 9.1859
 IR Inten    --     11.6375                 2.9984                35.7374

 - Thermochemistry -
 -------------------
 Temperature   298.150 Kelvin.  Pressure   1.00000 Atm.
 Atom     1 has atomic number  6 and mass  12.00000

 Molecular mass:   196.08479 amu.
 Principal axes and moments of inertia in atomic units:
                           1         2         3
     Eigenvalues --  1131.362174387.622114614.30312
           X            0.99996   0.00115   0.00838
           Y           -0.00110   0.99999  -0.00523
           Z           -0.00839   0.00522   0.99995
 This molecule is an asymmetric top.
 Rotational symmetry number  1.
 Warning -- assumption of classical behavior for rotation
           may cause significant error
 Rotational temperatures (Kelvin)      0.07656     0.01974     0.01877
 Rotational constants (GHZ):           1.59519     0.41133     0.39112
 Zero-point vibrational energy     549181.7 (Joules/Mol)
                                  131.25759 (Kcal/Mol)
 Warning -- explicit consideration of  20 degrees of freedom as
           vibrations may cause significant error
 Vibrational temperatures:     68.75    84.00   111.61   133.24   266.24
          (Kelvin)            323.88   339.85   355.56   384.36   389.52
                              412.92   429.85   502.87   515.08   565.66
                              569.94   713.48   769.99   776.65   882.16
                              976.94   984.64  1057.28  1095.70  1136.74
                             1223.20  1236.74  1280.03  1300.69  1379.83
                             1404.16  1422.84  1441.41  1455.02  1480.66
                             1568.53  1573.47  1614.95  1673.36  1706.44
                             1757.27  1795.04  1802.02  1859.61  1888.66
                             1926.76  1970.91  2018.73  2036.16  2043.67
                             2087.03  2093.49  2149.99  2156.28  2177.38
                             2193.84  2208.76  2325.11  2373.00  2393.70
                             4385.15  4411.38  4427.50  4519.55  4534.16
                             4542.40  4554.80  4558.62  4570.44  4597.84
                             4634.48  5500.65

 Zero-point correction=                           0.209172 (Hartree/Particle)
 Thermal correction to Energy=                    0.222426
 Thermal correction to Enthalpy=                  0.223370
 Thermal correction to Gibbs Free Energy=         0.169293
 Sum of electronic and zero-point Energies=           -685.065082
 Sum of electronic and thermal Energies=              -685.051829
 Sum of electronic and thermal Enthalpies=            -685.050885
 Sum of electronic and thermal Free Energies=         -685.104961

                     E (Thermal)             CV                S
                      KCal/Mol        Cal/Mol-Kelvin    Cal/Mol-Kelvin
 Total                  139.574             50.235            113.814
 Electronic               0.000              0.000              0.000
 Translational            0.889              2.981             41.725
 Rotational               0.889              2.981             31.505
 Vibrational            137.797             44.273             40.584
 Vibration     1          0.595              1.978              4.907
 Vibration     2          0.596              1.974              4.511
 Vibration     3          0.599              1.964              3.951
 Vibration     4          0.602              1.954              3.604
 Vibration     5          0.631              1.860              2.277
 Vibration     6          0.650              1.803              1.918
 Vibration     7          0.655              1.785              1.831
 Vibration     8          0.661              1.768              1.751
 Vibration     9          0.672              1.733              1.615
 Vibration    10          0.674              1.727              1.592
 Vibration    11          0.684              1.698              1.492
 Vibration    12          0.692              1.676              1.424
 Vibration    13          0.727              1.576              1.168
 Vibration    14          0.733              1.559              1.131
 Vibration    15          0.760              1.485              0.988
 Vibration    16          0.763              1.478              0.977
 Vibration    17          0.851              1.259              0.668
 Vibration    18          0.890              1.172              0.576
 Vibration    19          0.895              1.162              0.566
 Vibration    20          0.972              1.004              0.428

 Optimization completed.
    -- Stationary point found.
 Normal termination of Gaussian 09 at Fri Aug 20 15:53:07 2021.
