 Gaussian 09, Revision E.01,
 Gaussian 09:  ES64L-G09RevE.01 30-Nov-2015

 -------------------------
 #P OPT Freq B3LYP/6-31G**
 -------------------------

 ------
 CIJYIE
 ------
 Symbolic Z-matrix:
 Charge =  0 Multiplicity = 1

 SCF Done:  E(RB3LYP) =  -562.218281771     A.U. after   16 cycles
 SCF Done:  E(RB3LYP) =  -562.271067727     A.U. after   14 cycles
 SCF Done:  E(RB3LYP) =  -562.279726467     A.U. after   16 cycles
 SCF Done:  E(RB3LYP) =  -562.272774790     A.U. after   16 cycles
 SCF Done:  E(RB3LYP) =  -562.280068180     A.U. after   12 cycles
 SCF Done:  E(RB3LYP) =  -562.280217608     A.U. after   14 cycles
 SCF Done:  E(RB3LYP) =  -562.280316574     A.U. after   13 cycles
 SCF Done:  E(RB3LYP) =  -562.280331794     A.U. after   12 cycles
 SCF Done:  E(RB3LYP) =  -562.280347786     A.U. after   12 cycles
 SCF Done:  E(RB3LYP) =  -562.280357890     A.U. after   11 cycles
 SCF Done:  E(RB3LYP) =  -562.280368742     A.U. after   12 cycles
 SCF Done:  E(RB3LYP) =  -562.280382149     A.U. after   11 cycles
 SCF Done:  E(RB3LYP) =  -562.280413339     A.U. after   12 cycles
 SCF Done:  E(RB3LYP) =  -562.280440894     A.U. after   12 cycles
 SCF Done:  E(RB3LYP) =  -562.280450652     A.U. after   13 cycles
 SCF Done:  E(RB3LYP) =  -562.280451390     A.U. after   10 cycles
 SCF Done:  E(RB3LYP) =  -562.280451576     A.U. after    9 cycles
 SCF Done:  E(RB3LYP) =  -562.280451625     A.U. after    8 cycles
 Optimization completed.
    -- Stationary point found.
 Normal termination of Gaussian 09 at Fri Aug 20 15:35:22 2021.

 ----------------------------------------------------------------------
 #P Geom=AllCheck Guess=TCheck SCRF=Check GenChk RB3LYP/6-31G(d,p) Freq
 ----------------------------------------------------------------------

 Structure from the checkpoint file:  "/public/home/users/caep010/.cache/gau_scr/Gau-74779.chk"
 ------
 CIJYIE
 ------
 Charge =  0 Multiplicity = 1

                         Standard orientation:
 ---------------------------------------------------------------------
 Center     Atomic      Atomic             Coordinates (Angstroms)
 Number     Number       Type             X           Y           Z
 ---------------------------------------------------------------------
      1          7           0       -1.261985    1.117943    0.000161
      2          1           0       -1.693351    2.032368    0.000026
      3          6           0        0.100032    0.888718    0.000047
      4          6           0       -1.900228   -0.095149   -0.000097
      5          6           0       -3.384396   -0.241743   -0.000128
      6          1           0       -3.833311    0.218818   -0.886670
      7          1           0       -3.626429   -1.304512    0.000763
      8          7           0       -1.026343   -1.086138   -0.000104
      9          1           0       -3.833435    0.220312    0.885592
     10          6           0        1.043719    1.941229    0.000119
     11          7           0        1.758621    2.859409    0.000210
     12          6           0        0.190274   -0.494724   -0.000042
     13          7           0        1.422289   -1.256998   -0.000039
     14          8           0        2.464360   -0.595984   -0.000694
     15          8           0        1.340895   -2.478578    0.000607
 ---------------------------------------------------------------------

 SCF Done:  E(RB3LYP) =  -562.280451625     A.U. after    1 cycles

 The electronic state is 1-A.
 Alpha  occ. eigenvalues --  -19.18873 -19.18666 -14.58246 -14.45069 -14.36875
 Alpha  occ. eigenvalues --  -14.36471 -10.30681 -10.30327 -10.29511 -10.25946
 Alpha  occ. eigenvalues --  -10.23338  -1.23341  -1.07957  -1.06062  -0.94086
 Alpha  occ. eigenvalues --   -0.92555  -0.84989  -0.77737  -0.74964  -0.66944
 Alpha  occ. eigenvalues --   -0.63589  -0.59472  -0.54834  -0.54611  -0.54122
 Alpha  occ. eigenvalues --   -0.50321  -0.50114  -0.46210  -0.44727  -0.43763
 Alpha  occ. eigenvalues --   -0.38558  -0.38018  -0.36672  -0.33957  -0.32592
 Alpha  occ. eigenvalues --   -0.31391  -0.31235  -0.29738  -0.27617
 Alpha virt. eigenvalues --   -0.10202  -0.03926  -0.00747   0.02017   0.04123
 Alpha virt. eigenvalues --    0.08890   0.11513   0.11885   0.14217   0.14599
 Alpha virt. eigenvalues --    0.16781   0.19403   0.20347   0.25196   0.27439

 Mulliken charges:
               1
     1  N   -0.567478
     2  H    0.289986
     3  C    0.380012
     4  C    0.486190
     5  C   -0.391350
     6  H    0.143647
     7  H    0.171530
     8  N   -0.469567
     9  H    0.143594
    10  C    0.291594
    11  N   -0.458642
    12  C    0.396296
    13  N    0.349425
    14  O   -0.397552
    15  O   -0.367684
 Sum of Mulliken charges =  -0.00000

 Dipole moment (field-independent basis, Debye):
    X=             -7.4359    Y=              2.4581    Z=             -0.0003  Tot=              7.8317
 Quadrupole moment (field-independent basis, Debye-Ang):
   XX=            -59.0126   YY=            -72.3747   ZZ=            -59.3293
   XY=             -7.9315   XZ=              0.0017   YZ=              0.0007

  Exact polarizability: 107.852  12.214 104.432  -0.000  -0.002  37.658
 Approx polarizability: 166.470  39.296 207.623  -0.008  -0.014  56.926

                      1                      2                      3
                      A                      A                      A
 Frequencies --     41.0947                55.3597               130.5364
 Red. masses --      1.0560                11.0880                12.7166
 Frc consts  --      0.0011                 0.0200                 0.1277
 IR Inten    --      0.0981                 0.0488                 3.2208

                      4                      5                      6
                      A                      A                      A
 Frequencies --    134.5670               178.0974               193.0070
 Red. masses --      4.9365                 7.2184                 5.1923
 Frc consts  --      0.0527                 0.1349                 0.1140
 IR Inten    --      3.6038                 4.9462                 0.6937

                      7                      8                      9
                      A                      A                      A
 Frequencies --    300.3161               344.6499               415.5813
 Red. masses --      5.2587                 4.3560                 8.5864
 Frc consts  --      0.2794                 0.3049                 0.8737
 IR Inten    --      6.7282                 7.6321                 0.5975

                     10                     11                     12
                      A                      A                      A
 Frequencies --    457.4796               494.8268               559.4513
 Red. masses --     11.2908                10.5156                 6.7833
 Frc consts  --      1.3922                 1.5170                 1.2509
 IR Inten    --      0.7394                 0.4545                 2.1646

                     13                     14                     15
                      A                      A                      A
 Frequencies --    591.0020               640.9861               663.1628
 Red. masses --      1.2965                 6.4647                11.8973
 Frc consts  --      0.2668                 1.5649                 3.0828
 IR Inten    --     86.4491                 3.4278                10.1763

                     16                     17                     18
                      A                      A                      A
 Frequencies --    690.9535               745.2805               772.6209
 Red. masses --      3.3373                 6.8344                13.2565
 Frc consts  --      0.9387                 2.2366                 4.6624
 IR Inten    --      4.8361                10.0024                 4.3029

                     19                     20                     21
                      A                      A                      A
 Frequencies --    857.4173               998.9557              1039.0215
 Red. masses --     11.3539                 1.6790                 4.4964
 Frc consts  --      4.9179                 0.9872                 2.8600
 IR Inten    --     49.8563                 1.2733                 6.4634

                     22                     23                     24
                      A                      A                      A
 Frequencies --   1066.6542              1166.6478              1223.2163
 Red. masses --      1.4996                 9.6147                 1.6950
 Frc consts  --      1.0053                 7.7102                 1.4943
 IR Inten    --      2.6774                12.2055                11.2472

                     25                     26                     27
                      A                      A                      A
 Frequencies --   1343.2122              1388.1304              1398.8169
 Red. masses --      7.4967                 6.6116                 5.8211
 Frc consts  --      7.9691                 7.5062                 6.7108
 IR Inten    --     42.1864                30.4341               134.7014

                     28                     29                     30
                      A                      A                      A
 Frequencies --   1426.4663              1436.2385              1494.5144
 Red. masses --      1.5530                 2.7618                 1.0418
 Frc consts  --      1.8619                 3.3566                 1.3710
 IR Inten    --     33.5756                70.3559                10.1463

                     31                     32                     33
                      A                      A                      A
 Frequencies --   1503.7832              1558.7623              1616.8150
 Red. masses --      1.2510                 8.8410                 5.2965
 Frc consts  --      1.6668                12.6565                 8.1576
 IR Inten    --      4.1800               108.9594                21.9172

                     34                     35                     36
                      A                      A                      A
 Frequencies --   1654.5452              2354.8769              3053.1958
 Red. masses --     13.1745                12.6556                 1.0393
 Frc consts  --     21.2491                41.3496                 5.7085
 IR Inten    --    200.6101                22.1350                12.0108

                     37                     38                     39
                      A                      A                      A
 Frequencies --   3111.1010              3173.0870              3638.5108
 Red. masses --      1.1019                 1.0994                 1.0819
 Frc consts  --      6.2836                 6.5216                 8.4385
 IR Inten    --      7.6966                 0.5194                83.5723

 - Thermochemistry -
 -------------------
 Temperature   298.150 Kelvin.  Pressure   1.00000 Atm.
 Atom     1 has atomic number  7 and mass  14.00307

 Molecular mass:   152.03343 amu.
 Principal axes and moments of inertia in atomic units:
                           1         2         3
     Eigenvalues --  1216.212721697.146872902.05530
           X            0.99999  -0.00387   0.00000
           Y            0.00387   0.99999   0.00000
           Z           -0.00000  -0.00000   1.00000
 This molecule is an asymmetric top.
 Rotational symmetry number  1.
 Warning -- assumption of classical behavior for rotation
           may cause significant error
 Rotational temperatures (Kelvin)      0.07122     0.05103     0.02985
 Rotational constants (GHZ):           1.48390     1.06340     0.62188
 Zero-point vibrational energy     262657.7 (Joules/Mol)
                                   62.77670 (Kcal/Mol)
 Warning -- explicit consideration of  13 degrees of freedom as
           vibrations may cause significant error
 Vibrational temperatures:     59.13    79.65   187.81   193.61   256.24
          (Kelvin)            277.69   432.09   495.87   597.93   658.21
                              711.94   804.92   850.32   922.23   954.14
                              994.13  1072.29  1111.63  1233.63  1437.27
                             1494.92  1534.68  1678.54  1759.93  1932.58
                             1997.21  2012.58  2052.36  2066.42  2150.27
                             2163.61  2242.71  2326.23  2380.52  3388.14
                             4392.86  4476.17  4565.36  5235.00

 Zero-point correction=                           0.100041 (Hartree/Particle)
 Thermal correction to Energy=                    0.109801
 Thermal correction to Enthalpy=                  0.110745
 Thermal correction to Gibbs Free Energy=         0.063494
 Sum of electronic and zero-point Energies=           -562.180411
 Sum of electronic and thermal Energies=              -562.170651
 Sum of electronic and thermal Enthalpies=            -562.169707
 Sum of electronic and thermal Free Energies=         -562.216958

                     E (Thermal)             CV                S
                      KCal/Mol        Cal/Mol-Kelvin    Cal/Mol-Kelvin
 Total                   68.901             33.931             99.448
 Electronic               0.000              0.000              0.000
 Translational            0.889              2.981             40.967
 Rotational               0.889              2.981             30.172
 Vibrational             67.123             27.970             28.309
 Vibration     1          0.594              1.981              5.206
 Vibration     2          0.596              1.975              4.616
 Vibration     3          0.612              1.923              2.938
 Vibration     4          0.613              1.919              2.880
 Vibration     5          0.629              1.869              2.348
 Vibration     6          0.635              1.850              2.199
 Vibration     7          0.693              1.673              1.415
 Vibration     8          0.723              1.586              1.191
 Vibration     9          0.779              1.436              0.907
 Vibration    10          0.816              1.344              0.773
 Vibration    11          0.850              1.261              0.671
 Vibration    12          0.915              1.119              0.525
 Vibration    13          0.948              1.051              0.465

 Optimization completed.
    -- Stationary point found.
 Normal termination of Gaussian 09 at Fri Aug 20 15:35:43 2021.
