 Gaussian 09, Revision E.01,
 Gaussian 09:  ES64L-G09RevE.01 30-Nov-2015

 -------------------------
 #P OPT Freq B3LYP/6-31G**
 -------------------------

 ------
 KOVHAE
 ------
 Symbolic Z-matrix:
 Charge =  0 Multiplicity = 1

 SCF Done:  E(RB3LYP) =  -675.610769975     A.U. after   16 cycles
 SCF Done:  E(RB3LYP) =  -675.701971984     A.U. after   14 cycles
 SCF Done:  E(RB3LYP) =  -675.734110442     A.U. after   15 cycles
 SCF Done:  E(RB3LYP) =  -675.729797991     A.U. after   15 cycles
 SCF Done:  E(RB3LYP) =  -675.738486683     A.U. after   12 cycles
 SCF Done:  E(RB3LYP) =  -675.737215374     A.U. after   15 cycles
 SCF Done:  E(RB3LYP) =  -675.739294427     A.U. after   11 cycles
 SCF Done:  E(RB3LYP) =  -675.740059435     A.U. after   15 cycles
 SCF Done:  E(RB3LYP) =  -675.740374484     A.U. after   14 cycles
 SCF Done:  E(RB3LYP) =  -675.740504352     A.U. after   14 cycles
 SCF Done:  E(RB3LYP) =  -675.741060731     A.U. after   15 cycles
 SCF Done:  E(RB3LYP) =  -675.741193630     A.U. after   14 cycles
 SCF Done:  E(RB3LYP) =  -675.741296489     A.U. after   13 cycles
 SCF Done:  E(RB3LYP) =  -675.741324246     A.U. after   12 cycles
 SCF Done:  E(RB3LYP) =  -675.741336132     A.U. after   11 cycles
 SCF Done:  E(RB3LYP) =  -675.741338452     A.U. after   10 cycles
 SCF Done:  E(RB3LYP) =  -675.741340058     A.U. after   10 cycles
 SCF Done:  E(RB3LYP) =  -675.741340359     A.U. after    9 cycles
 SCF Done:  E(RB3LYP) =  -675.741340560     A.U. after    8 cycles
 Optimization completed.
    -- Stationary point found.
 Normal termination of Gaussian 09 at Fri Aug 20 15:44:21 2021.

 ----------------------------------------------------------------------
 #P Geom=AllCheck Guess=TCheck SCRF=Check GenChk RB3LYP/6-31G(d,p) Freq
 ----------------------------------------------------------------------

 Structure from the checkpoint file:  "/public/home/users/caep010/.cache/gau_scr/Gau-95766.chk"
 ------
 KOVHAE
 ------
 Charge =  0 Multiplicity = 1

                         Standard orientation:
 ---------------------------------------------------------------------
 Center     Atomic      Atomic             Coordinates (Angstroms)
 Number     Number       Type             X           Y           Z
 ---------------------------------------------------------------------
      1          6           0        0.667295    0.000005   -0.000074
      2          7           0        1.395169   -1.229299    0.072459
      3          6           0       -0.749900   -0.000022   -0.000146
      4          7           0       -1.528879    1.100589   -0.045821
      5          6           0       -2.933795    0.752067    0.170960
      6          1           0       -3.222419    0.927953    1.215336
      7          6           0       -2.933877   -0.752037   -0.170791
      8          7           0       -1.528886   -1.100547    0.045358
      9          8           0        0.767055   -2.284052   -0.190295
     10          8           0        2.569523   -1.229478    0.416901
     11          7           0        1.395132    1.229264   -0.072431
     12          8           0        0.767098    2.283999    0.190782
     13          8           0        2.569426    1.229529   -0.417100
     14          1           0       -1.091050    1.990346    0.167871
     15          1           0       -3.591759    1.333892   -0.477882
     16          1           0       -3.222928   -0.927867   -1.215061
     17          1           0       -3.591567   -1.333922    0.478283
     18          1           0       -1.091198   -1.990514   -0.167495
 ---------------------------------------------------------------------

 SCF Done:  E(RB3LYP) =  -675.741340560     A.U. after    1 cycles

 The electronic state is 1-A.
 Alpha  occ. eigenvalues --  -19.17456 -19.17455 -19.17218 -19.17217 -14.57477
 Alpha  occ. eigenvalues --  -14.57476 -14.39902 -14.39899 -10.33175 -10.28217
 Alpha  occ. eigenvalues --  -10.27264 -10.27244  -1.22650  -1.21142  -1.05731
 Alpha  occ. eigenvalues --   -1.03959  -1.03823  -0.92592  -0.87521  -0.80254
 Alpha  occ. eigenvalues --   -0.72917  -0.67928  -0.67211  -0.64161  -0.56223
 Alpha  occ. eigenvalues --   -0.55430  -0.54769  -0.53026  -0.51907  -0.51722
 Alpha  occ. eigenvalues --   -0.51059  -0.49304  -0.48178  -0.47580  -0.43971
 Alpha  occ. eigenvalues --   -0.42827  -0.41366  -0.32643  -0.30822  -0.30666
 Alpha  occ. eigenvalues --   -0.29671  -0.29474  -0.28273  -0.27356  -0.25680
 Alpha virt. eigenvalues --   -0.07659  -0.06261   0.04872   0.05802   0.08661
 Alpha virt. eigenvalues --    0.09757   0.10421   0.11300   0.12683   0.15168
 Alpha virt. eigenvalues --    0.15206   0.17045   0.17945   0.23023   0.24215

 Mulliken charges:
               1
     1  C    0.400788
     2  N    0.347920
     3  C    0.647686
     4  N   -0.579980
     5  C   -0.051165
     6  H    0.140015
     7  C   -0.051090
     8  N   -0.580000
     9  O   -0.468212
    10  O   -0.366562
    11  N    0.347819
    12  O   -0.468198
    13  O   -0.366537
    14  H    0.313798
    15  H    0.139953
    16  H    0.140028
    17  H    0.139951
    18  H    0.313786
 Sum of Mulliken charges =  -0.00000

 Dipole moment (field-independent basis, Debye):
    X=             -8.9844    Y=             -0.0011    Z=              0.0010  Tot=              8.9844
 Quadrupole moment (field-independent basis, Debye-Ang):
   XX=            -64.8864   YY=            -74.4880   ZZ=            -66.0098
   XY=              0.0017   XZ=             -0.0021   YZ=              1.2082

  Exact polarizability: 127.400   0.002  93.458  -0.001   2.027  45.349
 Approx polarizability: 212.740   0.007 167.131  -0.004   6.825  72.189

                      1                      2                      3
                      A                      A                      A
 Frequencies --     60.9623                78.7530               108.7016
 Red. masses --     11.3767                 7.5302                 4.8188
 Frc consts  --      0.0249                 0.0275                 0.0335
 IR Inten    --      0.8384                 0.0002                 0.0021

                      4                      5                      6
                      A                      A                      A
 Frequencies --    131.3652               186.0423               230.8570
 Red. masses --      4.8424                 2.3464                 5.4440
 Frc consts  --      0.0492                 0.0478                 0.1709
 IR Inten    --      1.4854                 4.8061                 0.2735

                      7                      8                      9
                      A                      A                      A
 Frequencies --    264.0392               290.9323               360.2644
 Red. masses --      8.0838                12.2508                 7.7334
 Frc consts  --      0.3320                 0.6109                 0.5914
 IR Inten    --     13.2562                 8.3831                 2.5871

                     10                     11                     12
                      A                      A                      A
 Frequencies --    417.3453               445.8745               463.0658
 Red. masses --      8.1935                12.6733                15.4816
 Frc consts  --      0.8408                 1.4844                 1.9559
 IR Inten    --     15.3064                 1.2713                 0.9691

                     13                     14                     15
                      A                      A                      A
 Frequencies --    636.6567               650.1550               685.5393
 Red. masses --      1.1566                 1.1964                 6.9745
 Frc consts  --      0.2762                 0.2980                 1.9312
 IR Inten    --      6.1806               199.7665                 2.1191

                     16                     17                     18
                      A                      A                      A
 Frequencies --    720.0426               734.9262               754.7202
 Red. masses --      2.0936                12.6758                13.1102
 Frc consts  --      0.6395                 4.0338                 4.3998
 IR Inten    --     39.8486                 0.0006                29.5522

                     19                     20                     21
                      A                      A                      A
 Frequencies --    789.3410               818.3256               906.9689
 Red. masses --     11.0055                 8.9786                 1.6353
 Frc consts  --      4.0401                 3.5425                 0.7926
 IR Inten    --     39.0327                15.7637                 1.3928

                     22                     23                     24
                      A                      A                      A
 Frequencies --    923.0426               963.3270              1027.5066
 Red. masses --      5.5501                 3.2051                 2.1985
 Frc consts  --      2.7861                 1.7524                 1.3675
 IR Inten    --     17.0112                11.9026                 8.1500

                     25                     26                     27
                      A                      A                      A
 Frequencies --   1056.2602              1129.7309              1132.2474
 Red. masses --      2.9088                 1.8070                 1.9902
 Frc consts  --      1.9121                 1.3588                 1.5033
 IR Inten    --      3.7979                 0.0293                19.6971

                     28                     29                     30
                      A                      A                      A
 Frequencies --   1147.4584              1220.0275              1241.7156
 Red. masses --      6.3942                 1.1263                 1.3403
 Frc consts  --      4.9604                 0.9878                 1.2176
 IR Inten    --     30.0695                10.0416                 0.0029

                     31                     32                     33
                      A                      A                      A
 Frequencies --   1265.4476              1318.7931              1326.2700
 Red. masses --      3.8501                 2.5595                 1.6433
 Frc consts  --      3.6325                 2.6228                 1.7030
 IR Inten    --    388.0709                 8.9655                87.0496

                     34                     35                     36
                      A                      A                      A
 Frequencies --   1363.8277              1391.6379              1417.5388
 Red. masses --      2.4007                 2.4177                 2.5388
 Frc consts  --      2.6309                 2.7587                 3.0057
 IR Inten    --    209.1002               159.6637                19.1929

                     37                     38                     39
                      A                      A                      A
 Frequencies --   1514.8077              1540.7024              1553.1116
 Red. masses --      1.4465                 1.1085                 2.6026
 Frc consts  --      1.9557                 1.5504                 3.6988
 IR Inten    --     21.1545                26.7868                32.7849

                     40                     41                     42
                      A                      A                      A
 Frequencies --   1599.3419              1641.2168              1645.6183
 Red. masses --      6.9558                 7.9832                 4.7938
 Frc consts  --     10.4829                12.6695                 7.6487
 IR Inten    --    135.1649               108.2276              1005.9894

                     43                     44                     45
                      A                      A                      A
 Frequencies --   3036.6594              3042.3290              3119.2366
 Red. masses --      1.0728                 1.0661                 1.0953
 Frc consts  --      5.8288                 5.8141                 6.2787
 IR Inten    --     42.5873                42.1367                21.1609

                     46                     47                     48
                      A                      A                      A
 Frequencies --   3127.2378              3564.2052              3572.2121
 Red. masses --      1.1011                 1.0768                 1.0818
 Frc consts  --      6.3447                 8.0596                 8.1335
 IR Inten    --     19.6691               218.1958                96.9805

 - Thermochemistry -
 -------------------
 Temperature   298.150 Kelvin.  Pressure   1.00000 Atm.
 Atom     1 has atomic number  6 and mass  12.00000

 Molecular mass:   174.03890 amu.
 Principal axes and moments of inertia in atomic units:
                           1         2         3
     Eigenvalues --  1176.633842241.609743338.85701
           X            1.00000   0.00000  -0.00000
           Y           -0.00000   0.99999   0.00532
           Z            0.00000  -0.00532   0.99999
 This molecule is an asymmetric top.
 Rotational symmetry number  1.
 Warning -- assumption of classical behavior for rotation
           may cause significant error
 Rotational temperatures (Kelvin)      0.07361     0.03864     0.02594
 Rotational constants (GHZ):           1.53382     0.80511     0.54053
 Zero-point vibrational energy     338641.2 (Joules/Mol)
                                   80.93719 (Kcal/Mol)
 Warning -- explicit consideration of  12 degrees of freedom as
           vibrations may cause significant error
 Vibrational temperatures:     87.71   113.31   156.40   189.00   267.67
          (Kelvin)            332.15   379.89   418.59   518.34   600.47
                              641.51   666.25   916.01   935.43   986.34
                             1035.98  1057.39  1085.87  1135.68  1177.39
                             1304.92  1328.05  1386.01  1478.35  1519.72
                             1625.43  1629.05  1650.93  1755.35  1786.55
                             1820.69  1897.45  1908.20  1962.24  2002.25
                             2039.52  2179.47  2216.72  2234.58  2301.09
                             2361.34  2367.67  4369.07  4377.23  4487.88
                             4499.39  5128.09  5139.61

 Zero-point correction=                           0.128982 (Hartree/Particle)
 Thermal correction to Energy=                    0.139181
 Thermal correction to Enthalpy=                  0.140125
 Thermal correction to Gibbs Free Energy=         0.092343
 Sum of electronic and zero-point Energies=           -675.612359
 Sum of electronic and thermal Energies=              -675.602160
 Sum of electronic and thermal Enthalpies=            -675.601216
 Sum of electronic and thermal Free Energies=         -675.648998

                     E (Thermal)             CV                S
                      KCal/Mol        Cal/Mol-Kelvin    Cal/Mol-Kelvin
 Total                   87.337             37.125            100.565
 Electronic               0.000              0.000              0.000
 Translational            0.889              2.981             41.370
 Rotational               0.889              2.981             30.555
 Vibrational             85.560             31.163             28.640
 Vibration     1          0.597              1.973              4.426
 Vibration     2          0.600              1.963              3.922
 Vibration     3          0.606              1.942              3.292
 Vibration     4          0.612              1.922              2.926
 Vibration     5          0.632              1.859              2.267
 Vibration     6          0.653              1.794              1.872
 Vibration     7          0.671              1.739              1.635
 Vibration     8          0.687              1.691              1.469
 Vibration     9          0.735              1.554              1.121
 Vibration    10          0.780              1.433              0.901
 Vibration    11          0.805              1.370              0.808
 Vibration    12          0.821              1.332              0.757

 Optimization completed.
    -- Stationary point found.
 Normal termination of Gaussian 09 at Fri Aug 20 15:44:48 2021.
