 Gaussian 09, Revision E.01,
 Gaussian 09:  ES64L-G09RevE.01 30-Nov-2015

 --------------------------------
 #P OPT=calcfc Freq B3LYP/6-31G**
 --------------------------------

 ------
 FUXNAN
 ------
 Symbolic Z-matrix:
 Charge =  0 Multiplicity = 1

 SCF Done:  E(RB3LYP) =  -531.303255763     A.U. after   15 cycles
 SCF Done:  E(RB3LYP) =  -531.390979319     A.U. after   14 cycles
 SCF Done:  E(RB3LYP) =  -531.429797310     A.U. after   15 cycles
 SCF Done:  E(RB3LYP) =  -531.431280972     A.U. after   14 cycles
 SCF Done:  E(RB3LYP) =  -531.431342018     A.U. after   12 cycles
 SCF Done:  E(RB3LYP) =  -531.431350049     A.U. after   10 cycles
 SCF Done:  E(RB3LYP) =  -531.431351791     A.U. after    8 cycles
 SCF Done:  E(RB3LYP) =  -531.431352166     A.U. after    9 cycles
 SCF Done:  E(RB3LYP) =  -531.431352463     A.U. after    9 cycles
 SCF Done:  E(RB3LYP) =  -531.431352890     A.U. after   10 cycles
 SCF Done:  E(RB3LYP) =  -531.430871518     A.U. after   14 cycles
 SCF Done:  E(RB3LYP) =  -531.431357859     A.U. after   11 cycles
 SCF Done:  E(RB3LYP) =  -531.430589582     A.U. after   14 cycles
 SCF Done:  E(RB3LYP) =  -531.431359266     A.U. after    8 cycles
 SCF Done:  E(RB3LYP) =  -531.431358741     A.U. after   11 cycles
 SCF Done:  E(RB3LYP) =  -531.431345731     A.U. after   12 cycles
 SCF Done:  E(RB3LYP) =  -531.431363386     A.U. after   12 cycles
 SCF Done:  E(RB3LYP) =  -531.431363962     A.U. after    9 cycles
 SCF Done:  E(RB3LYP) =  -531.431364180     A.U. after    8 cycles
 Optimization completed.
    -- Stationary point found.
 Normal termination of Gaussian 09 at Sat Aug 21 02:25:04 2021.

 ----------------------------------------------------------------------
 #P Geom=AllCheck Guess=TCheck SCRF=Check GenChk RB3LYP/6-31G(d,p) Freq
 ----------------------------------------------------------------------

 Structure from the checkpoint file:  "/public/home/users/caep010/.cache/gau_scr/Gau-3616.chk"
 ------
 FUXNAN
 ------
 Charge =  0 Multiplicity = 1

                         Standard orientation:
 ---------------------------------------------------------------------
 Center     Atomic      Atomic             Coordinates (Angstroms)
 Number     Number       Type             X           Y           Z
 ---------------------------------------------------------------------
      1          6           0        1.160619    0.007124   -0.003288
      2          6           0        0.349435   -1.128046   -0.016884
      3          7           0        2.606360   -0.142708    0.008100
      4          8           0        3.294123    0.883301    0.022478
      5          6           0       -1.030212   -0.990150   -0.025238
      6          6           0       -1.622481    0.294125   -0.023926
      7          6           0       -0.774752    1.429101   -0.008501
      8          8           0        3.070730   -1.287201    0.002701
      9          7           0       -2.981145    0.462562   -0.051341
     10          6           0       -3.939984   -0.617658    0.051982
     11          6           0        0.599512    1.289006    0.001735
     12          1           0       -3.325112    1.401349    0.070189
     13          1           0       -4.946384   -0.196913    0.018766
     14          1           0       -3.842216   -1.318074   -0.785978
     15          1           0       -3.834608   -1.185065    0.987134
     16          1           0        0.813762   -2.106285   -0.018035
     17          1           0       -1.651968   -1.877441   -0.032981
     18          1           0       -1.215797    2.422328   -0.007180
     19          1           0        1.254166    2.151316    0.014059
 ---------------------------------------------------------------------

 SCF Done:  E(RB3LYP) =  -531.431364180     A.U. after    1 cycles

 The electronic state is 1-A.
 Alpha  occ. eigenvalues --  -19.15909 -19.15900 -14.55189 -14.37636 -10.25658
 Alpha  occ. eigenvalues --  -10.24133 -10.23129 -10.21107 -10.21079 -10.20500
 Alpha  occ. eigenvalues --  -10.20318  -1.20132  -1.02760  -0.96230  -0.87203
 Alpha  occ. eigenvalues --   -0.79245  -0.76701  -0.72631  -0.67101  -0.62861
 Alpha  occ. eigenvalues --   -0.58945  -0.55647  -0.53434  -0.51133  -0.50904
 Alpha  occ. eigenvalues --   -0.48619  -0.46451  -0.46258  -0.44461  -0.43980
 Alpha  occ. eigenvalues --   -0.42145  -0.40657  -0.38916  -0.35964  -0.31963
 Alpha  occ. eigenvalues --   -0.29008  -0.28926  -0.27049  -0.26972  -0.21934
 Alpha virt. eigenvalues --   -0.06805  -0.01657   0.02539   0.05883   0.08608
 Alpha virt. eigenvalues --    0.09946   0.13832   0.14386   0.15065   0.16112
 Alpha virt. eigenvalues --    0.16433   0.18667   0.20131   0.20916   0.24655

 Mulliken charges:
               1
     1  C    0.240678
     2  C   -0.100038
     3  N    0.372873
     4  O   -0.415816
     5  C   -0.139002
     6  C    0.363779
     7  C   -0.142530
     8  O   -0.416352
     9  N   -0.588463
    10  C   -0.168511
    11  C   -0.092433
    12  H    0.262505
    13  H    0.121241
    14  H    0.131733
    15  H    0.125442
    16  H    0.133077
    17  H    0.093006
    18  H    0.085877
    19  H    0.132932
 Sum of Mulliken charges =  -0.00000

 Dipole moment (field-independent basis, Debye):
    X=             -7.7824    Y=              0.8234    Z=              0.2192  Tot=              7.8289
 Quadrupole moment (field-independent basis, Debye-Ang):
   XX=            -65.6003   YY=            -58.6740   ZZ=            -64.7598
   XY=             -0.2784   XZ=             -0.9231   YZ=              0.3231

  Exact polarizability: 166.169  -0.286  98.653   0.081   0.313  39.435
 Approx polarizability: 265.259  -4.382 188.459   1.590   0.723  59.549

                      1                      2                      3
                      A                      A                      A
 Frequencies --     57.9935                77.8816               111.2127
 Red. masses --      3.8722                 5.9713                 3.1471
 Frc consts  --      0.0077                 0.0213                 0.0229
 IR Inten    --      6.7424                 2.1315                15.6543

                      4                      5                      6
                      A                      A                      A
 Frequencies --    170.0337               179.4981               268.1646
 Red. masses --      1.9098                 2.0818                 3.4099
 Frc consts  --      0.0325                 0.0395                 0.1445
 IR Inten    --      0.7915                 0.5089                13.5168

                      7                      8                      9
                      A                      A                      A
 Frequencies --    298.5635               309.7504               349.9731
 Red. masses --      5.3884                 1.2217                 6.9552
 Frc consts  --      0.2830                 0.0691                 0.5019
 IR Inten    --      1.4514                80.1399                 1.0327

                     10                     11                     12
                      A                      A                      A
 Frequencies --    430.2344               496.9187               507.0564
 Red. masses --      3.2231                 4.5109                 2.7705
 Frc consts  --      0.3515                 0.6563                 0.4197
 IR Inten    --      0.4506                 1.2780                 6.1932

                     13                     14                     15
                      A                      A                      A
 Frequencies --    546.2912               638.1999               653.7695
 Red. masses --      5.7395                 6.2260                 5.9118
 Frc consts  --      1.0092                 1.4941                 1.4887
 IR Inten    --      4.0039                 5.2241                 9.4922

                     16                     17                     18
                      A                      A                      A
 Frequencies --    703.6173               757.8015               806.0464
 Red. masses --      3.4999                 7.0634                 4.8917
 Frc consts  --      1.0209                 2.3899                 1.8725
 IR Inten    --      7.9003                25.2021                 2.4148

                     19                     20                     21
                      A                      A                      A
 Frequencies --    817.0903               844.6658               870.0612
 Red. masses --      1.2599                 1.8515                 8.8575
 Frc consts  --      0.4956                 0.7783                 3.9506
 IR Inten    --      0.6939                38.7703                21.0782

                     22                     23                     24
                      A                      A                      A
 Frequencies --    972.1242               982.2574              1018.2166
 Red. masses --      1.3030                 1.3021                 2.8333
 Frc consts  --      0.7255                 0.7402                 1.7307
 IR Inten    --      0.0559                 1.3210                 2.1575

                     25                     26                     27
                      A                      A                      A
 Frequencies --   1089.6743              1132.3774              1136.2529
 Red. masses --      2.5627                 1.3313                 2.2912
 Frc consts  --      1.7928                 1.0058                 1.7429
 IR Inten    --     11.3299                 8.9329               134.3216

                     28                     29                     30
                      A                      A                      A
 Frequencies --   1155.4682              1190.4998              1215.7538
 Red. masses --      1.2783                 1.6373                 1.4042
 Frc consts  --      1.0056                 1.3672                 1.2229
 IR Inten    --      2.5817                 8.3574                22.7231

                     31                     32                     33
                      A                      A                      A
 Frequencies --   1313.6921              1340.8852              1381.0015
 Red. masses --      1.6296                 1.7794                 8.6774
 Frc consts  --      1.6570                 1.8850                 9.7505
 IR Inten    --     36.3655                96.7159               648.6469

                     34                     35                     36
                      A                      A                      A
 Frequencies --   1396.4365              1457.7934              1482.8912
 Red. masses --      5.6815                 2.3484                 1.3098
 Frc consts  --      6.5277                 2.9404                 1.6969
 IR Inten    --     98.4828                 7.1120                 1.9935

                     37                     38                     39
                      A                      A                      A
 Frequencies --   1495.8345              1521.2048              1536.6758
 Red. masses --      1.0454                 1.7521                 1.1769
 Frc consts  --      1.3781                 2.3889                 1.6374
 IR Inten    --      7.6958                 2.1655                12.4527

                     40                     41                     42
                      A                      A                      A
 Frequencies --   1571.0304              1602.9317              1653.5410
 Red. masses --      3.0066                 6.0166                 7.7935
 Frc consts  --      4.3722                 9.1082                12.5549
 IR Inten    --    158.6844               100.0441               106.1732

                     43                     44                     45
                      A                      A                      A
 Frequencies --   1665.1015              3014.5888              3070.8836
 Red. masses --      5.8929                 1.0423                 1.0997
 Frc consts  --      9.6263                 5.5808                 6.1100
 IR Inten    --    324.6044                71.8379                33.8148

                     46                     47                     48
                      A                      A                      A
 Frequencies --   3143.5087              3181.5395              3219.3348
 Red. masses --      1.0984                 1.0901                 1.0886
 Frc consts  --      6.3951                 6.5010                 6.6476
 IR Inten    --     16.5136                13.1964                 7.8496

                     49                     50                     51
                      A                      A                      A
 Frequencies --   3243.0050              3243.7126              3662.0750
 Red. masses --      1.0926                 1.0935                 1.0773
 Frc consts  --      6.7703                 6.7789                 8.5121
 IR Inten    --      0.6535                 2.0507                54.0345

 - Thermochemistry -
 -------------------
 Temperature   298.150 Kelvin.  Pressure   1.00000 Atm.
 Atom     1 has atomic number  6 and mass  12.00000

 Molecular mass:   152.05858 amu.
 Principal axes and moments of inertia in atomic units:
                           1         2         3
     Eigenvalues --   517.025153127.082843631.91354
           X            0.99995   0.00970  -0.00119
           Y           -0.00969   0.99995   0.00045
           Z            0.00120  -0.00044   1.00000
 This molecule is an asymmetric top.
 Rotational symmetry number  1.
 Warning -- assumption of classical behavior for rotation
           may cause significant error
 Rotational temperatures (Kelvin)      0.16752     0.02770     0.02385
 Rotational constants (GHZ):           3.49063     0.57713     0.49691
 Zero-point vibrational energy     388697.3 (Joules/Mol)
                                   92.90089 (Kcal/Mol)
 Warning -- explicit consideration of  13 degrees of freedom as
           vibrations may cause significant error
 Vibrational temperatures:     83.44   112.05   160.01   244.64   258.26
          (Kelvin)            385.83   429.57   445.66   503.53   619.01
                              714.95   729.54   785.99   918.23   940.63
                             1012.35  1090.31  1159.72  1175.61  1215.28
                             1251.82  1398.67  1413.25  1464.98  1567.80
                             1629.24  1634.81  1662.46  1712.86  1749.20
                             1890.11  1929.23  1986.95  2009.16  2097.44
                             2133.55  2152.17  2188.67  2210.93  2260.36
                             2306.26  2379.07  2395.71  4337.32  4418.31
                             4522.80  4577.52  4631.90  4665.96  4666.97
                             5268.90

 Zero-point correction=                           0.148047 (Hartree/Particle)
 Thermal correction to Energy=                    0.158026
 Thermal correction to Enthalpy=                  0.158970
 Thermal correction to Gibbs Free Energy=         0.112083
 Sum of electronic and zero-point Energies=           -531.283317
 Sum of electronic and thermal Energies=              -531.273339
 Sum of electronic and thermal Enthalpies=            -531.272394
 Sum of electronic and thermal Free Energies=         -531.319282

                     E (Thermal)             CV                S
                      KCal/Mol        Cal/Mol-Kelvin    Cal/Mol-Kelvin
 Total                   99.163             36.735             98.683
 Electronic               0.000              0.000              0.000
 Translational            0.889              2.981             40.967
 Rotational               0.889              2.981             30.152
 Vibrational             97.385             30.773             27.563
 Vibration     1          0.596              1.974              4.524
 Vibration     2          0.599              1.964              3.944
 Vibration     3          0.607              1.940              3.248
 Vibration     4          0.625              1.879              2.435
 Vibration     5          0.629              1.867              2.334
 Vibration     6          0.673              1.732              1.608
 Vibration     7          0.692              1.676              1.425
 Vibration     8          0.699              1.655              1.364
 Vibration     9          0.727              1.575              1.166
 Vibration    10          0.791              1.404              0.858
 Vibration    11          0.852              1.257              0.666
 Vibration    12          0.862              1.234              0.641
 Vibration    13          0.901              1.148              0.552

 Optimization completed.
    -- Stationary point found.
 Normal termination of Gaussian 09 at Sat Aug 21 02:25:29 2021.
