 Gaussian 09, Revision E.01,
 Gaussian 09:  ES64L-G09RevE.01 30-Nov-2015

 -------------------------
 #P OPT Freq B3LYP/6-31G**
 -------------------------

 ------
 NUQJEP
 ------
 Symbolic Z-matrix:
 Charge =  0 Multiplicity = 1

 SCF Done:  E(RB3LYP) =  -605.242316240     A.U. after   16 cycles
 SCF Done:  E(RB3LYP) =  -605.342056757     A.U. after   13 cycles
 SCF Done:  E(RB3LYP) =  -605.381735733     A.U. after   16 cycles
 SCF Done:  E(RB3LYP) =  -605.370393587     A.U. after   18 cycles
 SCF Done:  E(RB3LYP) =  -605.384743225     A.U. after   13 cycles
 SCF Done:  E(RB3LYP) =  -605.384150155     A.U. after   14 cycles
 SCF Done:  E(RB3LYP) =  -605.385755664     A.U. after   10 cycles
 SCF Done:  E(RB3LYP) =  -605.386135332     A.U. after   13 cycles
 SCF Done:  E(RB3LYP) =  -605.386180007     A.U. after   12 cycles
 SCF Done:  E(RB3LYP) =  -605.386185344     A.U. after   10 cycles
 SCF Done:  E(RB3LYP) =  -605.386186747     A.U. after   10 cycles
 SCF Done:  E(RB3LYP) =  -605.386187077     A.U. after    8 cycles
 SCF Done:  E(RB3LYP) =  -605.386187249     A.U. after    9 cycles
 SCF Done:  E(RB3LYP) =  -605.386187275     A.U. after    8 cycles
 Optimization completed.
    -- Stationary point found.
 Normal termination of Gaussian 09 at Fri Aug 20 15:53:16 2021.

 ----------------------------------------------------------------------
 #P Geom=AllCheck Guess=TCheck SCRF=Check GenChk RB3LYP/6-31G(d,p) Freq
 ----------------------------------------------------------------------

 Structure from the checkpoint file:  "/public/home/users/caep010/.cache/gau_scr/Gau-149102.chk"
 ------
 NUQJEP
 ------
 Charge =  0 Multiplicity = 1

                         Standard orientation:
 ---------------------------------------------------------------------
 Center     Atomic      Atomic             Coordinates (Angstroms)
 Number     Number       Type             X           Y           Z
 ---------------------------------------------------------------------
      1          8           0       -4.437622   -0.899078    0.000078
      2          1           0       -5.206205   -0.311740   -0.000019
      3          7           0       -3.367243   -0.005181   -0.000079
      4          6           0       -2.246868   -0.627312    0.000036
      5          6           0       -0.976725    0.106809    0.000006
      6          6           0        0.221584   -0.616613    0.000003
      7          1           0        0.229862   -1.699950   -0.000012
      8          1           0       -2.216584   -1.719137    0.000263
      9          6           0        1.430684    0.072873   -0.000011
     10          6           0        1.496068    1.462992   -0.000033
     11          7           0        2.685605   -0.699658    0.000004
     12          8           0        2.600843   -1.927307   -0.000175
     13          1           0        2.461176    1.953025   -0.000010
     14          6           0        0.297656    2.179131   -0.000049
     15          1           0        0.322261    3.264065   -0.000094
     16          6           0       -0.924417    1.514117   -0.000018
     17          1           0       -1.855269    2.070338   -0.000006
     18          8           0        3.742822   -0.070453    0.000198
 ---------------------------------------------------------------------

 SCF Done:  E(RB3LYP) =  -605.386187275     A.U. after    1 cycles

 The electronic state is 1-A.
 Alpha  occ. eigenvalues --  -19.20712 -19.18430 -19.18427 -14.57537 -14.40414
 Alpha  occ. eigenvalues --  -10.25908 -10.24180 -10.23286 -10.22661 -10.22571
 Alpha  occ. eigenvalues --  -10.22229 -10.22149  -1.22735  -1.10002  -1.05461
 Alpha  occ. eigenvalues --   -0.90569  -0.87736  -0.80990  -0.78389  -0.70694
 Alpha  occ. eigenvalues --   -0.66265  -0.62431  -0.57826  -0.55149  -0.54775
 Alpha  occ. eigenvalues --   -0.53467  -0.51434  -0.51171  -0.48319  -0.46800
 Alpha  occ. eigenvalues --   -0.45987  -0.43664  -0.43193  -0.39620  -0.39366
 Alpha  occ. eigenvalues --   -0.37919  -0.31760  -0.31161  -0.31050  -0.29728
 Alpha  occ. eigenvalues --   -0.29403  -0.28612  -0.24911
 Alpha virt. eigenvalues --   -0.09346  -0.06019  -0.01296   0.03795   0.05888
 Alpha virt. eigenvalues --    0.08383   0.10221   0.13140   0.14808   0.15491
 Alpha virt. eigenvalues --    0.16755   0.17656   0.19766   0.24306   0.25969

 Mulliken charges:
               1
     1  O   -0.401448
     2  H    0.338747
     3  N   -0.209190
     4  C    0.136495
     5  C    0.077539
     6  C   -0.130314
     7  H    0.137931
     8  H    0.110448
     9  C    0.233897
    10  C   -0.084610
    11  N    0.390910
    12  O   -0.395569
    13  H    0.139981
    14  C   -0.099295
    15  H    0.109052
    16  C   -0.082412
    17  H    0.122029
    18  O   -0.394192
 Sum of Mulliken charges =  -0.00000

 Dipole moment (field-independent basis, Debye):
    X=             -3.8475    Y=              2.4953    Z=              0.0000  Tot=              4.5858
 Quadrupole moment (field-independent basis, Debye-Ang):
   XX=            -70.7695   YY=            -64.5454   ZZ=            -68.0812
   XY=              3.5560   XZ=             -0.0004   YZ=             -0.0007

  Exact polarizability: 167.018   4.857 106.451   0.001  -0.000  34.342
 Approx polarizability: 268.504  13.213 199.002   0.005   0.003  53.734

                      1                      2                      3
                      A                      A                      A
 Frequencies --     51.9776                80.5460               117.8246
 Red. masses --     11.6232                 3.8735                 7.1966
 Frc consts  --      0.0185                 0.0148                 0.0589
 IR Inten    --      0.1438                 0.0006                 2.4251

                      4                      5                      6
                      A                      A                      A
 Frequencies --    156.6886               178.8786               248.8022
 Red. masses --      4.7972                 5.2324                 6.8377
 Frc consts  --      0.0694                 0.0986                 0.2494
 IR Inten    --      0.1445                 1.8087                 1.1285

                      7                      8                      9
                      A                      A                      A
 Frequencies --    313.9561               340.2196               403.0227
 Red. masses --      4.7501                10.8067                 7.3968
 Frc consts  --      0.2759                 0.7370                 0.7079
 IR Inten    --      0.4697                 1.2040                 0.5530

                     10                     11                     12
                      A                      A                      A
 Frequencies --    433.1322               442.9419               445.6056
 Red. masses --      1.6615                 1.6866                 6.2581
 Frc consts  --      0.1837                 0.1950                 0.7321
 IR Inten    --     70.8726                67.5761                 2.9313

                     13                     14                     15
                      A                      A                      A
 Frequencies --    551.6476               552.2285               657.8338
 Red. masses --      4.8578                 6.2639                 6.7919
 Frc consts  --      0.8710                 1.1255                 1.7317
 IR Inten    --      1.7494                 0.7733                14.8045

                     16                     17                     18
                      A                      A                      A
 Frequencies --    692.4331               718.0130               748.3192
 Red. masses --      2.4196                 8.1386                 4.8684
 Frc consts  --      0.6835                 2.4721                 1.6063
 IR Inten    --     12.4116                61.2926                27.0775

                     19                     20                     21
                      A                      A                      A
 Frequencies --    829.8981               849.3725               924.4637
 Red. masses --      1.5479                 8.0282                 1.4090
 Frc consts  --      0.6281                 3.4124                 0.7095
 IR Inten    --     13.5811                19.4392                 3.9523

                     22                     23                     24
                      A                      A                      A
 Frequencies --    943.6223               961.9424               982.3095
 Red. masses --      3.6832                 1.3879                 1.4971
 Frc consts  --      1.9323                 0.7567                 0.8511
 IR Inten    --      5.4108                 0.9650                15.1502

                     25                     26                     27
                      A                      A                      A
 Frequencies --   1006.5902              1016.5363              1026.0083
 Red. masses --      1.3184                 6.3173                10.3863
 Frc consts  --      0.7871                 3.8462                 6.4419
 IR Inten    --      1.1107                 2.0287               240.7854

                     28                     29                     30
                      A                      A                      A
 Frequencies --   1111.7799              1119.0152              1193.3530
 Red. masses --      1.5229                 1.8063                 1.1371
 Frc consts  --      1.1091                 1.3327                 0.9541
 IR Inten    --      8.6831                39.0365                 0.8019

                     31                     32                     33
                      A                      A                      A
 Frequencies --   1244.4398              1299.9111              1324.0986
 Red. masses --      2.3242                 1.3233                 1.3725
 Frc consts  --      2.1206                 1.3174                 1.4178
 IR Inten    --     12.9732                87.6456                 2.0029

                     34                     35                     36
                      A                      A                      A
 Frequencies --   1373.2307              1399.5189              1443.6503
 Red. masses --      6.5424                14.2862                 1.7982
 Frc consts  --      7.2690                16.4863                 2.2081
 IR Inten    --      5.6454               301.5551                33.7154

                     37                     38                     39
                      A                      A                      A
 Frequencies --   1479.3282              1527.3448              1620.5059
 Red. masses --      2.3376                 2.6730                 6.9664
 Frc consts  --      3.0141                 3.6738                10.7785
 IR Inten    --      5.9863                10.5635                73.6227

                     40                     41                     42
                      A                      A                      A
 Frequencies --   1637.5962              1676.1112              1707.2275
 Red. masses --      7.7654                 7.8395                 6.9039
 Frc consts  --     12.2695                12.9761                11.8556
 IR Inten    --    100.7639                32.2940                 8.4439

                     43                     44                     45
                      A                      A                      A
 Frequencies --   3126.3156              3203.6254              3224.7228
 Red. masses --      1.0897                 1.0890                 1.0937
 Frc consts  --      6.2751                 6.5853                 6.7007
 IR Inten    --     12.7689                 6.8550                 2.5429

                     46                     47                     48
                      A                      A                      A
 Frequencies --   3235.5420              3249.1543              3808.9386
 Red. masses --      1.0912                 1.0931                 1.0677
 Frc consts  --      6.7306                 6.7989                 9.1269
 IR Inten    --      2.5012                 3.1343               121.2087

 - Thermochemistry -
 -------------------
 Temperature   298.150 Kelvin.  Pressure   1.00000 Atm.
 Atom     1 has atomic number  8 and mass  15.99491

 Molecular mass:   166.03784 amu.
 Principal axes and moments of inertia in atomic units:
                           1         2         3
     Eigenvalues --   798.853533871.719094670.57261
           X            0.99997   0.00799  -0.00000
           Y           -0.00799   0.99997  -0.00000
           Z            0.00000   0.00000   1.00000
 This molecule is an asymmetric top.
 Rotational symmetry number  1.
 Warning -- assumption of classical behavior for rotation
           may cause significant error
 Rotational temperatures (Kelvin)      0.10842     0.02237     0.01854
 Rotational constants (GHZ):           2.25916     0.46613     0.38641
 Zero-point vibrational energy     339023.0 (Joules/Mol)
                                   81.02845 (Kcal/Mol)
 Warning -- explicit consideration of  14 degrees of freedom as
           vibrations may cause significant error
 Vibrational temperatures:     74.78   115.89   169.52   225.44   257.37
          (Kelvin)            357.97   451.71   489.50   579.86   623.18
                              637.29   641.13   793.70   794.53   946.47
                              996.26  1033.06  1076.66  1194.04  1222.06
                             1330.10  1357.66  1384.02  1413.32  1448.26
                             1462.57  1476.20  1599.60  1610.01  1716.97
                             1790.47  1870.28  1905.08  1975.77  2013.59
                             2077.09  2128.42  2197.51  2331.54  2356.13
                             2411.55  2456.32  4498.07  4609.30  4639.65
                             4655.22  4674.80  5480.21

 Zero-point correction=                           0.129127 (Hartree/Particle)
 Thermal correction to Energy=                    0.139257
 Thermal correction to Enthalpy=                  0.140202
 Thermal correction to Gibbs Free Energy=         0.092503
 Sum of electronic and zero-point Energies=           -605.257060
 Sum of electronic and thermal Energies=              -605.246930
 Sum of electronic and thermal Enthalpies=            -605.245986
 Sum of electronic and thermal Free Energies=         -605.293684

                     E (Thermal)             CV                S
                      KCal/Mol        Cal/Mol-Kelvin    Cal/Mol-Kelvin
 Total                   87.385             37.597            100.391
 Electronic               0.000              0.000              0.000
 Translational            0.889              2.981             41.229
 Rotational               0.889              2.981             31.047
 Vibrational             85.608             31.635             28.114
 Vibration     1          0.596              1.977              4.741
 Vibration     2          0.600              1.962              3.878
 Vibration     3          0.608              1.935              3.136
 Vibration     4          0.620              1.895              2.589
 Vibration     5          0.629              1.868              2.340
 Vibration     6          0.662              1.765              1.739
 Vibration     7          0.702              1.647              1.341
 Vibration     8          0.720              1.595              1.211
 Vibration     9          0.768              1.464              0.952
 Vibration    10          0.794              1.398              0.848
 Vibration    11          0.803              1.376              0.817
 Vibration    12          0.805              1.371              0.809
 Vibration    13          0.907              1.136              0.541
 Vibration    14          0.908              1.135              0.540

 Optimization completed.
    -- Stationary point found.
 Normal termination of Gaussian 09 at Fri Aug 20 15:53:41 2021.
