 Gaussian 09, Revision E.01,
 Gaussian 09:  ES64L-G09RevE.01 30-Nov-2015

 -------------------------
 #P OPT Freq B3LYP/6-31G**
 -------------------------

 ------
 ERIWIL
 ------
 Symbolic Z-matrix:
 Charge =  0 Multiplicity = 1

 SCF Done:  E(RB3LYP) =  -606.518910292     A.U. after   18 cycles
 SCF Done:  E(RB3LYP) =  -606.617627615     A.U. after   14 cycles
 SCF Done:  E(RB3LYP) =  -606.663554531     A.U. after   16 cycles
 SCF Done:  E(RB3LYP) =  -606.650577421     A.U. after   17 cycles
 SCF Done:  E(RB3LYP) =  -606.664888616     A.U. after   13 cycles
 SCF Done:  E(RB3LYP) =  -606.665240990     A.U. after   15 cycles
 SCF Done:  E(RB3LYP) =  -606.666171686     A.U. after   15 cycles
 SCF Done:  E(RB3LYP) =  -606.666269983     A.U. after   12 cycles
 SCF Done:  E(RB3LYP) =  -606.666293566     A.U. after   12 cycles
 SCF Done:  E(RB3LYP) =  -606.666308818     A.U. after   12 cycles
 SCF Done:  E(RB3LYP) =  -606.666315655     A.U. after   11 cycles
 SCF Done:  E(RB3LYP) =  -606.666317771     A.U. after   10 cycles
 SCF Done:  E(RB3LYP) =  -606.666318842     A.U. after    9 cycles
 Optimization completed.
    -- Stationary point found.
 Normal termination of Gaussian 09 at Fri Aug 20 15:50:27 2021.

 ----------------------------------------------------------------------
 #P Geom=AllCheck Guess=TCheck SCRF=Check GenChk RB3LYP/6-31G(d,p) Freq
 ----------------------------------------------------------------------

 Structure from the checkpoint file:  "/public/home/users/caep010/.cache/gau_scr/Gau-141638.chk"
 ------
 ERIWIL
 ------
 Charge =  0 Multiplicity = 1

                         Standard orientation:
 ---------------------------------------------------------------------
 Center     Atomic      Atomic             Coordinates (Angstroms)
 Number     Number       Type             X           Y           Z
 ---------------------------------------------------------------------
      1          7           0        1.529776   -1.091831   -0.052295
      2          6           0        2.312268    0.090602   -0.006897
      3          8           0        3.532310    0.001244   -0.023661
      4          1           0        2.080399   -1.941052   -0.106445
      5          6           0        1.511663    1.289928    0.058764
      6          6           0        0.143737    1.284629    0.053541
      7          6           0       -0.536942    0.008601    0.008909
      8          6           0       -0.589573    2.600775    0.139362
      9          1           0        0.119489    3.398271    0.370843
     10          1           0       -1.094046    2.830507   -0.801525
     11          7           0       -1.986534   -0.057354   -0.010502
     12          8           0       -2.604442    0.879964   -0.521871
     13          1           0        2.060826    2.222088    0.116660
     14          8           0       -2.535904   -1.051531    0.479698
     15          1           0       -1.365313    2.583634    0.909141
     16          6           0        0.177690   -1.179650   -0.035938
     17          6           0       -0.379565   -2.576228   -0.089990
     18          1           0        0.391298   -3.270684   -0.435871
     19          1           0       -1.242832   -2.640108   -0.752414
     20          1           0       -0.723893   -2.887724    0.899347
 ---------------------------------------------------------------------

 SCF Done:  E(RB3LYP) =  -606.666318842     A.U. after    1 cycles

 The electronic state is 1-A.
 Alpha  occ. eigenvalues --  -19.18265 -19.18212 -19.12539 -14.57672 -14.41709
 Alpha  occ. eigenvalues --  -10.30581 -10.29760 -10.26033 -10.24789 -10.22437
 Alpha  occ. eigenvalues --  -10.20806 -10.19936  -1.22633  -1.05340  -1.05113
 Alpha  occ. eigenvalues --   -0.98550  -0.86885  -0.82095  -0.76843  -0.73520
 Alpha  occ. eigenvalues --   -0.69570  -0.63430  -0.62938  -0.57057  -0.55755
 Alpha  occ. eigenvalues --   -0.53029  -0.50905  -0.50342  -0.47544  -0.47094
 Alpha  occ. eigenvalues --   -0.44834  -0.43768  -0.43744  -0.42352  -0.41893
 Alpha  occ. eigenvalues --   -0.39879  -0.39069  -0.35340  -0.31583  -0.31163
 Alpha  occ. eigenvalues --   -0.30962  -0.29211  -0.26918  -0.23948
 Alpha virt. eigenvalues --   -0.08424  -0.05479   0.00354   0.05685   0.09872
 Alpha virt. eigenvalues --    0.10601   0.11361   0.11648   0.12868   0.15399
 Alpha virt. eigenvalues --    0.16036   0.17975   0.18797   0.19606   0.21770

 Mulliken charges:
               1
     1  N   -0.614234
     2  C    0.594522
     3  O   -0.514564
     4  H    0.280230
     5  C   -0.229633
     6  C    0.192533
     7  C    0.126166
     8  C   -0.354434
     9  H    0.112334
    10  H    0.157713
    11  N    0.330009
    12  O   -0.394778
    13  H    0.113463
    14  O   -0.408254
    15  H    0.136038
    16  C    0.378348
    17  C   -0.348819
    18  H    0.109195
    19  H    0.162194
    20  H    0.171972
 Sum of Mulliken charges =  -0.00000

 Dipole moment (field-independent basis, Debye):
    X=              0.2881    Y=             -1.5953    Z=              0.0100  Tot=              1.6211
 Quadrupole moment (field-independent basis, Debye-Ang):
   XX=            -93.9875   YY=            -56.1065   ZZ=            -68.2400
   XY=             -2.8606   XZ=             -0.1135   YZ=              2.1033

  Exact polarizability: 137.399  -2.958 113.429  -0.307  -2.570  48.974
 Approx polarizability: 250.577 -11.480 182.003   0.024 -15.252  80.739

                      1                      2                      3
                      A                      A                      A
 Frequencies --     70.9596                72.1692               164.8529
 Red. masses --      7.8158                 5.2005                 4.2646
 Frc consts  --      0.0232                 0.0160                 0.0683
 IR Inten    --      0.9239                 9.0628                 0.0764

                      4                      5                      6
                      A                      A                      A
 Frequencies --    192.1782               202.4962               230.9918
 Red. masses --      1.1442                 2.1830                 1.4254
 Frc consts  --      0.0249                 0.0527                 0.0448
 IR Inten    --      0.8694                 0.4083                 1.6354

                      7                      8                      9
                      A                      A                      A
 Frequencies --    256.0176               264.4004               334.0662
 Red. masses --      6.1490                 4.6536                 4.1679
 Frc consts  --      0.2375                 0.1917                 0.2740
 IR Inten    --      0.9860                10.8798                 0.0825

                     10                     11                     12
                      A                      A                      A
 Frequencies --    346.2547               368.1660               460.8533
 Red. masses --      3.8948                 4.5105                 8.0747
 Frc consts  --      0.2751                 0.3602                 1.0104
 IR Inten    --      1.4577                 1.4154                 5.1159

                     13                     14                     15
                      A                      A                      A
 Frequencies --    517.1295               534.9280               574.1983
 Red. masses --      5.4640                 3.4656                 4.8802
 Frc consts  --      0.8609                 0.5843                 0.9480
 IR Inten    --      1.3078                 2.7981                 6.7783

                     16                     17                     18
                      A                      A                      A
 Frequencies --    596.0282               634.8990               655.3334
 Red. masses --      3.5162                 3.3441                 4.8199
 Frc consts  --      0.7360                 0.7942                 1.2196
 IR Inten    --      1.2103                 7.8826                16.2639

                     19                     20                     21
                      A                      A                      A
 Frequencies --    708.9842               757.1965               774.6475
 Red. masses --      2.1659                 2.0205                 9.4458
 Frc consts  --      0.6414                 0.6825                 3.3396
 IR Inten    --     19.0987                44.8525                18.0556

                     22                     23                     24
                      A                      A                      A
 Frequencies --    852.4048               873.7538               944.2071
 Red. masses --     10.0216                 1.4578                 3.1643
 Frc consts  --      4.2902                 0.6557                 1.6621
 IR Inten    --     18.0849                19.9336                23.8189

                     25                     26                     27
                      A                      A                      A
 Frequencies --    982.4744              1046.8330              1058.0713
 Red. masses --      3.6251                 1.5056                 1.5363
 Frc consts  --      2.0616                 0.9721                 1.0133
 IR Inten    --      6.3687                23.9775                 6.6393

                     28                     29                     30
                      A                      A                      A
 Frequencies --   1066.6137              1072.6389              1169.9621
 Red. masses --      1.5333                 1.6166                 7.9681
 Frc consts  --      1.0278                 1.0958                 6.4261
 IR Inten    --      2.3631                 2.1480                 2.5226

                     31                     32                     33
                      A                      A                      A
 Frequencies --   1225.1721              1254.3078              1297.8473
 Red. masses --      3.5571                 2.3157                 1.7735
 Frc consts  --      3.1458                 2.1465                 1.7600
 IR Inten    --      6.0952                39.1133                13.5621

                     34                     35                     36
                      A                      A                      A
 Frequencies --   1386.2961              1416.1167              1428.5690
 Red. masses --     10.5415                 2.1239                 1.2267
 Frc consts  --     11.9361                 2.5095                 1.4750
 IR Inten    --    427.0877                 9.0356                 7.5938

                     37                     38                     39
                      A                      A                      A
 Frequencies --   1432.7502              1464.0542              1484.3998
 Red. masses --      1.3813                 1.4779                 1.1151
 Frc consts  --      1.6706                 1.8665                 1.4476
 IR Inten    --      4.5547                39.2714                16.8046

                     40                     41                     42
                      A                      A                      A
 Frequencies --   1491.7797              1499.3644              1514.1023
 Red. masses --      1.1245                 1.1020                 1.7835
 Frc consts  --      1.4744                 1.4597                 2.4089
 IR Inten    --     17.8049                23.1547                 0.8316

                     43                     44                     45
                      A                      A                      A
 Frequencies --   1574.4528              1619.3570              1657.3718
 Red. masses --      5.3703                 7.6705                 7.7015
 Frc consts  --      7.8435                11.8512                12.4643
 IR Inten    --     30.7604               169.8033               178.4316

                     46                     47                     48
                      A                      A                      A
 Frequencies --   1801.8785              3065.1839              3068.6036
 Red. masses --      8.5782                 1.0388                 1.0356
 Frc consts  --     16.4096                 5.7501                 5.7452
 IR Inten    --    622.8314                13.0768                 8.4470

                     49                     50                     51
                      A                      A                      A
 Frequencies --   3138.7231              3138.9106              3151.2908
 Red. masses --      1.1019                 1.1008                 1.1043
 Frc consts  --      6.3959                 6.3901                 6.4612
 IR Inten    --      7.4234                 7.5059                12.1226

                     52                     53                     54
                      A                      A                      A
 Frequencies --   3164.6322              3229.0955              3595.9402
 Red. masses --      1.1000                 1.0918                 1.0777
 Frc consts  --      6.4904                 6.7072                 8.2109
 IR Inten    --      3.0658                 0.8314                60.7971

 - Thermochemistry -
 -------------------
 Temperature   298.150 Kelvin.  Pressure   1.00000 Atm.
 Atom     1 has atomic number  7 and mass  14.00307

 Molecular mass:   168.05349 amu.
 Principal axes and moments of inertia in atomic units:
                           1         2         3
     Eigenvalues --  1204.646682236.281363357.30579
           X            0.99999  -0.00541  -0.00033
           Y            0.00542   0.99995   0.00827
           Z            0.00028  -0.00827   0.99997
 This molecule is an asymmetric top.
 Rotational symmetry number  1.
 Warning -- assumption of classical behavior for rotation
           may cause significant error
 Rotational temperatures (Kelvin)      0.07190     0.03873     0.02580
 Rotational constants (GHZ):           1.49815     0.80703     0.53756
 Zero-point vibrational energy     400054.6 (Joules/Mol)
                                   95.61535 (Kcal/Mol)
 Warning -- explicit consideration of  16 degrees of freedom as
           vibrations may cause significant error
 Vibrational temperatures:    102.09   103.84   237.19   276.50   291.35
          (Kelvin)            332.35   368.35   380.41   480.65   498.18
                              529.71   663.06   744.03   769.64   826.14
                              857.55   913.48   942.88  1020.07  1089.44
                             1114.54  1226.42  1257.14  1358.50  1413.56
                             1506.16  1522.33  1534.62  1543.29  1683.31
                             1762.75  1804.67  1867.31  1994.57  2037.47
                             2055.39  2061.41  2106.44  2135.72  2146.34
                             2157.25  2178.45  2265.28  2329.89  2384.59
                             2592.50  4410.11  4415.03  4515.92  4516.19
                             4534.00  4553.19  4645.94  5173.75

 Zero-point correction=                           0.152373 (Hartree/Particle)
 Thermal correction to Energy=                    0.163091
 Thermal correction to Enthalpy=                  0.164035
 Thermal correction to Gibbs Free Energy=         0.115976
 Sum of electronic and zero-point Energies=           -606.513946
 Sum of electronic and thermal Energies=              -606.503228
 Sum of electronic and thermal Enthalpies=            -606.502284
 Sum of electronic and thermal Free Energies=         -606.550343

                     E (Thermal)             CV                S
                      KCal/Mol        Cal/Mol-Kelvin    Cal/Mol-Kelvin
 Total                  102.341             40.341            101.149
 Electronic               0.000              0.000              0.000
 Translational            0.889              2.981             41.265
 Rotational               0.889              2.981             30.582
 Vibrational            100.564             34.379             29.302
 Vibration     1          0.598              1.968              4.127
 Vibration     2          0.598              1.967              4.093
 Vibration     3          0.623              1.886              2.493
 Vibration     4          0.634              1.851              2.207
 Vibration     5          0.639              1.836              2.110
 Vibration     6          0.653              1.794              1.871
 Vibration     7          0.666              1.753              1.689
 Vibration     8          0.671              1.738              1.633
 Vibration     9          0.716              1.607              1.240
 Vibration    10          0.724              1.583              1.183
 Vibration    11          0.741              1.538              1.087
 Vibration    12          0.819              1.337              0.764
 Vibration    13          0.872              1.212              0.617
 Vibration    14          0.890              1.173              0.576
 Vibration    15          0.931              1.087              0.496
 Vibration    16          0.954              1.040              0.457

 Normal termination of Gaussian 09 at Fri Aug 20 15:50:58 2021.
