 Gaussian 09, Revision E.01,
 Gaussian 09:  ES64L-G09RevE.01 30-Nov-2015

 -------------------------
 #P OPT Freq B3LYP/6-31G**
 -------------------------

 ------
 DNITPY
 ------
 Symbolic Z-matrix:
 Charge =  0 Multiplicity = 1

 SCF Done:  E(RB3LYP) =  -657.231625403     A.U. after   15 cycles
 SCF Done:  E(RB3LYP) =  -657.274576966     A.U. after   14 cycles
 SCF Done:  E(RB3LYP) =  -657.278236573     A.U. after   15 cycles
 SCF Done:  E(RB3LYP) =  -657.263686865     A.U. after   17 cycles
 SCF Done:  E(RB3LYP) =  -657.278605770     A.U. after   12 cycles
 SCF Done:  E(RB3LYP) =  -657.278794948     A.U. after   12 cycles
 SCF Done:  E(RB3LYP) =  -657.278186122     A.U. after   14 cycles
 SCF Done:  E(RB3LYP) =  -657.278801644     A.U. after    9 cycles
 SCF Done:  E(RB3LYP) =  -657.278813787     A.U. after   11 cycles
 SCF Done:  E(RB3LYP) =  -657.278816918     A.U. after   10 cycles
 SCF Done:  E(RB3LYP) =  -657.278817355     A.U. after   10 cycles
 SCF Done:  E(RB3LYP) =  -657.278817401     A.U. after    9 cycles
 Optimization completed.
    -- Stationary point found.
 Normal termination of Gaussian 09 at Fri Aug 20 16:01:37 2021.

 ----------------------------------------------------------------------
 #P Geom=AllCheck Guess=TCheck SCRF=Check GenChk RB3LYP/6-31G(d,p) Freq
 ----------------------------------------------------------------------

 Structure from the checkpoint file:  "/public/home/users/caep010/.cache/gau_scr/Gau-1186.chk"
 ------
 DNITPY
 ------
 Charge =  0 Multiplicity = 1

                         Standard orientation:
 ---------------------------------------------------------------------
 Center     Atomic      Atomic             Coordinates (Angstroms)
 Number     Number       Type             X           Y           Z
 ---------------------------------------------------------------------
      1          6           0        1.145595    1.534478    0.000027
      2          1           0        2.073961    2.095756    0.000079
      3          7           0        0.000002    2.223648   -0.000020
      4          6           0       -1.145589    1.534474   -0.000087
      5          6           0        1.175905    0.138003    0.000005
      6          1           0       -2.073960    2.095768   -0.000061
      7          6           0        0.000002   -0.598939   -0.000028
      8          1           0        0.000012   -1.681162   -0.000101
      9          7           0        2.470328   -0.565275   -0.000011
     10          8           0        2.442712   -1.792793   -0.000283
     11          8           0        3.484304    0.127902    0.000240
     12          6           0       -1.175902    0.137996   -0.000027
     13          7           0       -2.470326   -0.565273    0.000030
     14          8           0       -2.442734   -1.792791    0.000247
     15          8           0       -3.484296    0.127915   -0.000111
 ---------------------------------------------------------------------

 SCF Done:  E(RB3LYP) =  -657.278817401     A.U. after    1 cycles

 The electronic state is 1-A.
 Alpha  occ. eigenvalues --  -19.21282 -19.21282 -19.21263 -19.21263 -14.60512
 Alpha  occ. eigenvalues --  -14.60511 -14.39089 -10.29640 -10.29639 -10.28905
 Alpha  occ. eigenvalues --  -10.28904 -10.27620  -1.25709  -1.25698  -1.08529
 Alpha  occ. eigenvalues --   -1.08513  -1.00719  -0.89459  -0.86667  -0.75440
 Alpha  occ. eigenvalues --   -0.75341  -0.67935  -0.62478  -0.59898  -0.56780
 Alpha  occ. eigenvalues --   -0.56640  -0.56225  -0.56074  -0.55437  -0.53536
 Alpha  occ. eigenvalues --   -0.52086  -0.46915  -0.45391  -0.44703  -0.35296
 Alpha  occ. eigenvalues --   -0.35164  -0.33962  -0.33750  -0.33546  -0.32760
 Alpha  occ. eigenvalues --   -0.32433  -0.32186  -0.30592
 Alpha virt. eigenvalues --   -0.12727  -0.11921  -0.06379  -0.02368   0.05924
 Alpha virt. eigenvalues --    0.10425   0.10753   0.12902   0.15467   0.16415
 Alpha virt. eigenvalues --    0.19215   0.22723   0.23842   0.24776   0.26985

 Mulliken charges:
               1
     1  C    0.121550
     2  H    0.168615
     3  N   -0.435383
     4  C    0.121546
     5  C    0.211422
     6  H    0.168616
     7  C   -0.034441
     8  H    0.192733
     9  N    0.391158
    10  O   -0.375969
    11  O   -0.378230
    12  C    0.211428
    13  N    0.391153
    14  O   -0.375969
    15  O   -0.378230
 Sum of Mulliken charges =  -0.00000

 Dipole moment (field-independent basis, Debye):
    X=              0.0001    Y=              1.6574    Z=             -0.0001  Tot=              1.6574
 Quadrupole moment (field-independent basis, Debye-Ang):
   XX=            -83.5490   YY=            -71.8190   ZZ=            -63.1415
   XY=              0.0000   XZ=             -0.0001   YZ=              0.0000

  Exact polarizability: 119.883   0.000  97.037   0.003   0.001  31.632
 Approx polarizability: 197.040   0.000 211.241   0.010   0.002  49.962

                      1                      2                      3
                      A                      A                      A
 Frequencies --     48.8571                55.2772               153.2288
 Red. masses --     15.9658                14.0427                 6.9917
 Frc consts  --      0.0225                 0.0253                 0.0967
 IR Inten    --      0.0000                 0.4457                10.0503

                      4                      5                      6
                      A                      A                      A
 Frequencies --    159.4826               192.9977               296.8092
 Red. masses --     13.2492                 4.0361                 8.5231
 Frc consts  --      0.1985                 0.0886                 0.4424
 IR Inten    --      4.0568                 0.0000                 1.7036

                      7                      8                      9
                      A                      A                      A
 Frequencies --    347.4294               412.8797               438.3515
 Red. masses --     13.1411                 9.4824                 5.0033
 Frc consts  --      0.9346                 0.9524                 0.5664
 IR Inten    --      1.4277                 1.2310                 0.0000

                     10                     11                     12
                      A                      A                      A
 Frequencies --    444.7869               510.6343               571.1994
 Red. masses --      4.5787                11.7054                 6.0245
 Frc consts  --      0.5337                 1.7983                 1.1581
 IR Inten    --      4.8120                 2.8674                 5.9018

                     13                     14                     15
                      A                      A                      A
 Frequencies --    652.9337               688.5344               731.8654
 Red. masses --      9.5161                 3.3426                 5.0468
 Frc consts  --      2.3903                 0.9336                 1.5927
 IR Inten    --      1.2445                 6.8451                35.0870

                     16                     17                     18
                      A                      A                      A
 Frequencies --    755.2671               771.2617               844.2562
 Red. masses --     11.9045                10.5939                14.9831
 Frc consts  --      4.0010                 3.7129                 6.2922
 IR Inten    --     52.0473                 0.0000                25.9616

                     19                     20                     21
                      A                      A                      A
 Frequencies --    937.5538               957.3051               986.1970
 Red. masses --      8.4647                 1.5417                 1.3858
 Frc consts  --      4.3838                 0.8324                 0.7941
 IR Inten    --     29.2118                 7.8860                 6.8570

                     22                     23                     24
                      A                      A                      A
 Frequencies --   1004.1674              1039.0903              1089.4112
 Red. masses --      1.4817                 5.1366                 1.4730
 Frc consts  --      0.8803                 3.2676                 1.0300
 IR Inten    --      0.0000                12.8502                53.4615

                     25                     26                     27
                      A                      A                      A
 Frequencies --   1166.1263              1203.3268              1302.7942
 Red. masses --      6.8503                 1.7993                 1.4911
 Frc consts  --      5.4885                 1.5351                 1.4911
 IR Inten    --      3.1924                25.9394                 0.4637

                     28                     29                     30
                      A                      A                      A
 Frequencies --   1332.4979              1395.4515              1406.2422
 Red. masses --      5.8935                14.4955                14.6972
 Frc consts  --      6.1653                16.6308                17.1240
 IR Inten    --     23.7720               378.5365                87.2992

                     31                     32                     33
                      A                      A                      A
 Frequencies --   1456.0351              1483.7542              1612.0240
 Red. masses --      2.6360                 2.7943                 8.2341
 Frc consts  --      3.2926                 3.6244                12.6069
 IR Inten    --     12.9846                 0.0599                44.8106

                     34                     35                     36
                      A                      A                      A
 Frequencies --   1628.5818              1665.1800              1680.9927
 Red. masses --      7.9110                12.1831                11.4071
 Frc consts  --     12.3623                19.9036                18.9914
 IR Inten    --      1.2306               116.6142               279.1048

                     37                     38                     39
                      A                      A                      A
 Frequencies --   3225.6508              3228.6760              3263.6264
 Red. masses --      1.0902                 1.0946                 1.0928
 Frc consts  --      6.6831                 6.7231                 6.8576
 IR Inten    --      0.5690                 1.1547                20.0268

 - Thermochemistry -
 -------------------
 Temperature   298.150 Kelvin.  Pressure   1.00000 Atm.
 Atom     1 has atomic number  6 and mass  12.00000

 Molecular mass:   169.01236 amu.
 Principal axes and moments of inertia in atomic units:
                           1         2         3
     Eigenvalues --   908.724492940.803103849.52756
           X            1.00000  -0.00000   0.00000
           Y            0.00000   1.00000   0.00000
           Z           -0.00000  -0.00000   1.00000
 This molecule is an asymmetric top.
 Rotational symmetry number  1.
 Warning -- assumption of classical behavior for rotation
           may cause significant error
 Rotational temperatures (Kelvin)      0.09531     0.02945     0.02250
 Rotational constants (GHZ):           1.98602     0.61369     0.46882
 Zero-point vibrational energy     246076.3 (Joules/Mol)
                                   58.81364 (Kcal/Mol)
 Warning -- explicit consideration of  12 degrees of freedom as
           vibrations may cause significant error
 Vibrational temperatures:     70.29    79.53   220.46   229.46   277.68
          (Kelvin)            427.04   499.87   594.04   630.69   639.95
                              734.69   821.83   939.42   990.65  1052.99
                             1086.66  1109.67  1214.69  1348.93  1377.35
                             1418.92  1444.77  1495.02  1567.42  1677.79
                             1731.32  1874.43  1917.16  2007.74  2023.27
                             2094.91  2134.79  2319.34  2343.16  2395.82
                             2418.57  4640.99  4645.34  4695.62

 Zero-point correction=                           0.093725 (Hartree/Particle)
 Thermal correction to Energy=                    0.102989
 Thermal correction to Enthalpy=                  0.103933
 Thermal correction to Gibbs Free Energy=         0.057574
 Sum of electronic and zero-point Energies=           -657.185092
 Sum of electronic and thermal Energies=              -657.175828
 Sum of electronic and thermal Enthalpies=            -657.174884
 Sum of electronic and thermal Free Energies=         -657.221244

                     E (Thermal)             CV                S
                      KCal/Mol        Cal/Mol-Kelvin    Cal/Mol-Kelvin
 Total                   64.627             33.422             97.572
 Electronic               0.000              0.000              0.000
 Translational            0.889              2.981             41.282
 Rotational               0.889              2.981             30.710
 Vibrational             62.849             27.460             25.580
 Vibration     1          0.595              1.978              4.863
 Vibration     2          0.596              1.975              4.619
 Vibration     3          0.619              1.899              2.632
 Vibration     4          0.621              1.892              2.556
 Vibration     5          0.635              1.850              2.199
 Vibration     6          0.690              1.680              1.435
 Vibration     7          0.725              1.580              1.178
 Vibration     8          0.777              1.442              0.917
 Vibration     9          0.799              1.387              0.832
 Vibration    10          0.804              1.372              0.812
 Vibration    11          0.866              1.226              0.632
 Vibration    12          0.927              1.094              0.502

 Optimization completed.
    -- Stationary point found.
 Normal termination of Gaussian 09 at Fri Aug 20 16:01:58 2021.
