 Gaussian 09, Revision E.01,
 Gaussian 09:  ES64L-G09RevE.01 30-Nov-2015

 -------------------------
 #P OPT Freq B3LYP/6-31G**
 -------------------------

 --------
 JOHBUD01
 --------
 Symbolic Z-matrix:
 Charge =  0 Multiplicity = 1

 SCF Done:  E(RB3LYP) =  -604.152988578     A.U. after   15 cycles
 SCF Done:  E(RB3LYP) =  -604.230516888     A.U. after   14 cycles
 SCF Done:  E(RB3LYP) =  -604.273256302     A.U. after   15 cycles
 SCF Done:  E(RB3LYP) =  -604.275680145     A.U. after   14 cycles
 SCF Done:  E(RB3LYP) =  -604.276571176     A.U. after   13 cycles
 SCF Done:  E(RB3LYP) =  -604.271905665     A.U. after   15 cycles
 SCF Done:  E(RB3LYP) =  -604.276736222     A.U. after   11 cycles
 SCF Done:  E(RB3LYP) =  -604.276878112     A.U. after   11 cycles
 SCF Done:  E(RB3LYP) =  -604.276891139     A.U. after   10 cycles
 SCF Done:  E(RB3LYP) =  -604.276859415     A.U. after   11 cycles
 SCF Done:  E(RB3LYP) =  -604.276893096     A.U. after   10 cycles
 Optimization completed.
    -- Stationary point found.
 Normal termination of Gaussian 09 at Fri Aug 20 15:49:09 2021.

 ----------------------------------------------------------------------
 #P Geom=AllCheck Guess=TCheck SCRF=Check GenChk RB3LYP/6-31G(d,p) Freq
 ----------------------------------------------------------------------

 Structure from the checkpoint file:  "/public/home/users/caep010/.cache/gau_scr/Gau-139740.chk"
 --------
 JOHBUD01
 --------
 Charge =  0 Multiplicity = 1

                         Standard orientation:
 ---------------------------------------------------------------------
 Center     Atomic      Atomic             Coordinates (Angstroms)
 Number     Number       Type             X           Y           Z
 ---------------------------------------------------------------------
      1          6           0       -0.555123   -0.284715    0.524576
      2          6           0        0.555109   -0.284731   -0.524570
      3          6           0        0.000005    0.978420   -0.000004
      4          6           0       -0.504071    2.255282   -0.568958
      5          6           0        0.504113    2.255266    0.568957
      6          1           0       -1.531899    2.527288   -0.349145
      7          1           0        1.531948    2.527249    0.349144
      8          1           0       -0.163062    2.531029   -1.561859
      9          1           0        0.163112    2.531016    1.561861
     10          7           0       -1.891304   -0.723368    0.063107
     11          7           0        1.891284   -0.723405   -0.063100
     12          8           0       -2.606002   -1.255724    0.905608
     13          8           0        2.605987   -1.255738   -0.905611
     14          8           0       -2.192437   -0.510444   -1.109740
     15          8           0        2.192435   -0.510455    1.109737
     16          1           0       -0.334854   -0.623695    1.528905
     17          1           0        0.334830   -0.623718   -1.528895
 ---------------------------------------------------------------------

 SCF Done:  E(RB3LYP) =  -604.276893096     A.U. after    1 cycles

 The electronic state is 1-A.
 Alpha  occ. eigenvalues --  -19.20194 -19.20194 -19.20109 -19.20109 -14.59141
 Alpha  occ. eigenvalues --  -14.59141 -10.28791 -10.28769 -10.26334 -10.23482
 Alpha  occ. eigenvalues --  -10.23459  -1.24504  -1.24362  -1.07366  -1.07331
 Alpha  occ. eigenvalues --   -0.95760  -0.87034  -0.79494  -0.71897  -0.64658
 Alpha  occ. eigenvalues --   -0.60760  -0.59567  -0.57198  -0.56200  -0.54958
 Alpha  occ. eigenvalues --   -0.54687  -0.52922  -0.52393  -0.51072  -0.48734
 Alpha  occ. eigenvalues --   -0.41073  -0.40419  -0.38335  -0.34961  -0.33765
 Alpha  occ. eigenvalues --   -0.32899  -0.32695  -0.32428  -0.31417  -0.30865
 Alpha  occ. eigenvalues --   -0.30607
 Alpha virt. eigenvalues --   -0.09477  -0.07526   0.02863   0.06591   0.08596
 Alpha virt. eigenvalues --    0.11331   0.11824   0.13489   0.14715   0.16084
 Alpha virt. eigenvalues --    0.17222   0.19024   0.20407   0.21453   0.24706

 Mulliken charges:
               1
     1  C    0.021493
     2  C    0.021496
     3  C    0.048107
     4  C   -0.213229
     5  C   -0.213228
     6  H    0.144346
     7  H    0.144347
     8  H    0.142161
     9  H    0.142161
    10  N    0.462672
    11  N    0.462672
    12  O   -0.376726
    13  O   -0.376725
    14  O   -0.382043
    15  O   -0.382043
    16  H    0.177269
    17  H    0.177270
 Sum of Mulliken charges =  -0.00000

 Dipole moment (field-independent basis, Debye):
    X=              0.0000    Y=              3.3954    Z=              0.0000  Tot=              3.3954
 Quadrupole moment (field-independent basis, Debye-Ang):
   XX=            -77.9740   YY=            -58.1412   ZZ=            -62.8560
   XY=             -0.0000   XZ=             -1.6005   YZ=             -0.0000

  Exact polarizability:  83.599   0.000  73.008  -3.166   0.000  74.494
 Approx polarizability: 118.739   0.000 105.136 -13.167   0.000 156.514

                      1                      2                      3
                      A                      A                      A
 Frequencies --     57.6812                66.4126               122.8989
 Red. masses --     15.5878                10.3826                 4.4177
 Frc consts  --      0.0306                 0.0270                 0.0393
 IR Inten    --      0.4319                 0.4486                 0.1079

                      4                      5                      6
                      A                      A                      A
 Frequencies --    129.7172               163.9366               185.4101
 Red. masses --      7.8741                 6.5967                 2.5690
 Frc consts  --      0.0781                 0.1045                 0.0520
 IR Inten    --      9.5299                 7.0670                 0.0309

                      7                      8                      9
                      A                      A                      A
 Frequencies --    295.3648               305.2517               412.5709
 Red. masses --      5.6873                 2.9391                11.4945
 Frc consts  --      0.2923                 0.1614                 1.1528
 IR Inten    --      2.0806                 1.7390                 2.1897

                     10                     11                     12
                      A                      A                      A
 Frequencies --    430.4072               527.5075               593.6256
 Red. masses --      5.5733                 4.7902                 5.4835
 Frc consts  --      0.6083                 0.7854                 1.1385
 IR Inten    --      1.0712                13.0677                 2.6264

                     13                     14                     15
                      A                      A                      A
 Frequencies --    677.9238               750.2868               773.5790
 Red. masses --      6.8396                 3.9540                 1.9427
 Frc consts  --      1.8520                 1.3114                 0.6849
 IR Inten    --     23.4954                 3.5998                14.0576

                     16                     17                     18
                      A                      A                      A
 Frequencies --    783.0053               785.5756               897.6847
 Red. masses --      6.3783                 1.6771                 3.2129
 Frc consts  --      2.3040                 0.6098                 1.5254
 IR Inten    --      1.1307                 4.4029                 0.0618

                     19                     20                     21
                      A                      A                      A
 Frequencies --    917.2649               937.7075               957.7478
 Red. masses --      2.2689                 4.4091                 4.9510
 Frc consts  --      1.1248                 2.2842                 2.6758
 IR Inten    --      0.9537                26.1448                55.6195

                     22                     23                     24
                      A                      A                      A
 Frequencies --   1007.2798              1012.0584              1051.4188
 Red. masses --      1.9225                 2.9258                 1.2387
 Frc consts  --      1.1493                 1.7657                 0.8068
 IR Inten    --      6.1925                 6.7835                 2.8993

                     25                     26                     27
                      A                      A                      A
 Frequencies --   1090.8058              1091.6864              1103.2615
 Red. masses --      1.2558                 1.4435                 2.5562
 Frc consts  --      0.8804                 1.0136                 1.8332
 IR Inten    --      0.0102                 0.6223                 2.5433

                     28                     29                     30
                      A                      A                      A
 Frequencies --   1108.4096              1173.7669              1182.3486
 Red. masses --      1.7868                 1.9552                 1.2969
 Frc consts  --      1.2934                 1.5871                 1.0681
 IR Inten    --      3.1389                26.5957                 0.0065

                     31                     32                     33
                      A                      A                      A
 Frequencies --   1259.6535              1290.0428              1412.1261
 Red. masses --      1.3042                 1.5713                14.1897
 Frc consts  --      1.2192                 1.5407                16.6714
 IR Inten    --      9.4237                 3.6453               277.5059

                     34                     35                     36
                      A                      A                      A
 Frequencies --   1421.2768              1474.6204              1479.9735
 Red. masses --     13.1282                 1.0885                 1.3382
 Frc consts  --     15.6247                 1.3946                 1.7270
 IR Inten    --     45.2490                 2.7740                 5.7890

                     37                     38                     39
                      A                      A                      A
 Frequencies --   1564.1890              1660.6056              1666.8053
 Red. masses --      4.6253                12.5389                11.0925
 Frc consts  --      6.6676                20.3724                18.1572
 IR Inten    --     15.0450               396.4937                50.6328

                     40                     41                     42
                      A                      A                      A
 Frequencies --   3150.0086              3151.2345              3232.9449
 Red. masses --      1.0506                 1.0585                 1.1206
 Frc consts  --      6.1422                 6.1931                 6.9007
 IR Inten    --      4.5789                 3.7656                 0.0753

                     43                     44                     45
                      A                      A                      A
 Frequencies --   3238.5077              3238.5546              3243.9832
 Red. masses --      1.0879                 1.0939                 1.1169
 Frc consts  --      6.7227                 6.7599                 6.9252
 IR Inten    --      6.4845                 0.1458                 3.6110

 - Thermochemistry -
 -------------------
 Temperature   298.150 Kelvin.  Pressure   1.00000 Atm.
 Atom     1 has atomic number  6 and mass  12.00000

 Molecular mass:   158.03276 amu.
 Principal axes and moments of inertia in atomic units:
                           1         2         3
     Eigenvalues --  1160.632042070.112342588.02187
           X            1.00000   0.00000   0.00138
           Y           -0.00000   1.00000  -0.00000
           Z           -0.00138   0.00000   1.00000
 This molecule is an asymmetric top.
 Rotational symmetry number  1.
 Warning -- assumption of classical behavior for rotation
           may cause significant error
 Rotational temperatures (Kelvin)      0.07463     0.04184     0.03347
 Rotational constants (GHZ):           1.55496     0.87181     0.69734
 Zero-point vibrational energy     317471.7 (Joules/Mol)
                                   75.87755 (Kcal/Mol)
 Warning -- explicit consideration of  12 degrees of freedom as
           vibrations may cause significant error
 Vibrational temperatures:     82.99    95.55   176.82   186.63   235.87
          (Kelvin)            266.76   424.96   439.19   593.60   619.26
                              758.96   854.09   975.38  1079.49  1113.01
                             1126.57  1130.27  1291.57  1319.74  1349.15
                             1377.98  1449.25  1456.12  1512.76  1569.42
                             1570.69  1587.35  1594.75  1688.79  1701.13
                             1812.36  1856.08  2031.73  2044.90  2121.65
                             2129.35  2250.52  2389.24  2398.16  4532.15
                             4533.92  4651.48  4659.48  4659.55  4667.36

 Zero-point correction=                           0.120919 (Hartree/Particle)
 Thermal correction to Energy=                    0.130691
 Thermal correction to Enthalpy=                  0.131635
 Thermal correction to Gibbs Free Energy=         0.084587
 Sum of electronic and zero-point Energies=           -604.155975
 Sum of electronic and thermal Energies=              -604.146202
 Sum of electronic and thermal Enthalpies=            -604.145258
 Sum of electronic and thermal Free Energies=         -604.192306

                     E (Thermal)             CV                S
                      KCal/Mol        Cal/Mol-Kelvin    Cal/Mol-Kelvin
 Total                   82.010             34.898             99.021
 Electronic               0.000              0.000              0.000
 Translational            0.889              2.981             41.082
 Rotational               0.889              2.981             30.209
 Vibrational             80.233             28.936             27.730
 Vibration     1          0.596              1.974              4.535
 Vibration     2          0.598              1.970              4.257
 Vibration     3          0.610              1.930              3.054
 Vibration     4          0.612              1.924              2.950
 Vibration     5          0.623              1.887              2.504
 Vibration     6          0.631              1.860              2.273
 Vibration     7          0.690              1.682              1.443
 Vibration     8          0.696              1.664              1.388
 Vibration     9          0.776              1.443              0.918
 Vibration    10          0.792              1.404              0.857
 Vibration    11          0.882              1.189              0.593
 Vibration    12          0.951              1.045              0.461

 Normal termination of Gaussian 09 at Fri Aug 20 15:49:32 2021.
