 Gaussian 09, Revision E.01,
 Gaussian 09:  ES64L-G09RevE.01 30-Nov-2015

 -------------------------
 #P OPT Freq B3LYP/6-31G**
 -------------------------

 --------
 ZZZLYS01
 --------
 Symbolic Z-matrix:
 Charge =  0 Multiplicity = 1

 SCF Done:  E(RB3LYP) =  -791.607650062     A.U. after   16 cycles
 SCF Done:  E(RB3LYP) =  -791.692645212     A.U. after   14 cycles
 SCF Done:  E(RB3LYP) =  -791.709824228     A.U. after   15 cycles
 SCF Done:  E(RB3LYP) =  -791.703426939     A.U. after   17 cycles
 SCF Done:  E(RB3LYP) =  -791.715201317     A.U. after   13 cycles
 SCF Done:  E(RB3LYP) =  -791.715717172     A.U. after   14 cycles
 SCF Done:  E(RB3LYP) =  -791.714359067     A.U. after   15 cycles
 SCF Done:  E(RB3LYP) =  -791.716237079     A.U. after   11 cycles
 SCF Done:  E(RB3LYP) =  -791.716627566     A.U. after   14 cycles
 SCF Done:  E(RB3LYP) =  -791.716884930     A.U. after   13 cycles
 SCF Done:  E(RB3LYP) =  -791.716908287     A.U. after   13 cycles
 SCF Done:  E(RB3LYP) =  -791.716919403     A.U. after   11 cycles
 SCF Done:  E(RB3LYP) =  -791.716921343     A.U. after    9 cycles
 SCF Done:  E(RB3LYP) =  -791.716921351     A.U. after    8 cycles
 Optimization completed.
    -- Stationary point found.
 Normal termination of Gaussian 09 at Fri Aug 20 15:36:44 2021.

 ----------------------------------------------------------------------
 #P Geom=AllCheck Guess=TCheck SCRF=Check GenChk RB3LYP/6-31G(d,p) Freq
 ----------------------------------------------------------------------

 Structure from the checkpoint file:  "/public/home/users/caep010/.cache/gau_scr/Gau-81715.chk"
 --------
 ZZZLYS01
 --------
 Charge =  0 Multiplicity = 1

                         Standard orientation:
 ---------------------------------------------------------------------
 Center     Atomic      Atomic             Coordinates (Angstroms)
 Number     Number       Type             X           Y           Z
 ---------------------------------------------------------------------
      1          6           0       -0.000012   -0.887908   -0.000003
      2          1           0       -0.000019   -1.970014    0.000005
      3          6           0        1.201447   -0.194916    0.000004
      4          6           0        1.218593    1.237565   -0.000096
      5          7           0        2.427628   -0.957979    0.000024
      6          8           0        2.373997   -2.180391    0.000058
      7          8           0        2.338792    1.949041   -0.000243
      8          1           0        3.086617    1.299640   -0.000612
      9          6           0        0.000017    1.916519    0.000001
     10          6           0       -1.218555    1.237575    0.000169
     11          6           0       -1.201436   -0.194891    0.000074
     12          8           0       -2.338747    1.949064    0.000589
     13          8           0        3.510056   -0.324996    0.000023
     14          1           0        0.000013    2.999402    0.000024
     15          7           0       -2.427670   -0.957934   -0.000205
     16          8           0       -2.374036   -2.180346    0.000553
     17          8           0       -3.510078   -0.324981   -0.001025
     18          1           0       -3.086509    1.299564    0.001314
 ---------------------------------------------------------------------

 SCF Done:  E(RB3LYP) =  -791.716921351     A.U. after    1 cycles

 The electronic state is 1-A.
 Alpha  occ. eigenvalues --  -19.21722 -19.21722 -19.21442 -19.21441 -19.21328
 Alpha  occ. eigenvalues --  -19.21328 -14.60574 -14.60573 -10.32151 -10.32150
 Alpha  occ. eigenvalues --  -10.28365 -10.28364 -10.26377 -10.22922  -1.25537
 Alpha  occ. eigenvalues --   -1.25524  -1.11496  -1.11297  -1.07777  -1.07730
 Alpha  occ. eigenvalues --   -0.92554  -0.85919  -0.82715  -0.75049  -0.72252
 Alpha  occ. eigenvalues --   -0.66235  -0.65151  -0.60873  -0.59013  -0.58129
 Alpha  occ. eigenvalues --   -0.56566  -0.56162  -0.55593  -0.53723  -0.52420
 Alpha  occ. eigenvalues --   -0.49297  -0.49242  -0.47065  -0.46807  -0.43505
 Alpha  occ. eigenvalues --   -0.41641  -0.40599  -0.37442  -0.34351  -0.34153
 Alpha  occ. eigenvalues --   -0.34046  -0.33659  -0.32594  -0.32456  -0.28327
 Alpha  occ. eigenvalues --   -0.28222
 Alpha virt. eigenvalues --   -0.12322  -0.10854  -0.03178  -0.00740   0.06114
 Alpha virt. eigenvalues --    0.10124   0.10942   0.12826   0.13234   0.14738
 Alpha virt. eigenvalues --    0.17287   0.20241   0.22300   0.24191   0.25388

 Mulliken charges:
               1
     1  C   -0.122080
     2  H    0.189039
     3  C    0.224351
     4  C    0.355017
     5  N    0.393268
     6  O   -0.378547
     7  O   -0.535962
     8  H    0.364682
     9  C   -0.153673
    10  C    0.355006
    11  C    0.224344
    12  O   -0.535966
    13  O   -0.449308
    14  H    0.139693
    15  N    0.393287
    16  O   -0.378539
    17  O   -0.449298
    18  H    0.364686
 Sum of Mulliken charges =  -0.00000

 Dipole moment (field-independent basis, Debye):
    X=             -0.0001    Y=              2.0151    Z=              0.0009  Tot=              2.0151
 Quadrupole moment (field-independent basis, Debye-Ang):
   XX=            -90.0716   YY=            -84.9081   ZZ=            -75.1120
   XY=              0.0010   XZ=             -0.0105   YZ=              0.0025

  Exact polarizability: 161.238  -0.001 118.887  -0.001  -0.004  35.608
 Approx polarizability: 296.089  -0.001 239.770   0.006  -0.022  56.282

                      1                      2                      3
                      A                      A                      A
 Frequencies --     64.5898                83.2129               111.3457
 Red. masses --     12.7838                13.7201                13.9529
 Frc consts  --      0.0314                 0.0560                 0.1019
 IR Inten    --      0.0000                 0.0119                 0.0000

                      4                      5                      6
                      A                      A                      A
 Frequencies --    143.4836               191.7852               242.2484
 Red. masses --      9.0248                14.2615                 6.0224
 Frc consts  --      0.1095                 0.3091                 0.2082
 IR Inten    --      6.5968                 5.0728                 0.8246

                      7                      8                      9
                      A                      A                      A
 Frequencies --    315.0904               337.9293               352.2271
 Red. masses --      8.0170                12.3197                11.1200
 Frc consts  --      0.4690                 0.8289                 0.8128
 IR Inten    --      2.1175                 0.0000                 5.9556

                     10                     11                     12
                      A                      A                      A
 Frequencies --    367.5274               385.9307               445.9873
 Red. masses --      6.2198                11.5822                10.3124
 Frc consts  --      0.4950                 1.0164                 1.2085
 IR Inten    --     14.9791                 1.1956                 0.5629

                     13                     14                     15
                      A                      A                      A
 Frequencies --    453.6882               511.4638               619.0415
 Red. masses --      3.2571                12.8089                 8.2719
 Frc consts  --      0.3950                 1.9742                 1.8676
 IR Inten    --      2.2148                 0.1025                13.0401

                     16                     17                     18
                      A                      A                      A
 Frequencies --    640.7101               649.6788               666.3336
 Red. masses --      4.6582                 4.1352                12.0118
 Frc consts  --      1.1267                 1.0284                 3.1423
 IR Inten    --     10.2662                 1.6155                 0.0000

                     19                     20                     21
                      A                      A                      A
 Frequencies --    732.0102               737.1713               757.8008
 Red. masses --      7.5832                10.5004                13.6150
 Frc consts  --      2.3941                 3.3619                 4.6066
 IR Inten    --     30.9671                26.7528                 0.0000

                     22                     23                     24
                      A                      A                      A
 Frequencies --    765.8291               798.7923               803.5627
 Red. masses --      7.5955                 1.1221                 1.0561
 Frc consts  --      2.6246                 0.4218                 0.4018
 IR Inten    --      0.1334               223.4751                 0.0376

                     25                     26                     27
                      A                      A                      A
 Frequencies --    843.5002               855.3974               885.3674
 Red. masses --     13.4976                 1.3323                 5.0313
 Frc consts  --      5.6582                 0.5744                 2.3237
 IR Inten    --     16.9395                 2.8145                 0.5053

                     28                     29                     30
                      A                      A                      A
 Frequencies --    965.5667              1073.9720              1160.0060
 Red. masses --      1.3545                 2.4632                 7.2853
 Frc consts  --      0.7440                 1.6739                 5.7759
 IR Inten    --     16.9354               101.7728                32.1131

                     31                     32                     33
                      A                      A                      A
 Frequencies --   1213.3535              1259.0427              1272.7776
 Red. masses --      1.2264                 3.4269                 2.5919
 Frc consts  --      1.0638                 3.2006                 2.4738
 IR Inten    --    145.9898                 6.9178                 1.0910

                     34                     35                     36
                      A                      A                      A
 Frequencies --   1326.6838              1358.2370              1371.1622
 Red. masses --      3.4784                10.3066                 3.7634
 Frc consts  --      3.6071                11.2026                 4.1688
 IR Inten    --    793.3830                70.7805               115.9559

                     37                     38                     39
                      A                      A                      A
 Frequencies --   1410.1119              1477.2465              1527.5247
 Red. masses --      3.6380                 2.6181                 3.2542
 Frc consts  --      4.2620                 3.3662                 4.4738
 IR Inten    --    369.9298                 1.5867               190.0932

                     40                     41                     42
                      A                      A                      A
 Frequencies --   1535.1930              1592.1569              1623.0767
 Red. masses --     10.8667                 9.0532                 4.5081
 Frc consts  --     15.0895                13.5215                 6.9972
 IR Inten    --     55.1557               127.5080               407.8500

                     43                     44                     45
                      A                      A                      A
 Frequencies --   1655.6422              1707.6325              3241.3489
 Red. masses --      5.0949                 6.8401                 1.0921
 Frc consts  --      8.2285                11.7518                 6.7600
 IR Inten    --    135.3736               402.3983                 2.4314

                     46                     47                     48
                      A                      A                      A
 Frequencies --   3259.8146              3359.7309              3363.3435
 Red. masses --      1.0911                 1.0660                 1.0665
 Frc consts  --      6.8312                 7.0897                 7.1082
 IR Inten    --     18.9665               442.7491               252.9724

 - Thermochemistry -
 -------------------
 Temperature   298.150 Kelvin.  Pressure   1.00000 Atm.
 Atom     1 has atomic number  6 and mass  12.00000

 Molecular mass:   200.00694 amu.
 Principal axes and moments of inertia in atomic units:
                           1         2         3
     Eigenvalues --  1464.875273585.146345050.02138
           X            1.00000   0.00000  -0.00001
           Y           -0.00000   1.00000   0.00000
           Z            0.00001  -0.00000   1.00000
 This molecule is an asymmetric top.
 Rotational symmetry number  1.
 Warning -- assumption of classical behavior for rotation
           may cause significant error
 Rotational temperatures (Kelvin)      0.05913     0.02416     0.01715
 Rotational constants (GHZ):           1.23201     0.50339     0.35737
 Zero-point vibrational energy     302148.8 (Joules/Mol)
                                   72.21529 (Kcal/Mol)
 Warning -- explicit consideration of  15 degrees of freedom as
           vibrations may cause significant error
 Vibrational temperatures:     92.93   119.72   160.20   206.44   275.94
          (Kelvin)            348.54   453.34   486.20   506.78   528.79
                              555.27   641.68   652.76   735.88   890.66
                              921.84   934.74   958.70  1053.20  1060.62
                             1090.30  1101.86  1149.28  1156.15  1213.61
                             1230.72  1273.84  1389.23  1545.20  1668.99
                             1745.74  1811.48  1831.24  1908.80  1954.20
                             1972.79  2028.83  2125.43  2197.76  2208.80
                             2290.76  2335.24  2382.10  2456.90  4663.57
                             4690.14  4833.90  4839.10

 Zero-point correction=                           0.115082 (Hartree/Particle)
 Thermal correction to Energy=                    0.125934
 Thermal correction to Enthalpy=                  0.126878
 Thermal correction to Gibbs Free Energy=         0.077696
 Sum of electronic and zero-point Energies=           -791.601839
 Sum of electronic and thermal Energies=              -791.590987
 Sum of electronic and thermal Enthalpies=            -791.590043
 Sum of electronic and thermal Free Energies=         -791.639226

                     E (Thermal)             CV                S
                      KCal/Mol        Cal/Mol-Kelvin    Cal/Mol-Kelvin
 Total                   79.025             41.210            103.514
 Electronic               0.000              0.000              0.000
 Translational            0.889              2.981             41.784
 Rotational               0.889              2.981             31.651
 Vibrational             77.247             35.249             30.079
 Vibration     1          0.597              1.971              4.312
 Vibration     2          0.600              1.961              3.814
 Vibration     3          0.607              1.940              3.245
 Vibration     4          0.616              1.910              2.757
 Vibration     5          0.634              1.851              2.211
 Vibration     6          0.658              1.776              1.786
 Vibration     7          0.702              1.645              1.335
 Vibration     8          0.718              1.600              1.222
 Vibration     9          0.729              1.571              1.156
 Vibration    10          0.740              1.539              1.090
 Vibration    11          0.755              1.500              1.016
 Vibration    12          0.805              1.370              0.808
 Vibration    13          0.812              1.353              0.785
 Vibration    14          0.867              1.225              0.630
 Vibration    15          0.979              0.992              0.418

 Optimization completed.
    -- Stationary point found.
 Normal termination of Gaussian 09 at Fri Aug 20 15:37:16 2021.
