 Gaussian 09, Revision E.01,
 Gaussian 09:  ES64L-G09RevE.01 30-Nov-2015

 -------------------------
 #P OPT Freq B3LYP/6-31G**
 -------------------------

 --------
 ECIBIB01
 --------
 Symbolic Z-matrix:
 Charge =  0 Multiplicity = 1

 SCF Done:  E(RB3LYP) =  -531.209579987     A.U. after   16 cycles
 SCF Done:  E(RB3LYP) =  -531.327560569     A.U. after   13 cycles
 SCF Done:  E(RB3LYP) =  -531.399670004     A.U. after   14 cycles
 SCF Done:  E(RB3LYP) =  -531.401796035     A.U. after   12 cycles
 SCF Done:  E(RB3LYP) =  -531.400978614     A.U. after   12 cycles
 SCF Done:  E(RB3LYP) =  -531.401914968     A.U. after    9 cycles
 SCF Done:  E(RB3LYP) =  -531.402115275     A.U. after   12 cycles
 SCF Done:  E(RB3LYP) =  -531.402169253     A.U. after   11 cycles
 SCF Done:  E(RB3LYP) =  -531.402222563     A.U. after   12 cycles
 SCF Done:  E(RB3LYP) =  -531.402239408     A.U. after   10 cycles
 SCF Done:  E(RB3LYP) =  -531.402389316     A.U. after   14 cycles
 SCF Done:  E(RB3LYP) =  -531.402493603     A.U. after   15 cycles
 SCF Done:  E(RB3LYP) =  -531.402690382     A.U. after   13 cycles
 SCF Done:  E(RB3LYP) =  -531.402884106     A.U. after   14 cycles
 SCF Done:  E(RB3LYP) =  -531.402868544     A.U. after   14 cycles
 SCF Done:  E(RB3LYP) =  -531.402941603     A.U. after   13 cycles
 SCF Done:  E(RB3LYP) =  -531.402956493     A.U. after   11 cycles
 SCF Done:  E(RB3LYP) =  -531.402956995     A.U. after    9 cycles
 SCF Done:  E(RB3LYP) =  -531.402957195     A.U. after    8 cycles
 Optimization completed.
    -- Stationary point found.
 Normal termination of Gaussian 09 at Fri Aug 20 15:55:26 2021.

 ----------------------------------------------------------------------
 #P Geom=AllCheck Guess=TCheck SCRF=Check GenChk RB3LYP/6-31G(d,p) Freq
 ----------------------------------------------------------------------

 Structure from the checkpoint file:  "/public/home/users/caep010/.cache/gau_scr/Gau-122509.chk"
 --------
 ECIBIB01
 --------
 Charge =  0 Multiplicity = 1

                         Standard orientation:
 ---------------------------------------------------------------------
 Center     Atomic      Atomic             Coordinates (Angstroms)
 Number     Number       Type             X           Y           Z
 ---------------------------------------------------------------------
      1          6           0       -0.344405    0.157786    0.149293
      2          6           0       -0.969094   -0.986920    0.656994
      3          1           0       -0.374028   -1.746697    1.148275
      4          6           0       -2.345341   -1.141197    0.513110
      5          1           0       -2.825488   -2.033120    0.903797
      6          6           0       -3.107378   -0.153834   -0.116157
      7          1           0       -4.181246   -0.276437   -0.218184
      8          6           0       -2.483172    0.990298   -0.611904
      9          7           0        1.060445    0.356034    0.332742
     10          1           0       -3.066257    1.761627   -1.105752
     11          6           0       -1.102215    1.145754   -0.488334
     12          1           0       -0.615736    2.028594   -0.890413
     13          6           0        1.620012    1.660506    0.674808
     14          1           0        2.496435    1.524647    1.308375
     15          1           0        1.919688    2.231873   -0.210853
     16          1           0        0.852445    2.204584    1.224458
     17          7           0        1.951511   -0.542849   -0.247221
     18          8           0        3.133247   -0.196007   -0.262320
     19          8           0        1.504259   -1.606708   -0.665832
 ---------------------------------------------------------------------

 SCF Done:  E(RB3LYP) =  -531.402957195     A.U. after    1 cycles

 The electronic state is 1-A.
 Alpha  occ. eigenvalues --  -19.17206 -19.17043 -14.59296 -14.41819 -10.24759
 Alpha  occ. eigenvalues --  -10.23883 -10.20887 -10.20572 -10.20430 -10.20368
 Alpha  occ. eigenvalues --  -10.20317  -1.23381  -1.05189  -0.98118  -0.86472
 Alpha  occ. eigenvalues --   -0.76827  -0.76365  -0.74789  -0.66057  -0.62318
 Alpha  occ. eigenvalues --   -0.58189  -0.55570  -0.54576  -0.53325  -0.51040
 Alpha  occ. eigenvalues --   -0.47646  -0.46634  -0.45470  -0.44244  -0.43492
 Alpha  occ. eigenvalues --   -0.42294  -0.38316  -0.37492  -0.36291  -0.31775
 Alpha  occ. eigenvalues --   -0.30628  -0.29848  -0.28477  -0.26406  -0.24356
 Alpha virt. eigenvalues --   -0.04672  -0.01467  -0.01268   0.07689   0.10362
 Alpha virt. eigenvalues --    0.11244   0.13372   0.13664   0.14177   0.15586
 Alpha virt. eigenvalues --    0.15968   0.17782   0.18445   0.20366   0.24243

 Mulliken charges:
               1
     1  C    0.261582
     2  C   -0.051059
     3  H    0.110350
     4  C   -0.100721
     5  H    0.097583
     6  C   -0.075134
     7  H    0.093560
     8  C   -0.097631
     9  N   -0.392028
    10  H    0.095329
    11  C   -0.089216
    12  H    0.095899
    13  C   -0.166384
    14  H    0.156193
    15  H    0.135570
    16  H    0.131816
    17  N    0.640310
    18  O   -0.423054
    19  O   -0.422966
 Sum of Mulliken charges =  -0.00000

 Dipole moment (field-independent basis, Debye):
    X=             -3.0777    Y=              2.8460    Z=              1.3902  Tot=              4.4164
 Quadrupole moment (field-independent basis, Debye-Ang):
   XX=            -65.9855   YY=            -59.6031   ZZ=            -63.1247
   XY=              5.5613   XZ=              3.6330   YZ=             -3.7384

  Exact polarizability: 130.470   4.407  92.371   3.749 -10.613  53.518
 Approx polarizability: 204.665  10.889 161.462   7.405 -19.457  86.437

                      1                      2                      3
                      A                      A                      A
 Frequencies --     48.9298                76.1400               119.6363
 Red. masses --      4.5009                 6.2388                 5.3732
 Frc consts  --      0.0063                 0.0213                 0.0453
 IR Inten    --      1.5902                 1.1180                 3.0802

                      4                      5                      6
                      A                      A                      A
 Frequencies --    157.6674               191.3968               283.3289
 Red. masses --      2.6050                 1.3363                 5.0538
 Frc consts  --      0.0382                 0.0288                 0.2390
 IR Inten    --      1.4778                 1.2116                 3.2430

                      7                      8                      9
                      A                      A                      A
 Frequencies --    346.5466               385.8895               418.3772
 Red. masses --      3.4864                 5.2563                 3.3806
 Frc consts  --      0.2467                 0.4612                 0.3486
 IR Inten    --      2.9650                 1.2271                 0.7014

                     10                     11                     12
                      A                      A                      A
 Frequencies --    420.2993               519.5097               629.8334
 Red. masses --      4.3153                 3.7857                 5.7870
 Frc consts  --      0.4491                 0.6020                 1.3525
 IR Inten    --      0.3060                 2.5042                 5.7038

                     13                     14                     15
                      A                      A                      A
 Frequencies --    633.5520               670.3099               707.9635
 Red. masses --      5.8401                 6.5113                 1.9032
 Frc consts  --      1.3811                 1.7237                 0.5620
 IR Inten    --     13.2246                 5.4828                27.5402

                     16                     17                     18
                      A                      A                      A
 Frequencies --    760.5087               782.2044               809.7590
 Red. masses --      8.4228                 2.0216                 6.1274
 Frc consts  --      2.8702                 0.7287                 2.3672
 IR Inten    --      7.9731                35.3821                 3.3760

                     19                     20                     21
                      A                      A                      A
 Frequencies --    847.5855               926.7345               960.3470
 Red. masses --      1.2503                 1.4168                 3.4536
 Frc consts  --      0.5292                 0.7169                 1.8766
 IR Inten    --      0.8390                 2.0322                64.5522

                     22                     23                     24
                      A                      A                      A
 Frequencies --    971.8939               998.3946              1018.6125
 Red. masses --      1.3784                 1.2646                 6.1010
 Frc consts  --      0.7671                 0.7427                 3.7297
 IR Inten    --      2.6239                 0.0403                 0.8251

                     25                     26                     27
                      A                      A                      A
 Frequencies --   1053.7952              1108.3311              1125.0747
 Red. masses --      2.2663                 1.6576                 2.3350
 Frc consts  --      1.4828                 1.1997                 1.7414
 IR Inten    --     10.5003                 6.3756                55.0784

                     28                     29                     30
                      A                      A                      A
 Frequencies --   1144.8337              1188.3779              1193.7965
 Red. masses --      1.3957                 1.1852                 2.0188
 Frc consts  --      1.0778                 0.9862                 1.6952
 IR Inten    --     11.2744                 3.1397                19.9196

                     31                     32                     33
                      A                      A                      A
 Frequencies --   1206.7586              1328.1139              1342.6204
 Red. masses --      1.1495                 6.1529                 2.2744
 Frc consts  --      0.9863                 6.3944                 2.4156
 IR Inten    --      0.5552               320.4133                20.6391

                     34                     35                     36
                      A                      A                      A
 Frequencies --   1357.5640              1363.6826              1465.6359
 Red. masses --      5.4107                 2.1646                 1.2202
 Frc consts  --      5.8752                 2.3717                 1.5443
 IR Inten    --     55.5647                27.6658                45.7789

                     37                     38                     39
                      A                      A                      A
 Frequencies --   1491.6866              1496.5329              1521.4752
 Red. masses --      1.2040                 1.8156                 1.0725
 Frc consts  --      1.5785                 2.3957                 1.4628
 IR Inten    --      9.8902                10.7040                10.2886

                     40                     41                     42
                      A                      A                      A
 Frequencies --   1541.0256              1642.0032              1655.3316
 Red. masses --      2.2899                 5.9832                 6.1256
 Frc consts  --      3.2040                 9.5046                 9.8893
 IR Inten    --     23.3772                19.0875                19.3167

                     43                     44                     45
                      A                      A                      A
 Frequencies --   1662.8115              3052.1285              3138.9458
 Red. masses --     10.4503                 1.0428                 1.0930
 Frc consts  --     17.0241                 5.7234                 6.3453
 IR Inten    --    252.0061                22.9765                10.8350

                     46                     47                     48
                      A                      A                      A
 Frequencies --   3178.7577              3186.5463              3195.8072
 Red. masses --      1.1058                 1.0854                 1.0892
 Frc consts  --      6.5830                 6.4937                 6.5544
 IR Inten    --      6.0668                 0.2807                 6.9165

                     49                     50                     51
                      A                      A                      A
 Frequencies --   3205.2121              3213.0942              3235.1014
 Red. masses --      1.0931                 1.0975                 1.0942
 Frc consts  --      6.6165                 6.6756                 6.7472
 IR Inten    --     21.6309                11.8538                 1.7479

 - Thermochemistry -
 -------------------
 Temperature   298.150 Kelvin.  Pressure   1.00000 Atm.
 Atom     1 has atomic number  6 and mass  12.00000

 Molecular mass:   152.05858 amu.
 Principal axes and moments of inertia in atomic units:
                           1         2         3
     Eigenvalues --   722.529762367.401082807.56411
           X            0.99969   0.02324   0.00920
           Y           -0.02300   0.99942  -0.02516
           Z           -0.00978   0.02494   0.99964
 This molecule is an asymmetric top.
 Rotational symmetry number  1.
 Warning -- assumption of classical behavior for rotation
           may cause significant error
 Rotational temperatures (Kelvin)      0.11988     0.03659     0.03085
 Rotational constants (GHZ):           2.49781     0.76233     0.64281
 Zero-point vibrational energy     388669.5 (Joules/Mol)
                                   92.89424 (Kcal/Mol)
 Warning -- explicit consideration of  11 degrees of freedom as
           vibrations may cause significant error
 Vibrational temperatures:     70.40   109.55   172.13   226.85   275.38
          (Kelvin)            407.65   498.60   555.21   601.95   604.72
                              747.46   906.19   911.54   964.43  1018.60
                             1094.20  1125.42  1165.06  1219.49  1333.36
                             1381.72  1398.34  1436.47  1465.55  1516.17
                             1594.64  1618.73  1647.16  1709.81  1717.60
                             1736.25  1910.86  1931.73  1953.23  1962.03
                             2108.72  2146.20  2153.17  2189.06  2217.19
                             2362.47  2381.65  2392.41  4391.33  4516.24
                             4573.52  4584.72  4598.05  4611.58  4622.92
                             4654.58

 Zero-point correction=                           0.148036 (Hartree/Particle)
 Thermal correction to Energy=                    0.157570
 Thermal correction to Enthalpy=                  0.158514
 Thermal correction to Gibbs Free Energy=         0.112376
 Sum of electronic and zero-point Energies=           -531.254921
 Sum of electronic and thermal Energies=              -531.245387
 Sum of electronic and thermal Enthalpies=            -531.244443
 Sum of electronic and thermal Free Energies=         -531.290581

                     E (Thermal)             CV                S
                      KCal/Mol        Cal/Mol-Kelvin    Cal/Mol-Kelvin
 Total                   98.877             35.435             97.106
 Electronic               0.000              0.000              0.000
 Translational            0.889              2.981             40.967
 Rotational               0.889              2.981             29.953
 Vibrational             97.099             29.473             26.186
 Vibration     1          0.595              1.978              4.860
 Vibration     2          0.599              1.965              3.988
 Vibration     3          0.609              1.933              3.106
 Vibration     4          0.621              1.894              2.578
 Vibration     5          0.634              1.852              2.214
 Vibration     6          0.682              1.705              1.513
 Vibration     7          0.725              1.582              1.182
 Vibration     8          0.755              1.500              1.016
 Vibration     9          0.781              1.430              0.898
 Vibration    10          0.783              1.426              0.891
 Vibration    11          0.874              1.207              0.611

 Optimization completed.
    -- Stationary point found.
 Normal termination of Gaussian 09 at Fri Aug 20 15:55:52 2021.
