 Gaussian 09, Revision E.01,
 Gaussian 09:  ES64L-G09RevE.01 30-Nov-2015

 -------------------------
 #P OPT Freq B3LYP/6-31G**
 -------------------------

 ------
 HAWSOO
 ------
 Symbolic Z-matrix:
 Charge =  0 Multiplicity = 1

 SCF Done:  E(RB3LYP) =  -719.744023310     A.U. after   16 cycles
 SCF Done:  E(RB3LYP) =  -719.832804290     A.U. after   14 cycles
 SCF Done:  E(RB3LYP) =  -719.866915371     A.U. after   16 cycles
 SCF Done:  E(RB3LYP) =  -719.858073097     A.U. after   18 cycles
 SCF Done:  E(RB3LYP) =  -719.874093803     A.U. after   13 cycles
 SCF Done:  E(RB3LYP) =  -719.870282112     A.U. after   15 cycles
 SCF Done:  E(RB3LYP) =  -719.874684728     A.U. after   12 cycles
 SCF Done:  E(RB3LYP) =  -719.871142038     A.U. after   16 cycles
 SCF Done:  E(RB3LYP) =  -719.875330663     A.U. after   11 cycles
 SCF Done:  E(RB3LYP) =  -719.875411165     A.U. after   14 cycles
 SCF Done:  E(RB3LYP) =  -719.875487180     A.U. after   13 cycles
 SCF Done:  E(RB3LYP) =  -719.875496818     A.U. after   10 cycles
 SCF Done:  E(RB3LYP) =  -719.875497650     A.U. after   10 cycles
 SCF Done:  E(RB3LYP) =  -719.875498097     A.U. after    9 cycles
 SCF Done:  E(RB3LYP) =  -719.875498194     A.U. after    8 cycles
 SCF Done:  E(RB3LYP) =  -719.875498216     A.U. after    7 cycles
 Optimization completed.
    -- Stationary point found.
 Normal termination of Gaussian 09 at Fri Aug 20 15:46:02 2021.

 ----------------------------------------------------------------------
 #P Geom=AllCheck Guess=TCheck SCRF=Check GenChk RB3LYP/6-31G(d,p) Freq
 ----------------------------------------------------------------------

 Structure from the checkpoint file:  "/public/home/users/caep010/.cache/gau_scr/Gau-172006.chk"
 ------
 HAWSOO
 ------
 Charge =  0 Multiplicity = 1

                         Standard orientation:
 ---------------------------------------------------------------------
 Center     Atomic      Atomic             Coordinates (Angstroms)
 Number     Number       Type             X           Y           Z
 ---------------------------------------------------------------------
      1          8           0        2.352759   -1.438223    0.662999
      2          7           0        1.416852   -1.257916   -0.109783
      3          8           0        1.047359   -2.036073   -0.983830
      4          6           0        0.699638    0.028582   -0.014284
      5          6           0        1.437850    1.216931   -0.037872
      6          6           0        2.945325    1.258111   -0.091984
      7          6           0       -0.699695    0.028429    0.014325
      8          7           0       -1.416573   -1.258252    0.109782
      9          8           0       -1.046302   -2.036725    0.983221
     10          8           0       -2.352946   -1.438464   -0.662469
     11          6           0       -1.438152    1.216629    0.037897
     12          6           0       -0.694684    2.404554    0.022025
     13          1           0       -1.227343    3.350366    0.046810
     14          6           0        0.694144    2.404704   -0.021982
     15          1           0        3.378747    0.968615    0.868955
     16          1           0        3.280609    2.268233   -0.337321
     17          1           0        3.349462    0.571665   -0.841007
     18          1           0        1.226602    3.350631   -0.046770
     19          6           0       -2.945634    1.257549    0.091980
     20          1           0       -3.378997    0.967800   -0.868909
     21          1           0       -3.281089    2.267658    0.337139
     22          1           0       -3.349656    0.571151    0.841105
 ---------------------------------------------------------------------

 SCF Done:  E(RB3LYP) =  -719.875498216     A.U. after    1 cycles

 The electronic state is 1-A.
 Alpha  occ. eigenvalues --  -19.19716 -19.19716 -19.19627 -19.19627 -14.58639
 Alpha  occ. eigenvalues --  -14.58639 -10.27917 -10.27864 -10.24803 -10.24802
 Alpha  occ. eigenvalues --  -10.23127 -10.23070 -10.20929 -10.20928  -1.24367
 Alpha  occ. eigenvalues --   -1.23719  -1.06968  -1.06709  -0.92278  -0.84180
 Alpha  occ. eigenvalues --   -0.83176  -0.76231  -0.75353  -0.69413  -0.68421
 Alpha  occ. eigenvalues --   -0.61324  -0.61175  -0.56648  -0.55511  -0.55254
 Alpha  occ. eigenvalues --   -0.53308  -0.52377  -0.51929  -0.50018  -0.48779
 Alpha  occ. eigenvalues --   -0.45241  -0.44223  -0.43935  -0.42846  -0.41026
 Alpha  occ. eigenvalues --   -0.40275  -0.39018  -0.38612  -0.32716  -0.32422
 Alpha  occ. eigenvalues --   -0.31872  -0.31648  -0.31273  -0.31189  -0.28110
 Alpha  occ. eigenvalues --   -0.27646
 Alpha virt. eigenvalues --   -0.09836  -0.08378  -0.03589  -0.02658   0.06291
 Alpha virt. eigenvalues --    0.08796   0.10096   0.10481   0.11977   0.13099
 Alpha virt. eigenvalues --    0.15565   0.16288   0.16582   0.17543   0.18641

 Mulliken charges:
               1
     1  O   -0.362755
     2  N    0.340430
     3  O   -0.365270
     4  C    0.228323
     5  C    0.122832
     6  C   -0.370460
     7  C    0.228388
     8  N    0.340411
     9  O   -0.365280
    10  O   -0.362782
    11  C    0.122811
    12  C   -0.115433
    13  H    0.105658
    14  C   -0.115427
    15  H    0.161845
    16  H    0.115148
    17  H    0.139677
    18  H    0.105660
    19  C   -0.370426
    20  H    0.161847
    21  H    0.115131
    22  H    0.139673
 Sum of Mulliken charges =  -0.00000

 Dipole moment (field-independent basis, Debye):
    X=             -0.0007    Y=              6.6659    Z=              0.0001  Tot=              6.6659
 Quadrupole moment (field-independent basis, Debye-Ang):
   XX=            -75.8717   YY=            -80.7263   ZZ=            -82.2939
   XY=              0.0019   XZ=             -2.8209   YZ=             -0.0002

  Exact polarizability: 139.406  -0.001 126.592   7.642   0.000  65.032
 Approx polarizability: 225.237  -0.008 211.249  38.122   0.000 131.448

                      1                      2                      3
                      A                      A                      A
 Frequencies --     35.8944                69.7000               106.3506
 Red. masses --     13.7025                 5.8591                 7.8512
 Frc consts  --      0.0104                 0.0168                 0.0523
 IR Inten    --      0.0829                 0.1566                 0.1767

                      4                      5                      6
                      A                      A                      A
 Frequencies --    126.9177               153.2434               156.2278
 Red. masses --      2.4067                 1.0868                 1.1650
 Frc consts  --      0.0228                 0.0150                 0.0168
 IR Inten    --      1.3249                 0.3193                 0.0940

                      7                      8                      9
                      A                      A                      A
 Frequencies --    176.0847               185.5958               240.1838
 Red. masses --      5.8713                14.7705                 5.0818
 Frc consts  --      0.1073                 0.2998                 0.1727
 IR Inten    --      0.2912                 0.8638                 4.1808

                     10                     11                     12
                      A                      A                      A
 Frequencies --    289.8549               308.3436               323.4914
 Red. masses --      3.8150                 3.2992                10.9799
 Frc consts  --      0.1888                 0.1848                 0.6770
 IR Inten    --      0.0041                 4.9834                 3.3457

                     13                     14                     15
                      A                      A                      A
 Frequencies --    370.0978               416.7452               428.6940
 Red. masses --      6.1277                 3.8527                 5.7312
 Frc consts  --      0.4945                 0.3942                 0.6206
 IR Inten    --      0.0060                 0.6197                 0.5843

                     16                     17                     18
                      A                      A                      A
 Frequencies --    491.0441               500.7566               575.7325
 Red. masses --      5.1292                 3.5883                 4.6659
 Frc consts  --      0.7287                 0.5301                 0.9112
 IR Inten    --      3.5140                 6.1892                 2.0744

                     19                     20                     21
                      A                      A                      A
 Frequencies --    629.5209               701.6078               714.9824
 Red. masses --      5.1859                 7.4502                 6.3137
 Frc consts  --      1.2109                 2.1608                 1.9016
 IR Inten    --      1.4172                 0.2288                 1.8964

                     22                     23                     24
                      A                      A                      A
 Frequencies --    736.4446               793.0349               806.2090
 Red. masses --      8.8399                 9.0121                 8.1176
 Frc consts  --      2.8247                 3.3393                 3.1086
 IR Inten    --     21.9576                 1.5822                 8.9287

                     25                     26                     27
                      A                      A                      A
 Frequencies --    818.3750               838.3861               927.0310
 Red. masses --     10.7675                 1.2577                 6.9502
 Frc consts  --      4.2488                 0.5208                 3.5191
 IR Inten    --     49.7616                14.8501                 5.0927

                     28                     29                     30
                      A                      A                      A
 Frequencies --    952.7508               975.8973              1049.1640
 Red. masses --      3.0390                 1.3161                 1.8845
 Frc consts  --      1.6253                 0.7385                 1.2222
 IR Inten    --     10.9234                 0.1107                 0.1039

                     31                     32                     33
                      A                      A                      A
 Frequencies --   1053.2797              1062.4803              1068.1387
 Red. masses --      1.4531                 1.5028                 1.5191
 Frc consts  --      0.9498                 0.9995                 1.0212
 IR Inten    --      2.0277                 0.5963                 5.9901

                     34                     35                     36
                      A                      A                      A
 Frequencies --   1168.1928              1199.5127              1256.1070
 Red. masses --      5.8010                 1.3512                 5.3016
 Frc consts  --      4.6642                 1.1455                 4.9285
 IR Inten    --      1.6408                 2.8613                 6.1607

                     37                     38                     39
                      A                      A                      A
 Frequencies --   1288.2005              1341.0842              1406.7430
 Red. masses --      1.7301                 7.1491                14.1909
 Frc consts  --      1.6916                 7.5755                16.5459
 IR Inten    --      0.5938                12.6165                96.1075

                     40                     41                     42
                      A                      A                      A
 Frequencies --   1418.0780              1431.8782              1432.4730
 Red. masses --      6.6492                 1.8228                 1.2236
 Frc consts  --      7.8781                 2.2019                 1.4793
 IR Inten    --    172.6853                 5.1051                 3.3641

                     43                     44                     45
                      A                      A                      A
 Frequencies --   1436.0347              1489.2828              1497.0003
 Red. masses --      2.0373                 1.1071                 1.0570
 Frc consts  --      2.4753                 1.4467                 1.3956
 IR Inten    --     50.9311                 8.8651                 3.1256

                     46                     47                     48
                      A                      A                      A
 Frequencies --   1501.0462              1508.7133              1523.6698
 Red. masses --      1.0605                 1.1283                 3.2938
 Frc consts  --      1.4078                 1.5132                 4.5054
 IR Inten    --      7.4349                29.5498                12.0992

                     49                     50                     51
                      A                      A                      A
 Frequencies --   1606.2157              1648.2426              1655.5158
 Red. masses --      5.3927                10.5115                12.9007
 Frc consts  --      8.1972                16.8251                20.8319
 IR Inten    --     20.5730                27.1575               414.6263

                     52                     53                     54
                      A                      A                      A
 Frequencies --   1676.0840              3063.9374              3063.9826
 Red. masses --      9.0856                 1.0357                 1.0357
 Frc consts  --     15.0382                 5.7285                 5.7288
 IR Inten    --      6.6109                 2.8129                19.7055

                     55                     56                     57
                      A                      A                      A
 Frequencies --   3131.6894              3131.7342              3144.4611
 Red. masses --      1.1012                 1.1012                 1.1040
 Frc consts  --      6.3632                 6.3633                 6.4317
 IR Inten    --      3.0314                 7.8399                 3.8313

                     58                     59                     60
                      A                      A                      A
 Frequencies --   3144.5003              3191.8499              3206.9330
 Red. masses --      1.1040                 1.0878                 1.0951
 Frc consts  --      6.4316                 6.5296                 6.6357
 IR Inten    --     18.6752                 4.5597                 9.8689

 - Thermochemistry -
 -------------------
 Temperature   298.150 Kelvin.  Pressure   1.00000 Atm.
 Atom     1 has atomic number  8 and mass  15.99491

 Molecular mass:   196.04841 amu.
 Principal axes and moments of inertia in atomic units:
                           1         2         3
     Eigenvalues --  1923.890122387.813523963.45054
           X            0.99999   0.00002  -0.00362
           Y           -0.00002   1.00000  -0.00000
           Z            0.00362   0.00000   0.99999
 This molecule is an asymmetric top.
 Rotational symmetry number  1.
 Warning -- assumption of classical behavior for rotation
           may cause significant error
 Rotational temperatures (Kelvin)      0.04502     0.03627     0.02185
 Rotational constants (GHZ):           0.93807     0.75581     0.45535
 Zero-point vibrational energy     422553.5 (Joules/Mol)
                                  100.99270 (Kcal/Mol)
 Warning -- explicit consideration of  18 degrees of freedom as
           vibrations may cause significant error
 Vibrational temperatures:     51.64   100.28   153.01   182.61   220.48
          (Kelvin)            224.78   253.35   267.03   345.57   417.04
                              443.64   465.43   532.49   599.60   616.79
                              706.50   720.48   828.35   905.74  1009.46
                             1028.70  1059.58  1141.00  1159.95  1177.46
                             1206.25  1333.79  1370.79  1404.10  1509.51
                             1515.43  1528.67  1536.81  1680.77  1725.83
                             1807.26  1853.43  1929.52  2023.99  2040.30
                             2060.15  2061.01  2066.13  2142.74  2153.85
                             2159.67  2170.70  2192.22  2310.98  2371.45
                             2381.92  2411.51  4408.32  4408.38  4505.80
                             4505.86  4524.17  4524.23  4592.35  4614.06

 Zero-point correction=                           0.160942 (Hartree/Particle)
 Thermal correction to Energy=                    0.173722
 Thermal correction to Enthalpy=                  0.174667
 Thermal correction to Gibbs Free Energy=         0.121229
 Sum of electronic and zero-point Energies=           -719.714556
 Sum of electronic and thermal Energies=              -719.701776
 Sum of electronic and thermal Enthalpies=            -719.700832
 Sum of electronic and thermal Free Energies=         -719.754269

                     E (Thermal)             CV                S
                      KCal/Mol        Cal/Mol-Kelvin    Cal/Mol-Kelvin
 Total                  109.012             46.408            112.468
 Electronic               0.000              0.000              0.000
 Translational            0.889              2.981             41.725
 Rotational               0.889              2.981             31.277
 Vibrational            107.235             40.446             39.467
 Vibration     1          0.594              1.982              5.474
 Vibration     2          0.598              1.969              4.162
 Vibration     3          0.605              1.944              3.334
 Vibration     4          0.611              1.926              2.992
 Vibration     5          0.619              1.899              2.632
 Vibration     6          0.620              1.896              2.595
 Vibration     7          0.628              1.872              2.370
 Vibration     8          0.632              1.860              2.271
 Vibration     9          0.657              1.779              1.802
 Vibration    10          0.686              1.693              1.475
 Vibration    11          0.698              1.658              1.371
 Vibration    12          0.708              1.628              1.292
 Vibration    13          0.742              1.534              1.079
 Vibration    14          0.780              1.434              0.903
 Vibration    15          0.790              1.408              0.863
 Vibration    16          0.847              1.270              0.681
 Vibration    17          0.856              1.248              0.656
 Vibration    18          0.932              1.084              0.493

 Optimization completed.
    -- Stationary point found.
 Normal termination of Gaussian 09 at Fri Aug 20 15:46:44 2021.
