 Gaussian 09, Revision E.01,
 Gaussian 09:  ES64L-G09RevE.01 30-Nov-2015

 -------------------------
 #P OPT Freq B3LYP/6-31G**
 -------------------------

 --------
 QQQFNG02
 --------
 Symbolic Z-matrix:
 Charge =  0 Multiplicity = 1

 SCF Done:  E(RB3LYP) =  -696.513651333     A.U. after   16 cycles
 SCF Done:  E(RB3LYP) =  -696.594686233     A.U. after   14 cycles
 SCF Done:  E(RB3LYP) =  -696.609115740     A.U. after   15 cycles
 SCF Done:  E(RB3LYP) =  -696.620327803     A.U. after   16 cycles
 SCF Done:  E(RB3LYP) =  -696.606046730     A.U. after   17 cycles
 SCF Done:  E(RB3LYP) =  -696.621671340     A.U. after   13 cycles
 SCF Done:  E(RB3LYP) =  -696.619420293     A.U. after   15 cycles
 SCF Done:  E(RB3LYP) =  -696.621918412     A.U. after   11 cycles
 SCF Done:  E(RB3LYP) =  -696.621863842     A.U. after   15 cycles
 SCF Done:  E(RB3LYP) =  -696.622409467     A.U. after   10 cycles
 SCF Done:  E(RB3LYP) =  -696.622463235     A.U. after   13 cycles
 SCF Done:  E(RB3LYP) =  -696.622552202     A.U. after   13 cycles
 SCF Done:  E(RB3LYP) =  -696.622561417     A.U. after   12 cycles
 SCF Done:  E(RB3LYP) =  -696.622561737     A.U. after    9 cycles
 SCF Done:  E(RB3LYP) =  -696.622561815     A.U. after    8 cycles
 Optimization completed.
    -- Stationary point found.
 Normal termination of Gaussian 09 at Fri Aug 20 15:46:09 2021.

 ----------------------------------------------------------------------
 #P Geom=AllCheck Guess=TCheck SCRF=Check GenChk RB3LYP/6-31G(d,p) Freq
 ----------------------------------------------------------------------

 Structure from the checkpoint file:  "/public/home/users/caep010/.cache/gau_scr/Gau-156017.chk"
 --------
 QQQFNG02
 --------
 Charge =  0 Multiplicity = 1

                         Standard orientation:
 ---------------------------------------------------------------------
 Center     Atomic      Atomic             Coordinates (Angstroms)
 Number     Number       Type             X           Y           Z
 ---------------------------------------------------------------------
      1          7           0       -2.442292    1.789899    0.000140
      2          6           0       -1.215773    1.231967   -0.000012
      3          6           0       -0.983713   -0.177984    0.000022
      4          7           0       -2.077449   -1.138115   -0.000075
      5          8           0       -3.245904   -0.709198    0.000888
      6          8           0       -1.804589   -2.335245   -0.001126
      7          6           0        0.309504   -0.702065    0.000034
      8          6           0        1.392175    0.155828   -0.000003
      9          7           0        2.744079   -0.395022    0.000159
     10          8           0        2.866794   -1.620103    0.000713
     11          6           0        1.211247    1.548925   -0.000204
     12          1           0        2.081560    2.193197   -0.000287
     13          1           0        0.452870   -1.773770    0.000072
     14          6           0       -0.062436    2.066562   -0.000240
     15          1           0       -0.209610    3.142319   -0.000313
     16          8           0        3.682100    0.405511   -0.000304
     17          1           0       -3.249877    1.181965    0.000538
     18          1           0       -2.538538    2.791845   -0.000521
 ---------------------------------------------------------------------

 SCF Done:  E(RB3LYP) =  -696.622561815     A.U. after    1 cycles

 The electronic state is 1-A.
 Alpha  occ. eigenvalues --  -19.19644 -19.19447 -19.18272 -19.18248 -14.58867
 Alpha  occ. eigenvalues --  -14.57570 -14.39279 -10.29907 -10.27336 -10.26088
 Alpha  occ. eigenvalues --  -10.24356 -10.24215 -10.23417  -1.23804  -1.22606
 Alpha  occ. eigenvalues --   -1.06388  -1.05307  -0.97815  -0.90423  -0.84032
 Alpha  occ. eigenvalues --   -0.80606  -0.73013  -0.71053  -0.65400  -0.61170
 Alpha  occ. eigenvalues --   -0.58299  -0.56264  -0.55365  -0.54725  -0.53714
 Alpha  occ. eigenvalues --   -0.53475  -0.52949  -0.50936  -0.47638  -0.47175
 Alpha  occ. eigenvalues --   -0.44959  -0.43226  -0.40420  -0.36299  -0.32599
 Alpha  occ. eigenvalues --   -0.32391  -0.31317  -0.31176  -0.30593  -0.30240
 Alpha  occ. eigenvalues --   -0.29357  -0.25320
 Alpha virt. eigenvalues --   -0.10333  -0.09001  -0.02544   0.00628   0.05509
 Alpha virt. eigenvalues --    0.07185   0.11765   0.13459   0.13635   0.15066
 Alpha virt. eigenvalues --    0.18059   0.18925   0.21334   0.25017   0.26271

 Mulliken charges:
               1
     1  N   -0.663043
     2  C    0.351982
     3  C    0.230329
     4  N    0.380113
     5  O   -0.439069
     6  O   -0.386785
     7  C   -0.104736
     8  C    0.227633
     9  N    0.384077
    10  O   -0.399225
    11  C   -0.074052
    12  H    0.147543
    13  H    0.182311
    14  C   -0.136139
    15  H    0.104926
    16  O   -0.403099
    17  H    0.316780
    18  H    0.280453
 Sum of Mulliken charges =  -0.00000

 Dipole moment (field-independent basis, Debye):
    X=             -3.1580    Y=              5.8604    Z=             -0.0007  Tot=              6.6571
 Quadrupole moment (field-independent basis, Debye-Ang):
   XX=            -87.8195   YY=            -67.7399   ZZ=            -71.7535
   XY=             -7.6085   XZ=              0.0022   YZ=             -0.0040

  Exact polarizability: 153.981  -5.746 122.084  -0.008  -0.001  34.507
 Approx polarizability: 272.533 -16.803 244.235  -0.037   0.004  54.394

                      1                      2                      3
                      A                      A                      A
 Frequencies --     59.1275                66.7124               114.8926
 Red. masses --     14.5558                13.2331                 7.1359
 Frc consts  --      0.0300                 0.0347                 0.0555
 IR Inten    --      0.1450                 0.2299                 1.9839

                      4                      5                      6
                      A                      A                      A
 Frequencies --    157.8321               173.1389               302.1030
 Red. masses --      5.2110                12.3862                 1.2359
 Frc consts  --      0.0765                 0.2188                 0.0665
 IR Inten    --      0.2978                 2.9084               175.0590

                      7                      8                      9
                      A                      A                      A
 Frequencies --    307.7378               318.2616               353.6052
 Red. masses --      5.0071                 7.6700                 9.8135
 Frc consts  --      0.2794                 0.4577                 0.7230
 IR Inten    --     31.4263                 1.1571                 0.3945

                     10                     11                     12
                      A                      A                      A
 Frequencies --    378.2109               409.8788               445.1589
 Red. masses --      7.6074                 4.8409                 3.7931
 Frc consts  --      0.6411                 0.4792                 0.4429
 IR Inten    --      2.4099                 2.6195                 2.0501

                     13                     14                     15
                      A                      A                      A
 Frequencies --    523.0469               527.7221               579.2647
 Red. masses --      9.1904                 3.2031                 4.3937
 Frc consts  --      1.4814                 0.5256                 0.8686
 IR Inten    --      2.8573                11.6400                 3.4009

                     16                     17                     18
                      A                      A                      A
 Frequencies --    633.4512               654.1741               697.6725
 Red. masses --      1.0655                 7.7018                 4.7738
 Frc consts  --      0.2519                 1.9419                 1.3691
 IR Inten    --     22.9092                 8.2588                 3.0902

                     19                     20                     21
                      A                      A                      A
 Frequencies --    726.9431               749.6561               765.9290
 Red. masses --      8.9782                 7.1417                 8.0227
 Frc consts  --      2.7954                 2.3647                 2.7730
 IR Inten    --     35.5358                26.4380                 1.5665

                     22                     23                     24
                      A                      A                      A
 Frequencies --    833.4369               838.7531               844.9879
 Red. masses --      5.4492                 1.5868                13.1683
 Frc consts  --      2.2301                 0.6577                 5.5396
 IR Inten    --      3.4668                18.4301                14.1500

                     25                     26                     27
                      A                      A                      A
 Frequencies --    944.6117               969.7151               991.9711
 Red. masses --      6.7053                 1.3936                 1.3012
 Frc consts  --      3.5251                 0.7721                 0.7544
 IR Inten    --     27.4800                 9.5902                 0.1140

                     28                     29                     30
                      A                      A                      A
 Frequencies --   1048.2814              1082.2009              1163.4553
 Red. masses --      1.6111                 1.8754                 3.2877
 Frc consts  --      1.0431                 1.2941                 2.6221
 IR Inten    --      4.0497                75.7606                73.0236

                     31                     32                     33
                      A                      A                      A
 Frequencies --   1186.2968              1285.5373              1326.7073
 Red. masses --      1.3386                 1.5320                 5.6084
 Frc consts  --      1.1099                 1.4917                 5.8162
 IR Inten    --     14.8209                 5.9285               243.6506

                     34                     35                     36
                      A                      A                      A
 Frequencies --   1383.2531              1395.4425              1416.4230
 Red. masses --      5.3378                 4.9348                 6.4412
 Frc consts  --      6.0175                 5.6617                 7.6139
 IR Inten    --    510.7886               121.7402                37.1309

                     37                     38                     39
                      A                      A                      A
 Frequencies --   1471.1987              1526.7638              1589.4424
 Red. masses --      4.4377                 2.2795                 4.6072
 Frc consts  --      5.6591                 3.1307                 6.8577
 IR Inten    --     59.1985                16.8904               139.4871

                     40                     41                     42
                      A                      A                      A
 Frequencies --   1602.1582              1641.9739              1657.4448
 Red. masses --      7.7855                 2.0750                11.6178
 Frc consts  --     11.7746                 3.2962                18.8040
 IR Inten    --     52.0494                16.2527               274.9066

                     43                     44                     45
                      A                      A                      A
 Frequencies --   1683.5660              3195.7255              3246.0895
 Red. masses --      6.9541                 1.0905                 1.0931
 Frc consts  --     11.6132                 6.5615                 6.7866
 IR Inten    --    402.9418                 6.4908                 2.7727

                     46                     47                     48
                      A                      A                      A
 Frequencies --   3269.0778              3563.9735              3728.7012
 Red. masses --      1.0911                 1.0478                 1.1028
 Frc consts  --      6.8700                 7.8416                 9.0333
 IR Inten    --     20.3175               151.4664                88.4715

 - Thermochemistry -
 -------------------
 Temperature   298.150 Kelvin.  Pressure   1.00000 Atm.
 Atom     1 has atomic number  7 and mass  14.00307

 Molecular mass:   183.02801 amu.
 Principal axes and moments of inertia in atomic units:
                           1         2         3
     Eigenvalues --  1202.478913255.140934457.61951
           X            0.99991  -0.01370  -0.00000
           Y            0.01370   0.99991  -0.00001
           Z            0.00000   0.00001   1.00000
 This molecule is an asymmetric top.
 Rotational symmetry number  1.
 Warning -- assumption of classical behavior for rotation
           may cause significant error
 Rotational temperatures (Kelvin)      0.07203     0.02661     0.01943
 Rotational constants (GHZ):           1.50085     0.55443     0.40487
 Zero-point vibrational energy     321985.1 (Joules/Mol)
                                   76.95629 (Kcal/Mol)
 Warning -- explicit consideration of  15 degrees of freedom as
           vibrations may cause significant error
 Vibrational temperatures:     85.07    95.98   165.30   227.08   249.11
          (Kelvin)            434.66   442.77   457.91   508.76   544.16
                              589.72   640.48   752.55   759.27   833.43
                              911.39   941.21  1003.79  1045.91  1078.59
                             1102.00  1199.13  1206.78  1215.75  1359.08
                             1395.20  1427.22  1508.24  1557.04  1673.95
                             1706.81  1849.60  1908.83  1990.19  2007.73
                             2037.91  2116.72  2196.67  2286.85  2305.15
                             2362.43  2384.69  2422.27  4597.93  4670.39
                             4703.47  5127.76  5364.76

 Zero-point correction=                           0.122638 (Hartree/Particle)
 Thermal correction to Energy=                    0.133258
 Thermal correction to Enthalpy=                  0.134202
 Thermal correction to Gibbs Free Energy=         0.085524
 Sum of electronic and zero-point Energies=           -696.499924
 Sum of electronic and thermal Energies=              -696.489304
 Sum of electronic and thermal Enthalpies=            -696.488360
 Sum of electronic and thermal Free Energies=         -696.537038

                     E (Thermal)             CV                S
                      KCal/Mol        Cal/Mol-Kelvin    Cal/Mol-Kelvin
 Total                   83.621             39.954            102.453
 Electronic               0.000              0.000              0.000
 Translational            0.889              2.981             41.520
 Rotational               0.889              2.981             31.235
 Vibrational             81.843             33.993             29.698
 Vibration     1          0.596              1.974              4.486
 Vibration     2          0.598              1.970              4.248
 Vibration     3          0.608              1.937              3.185
 Vibration     4          0.621              1.894              2.576
 Vibration     5          0.627              1.876              2.401
 Vibration     6          0.694              1.670              1.405
 Vibration     7          0.698              1.659              1.374
 Vibration     8          0.705              1.639              1.319
 Vibration     9          0.730              1.568              1.150
 Vibration    10          0.748              1.517              1.046
 Vibration    11          0.774              1.449              0.927
 Vibration    12          0.805              1.372              0.811
 Vibration    13          0.878              1.199              0.603
 Vibration    14          0.883              1.189              0.592
 Vibration    15          0.936              1.076              0.487

 Normal termination of Gaussian 09 at Fri Aug 20 15:46:37 2021.
