 Gaussian 09, Revision E.01,
 Gaussian 09:  ES64L-G09RevE.01 30-Nov-2015

 -------------------------
 #P OPT Freq B3LYP/6-31G**
 -------------------------

 ------
 NAGGOU
 ------
 Symbolic Z-matrix:
 Charge =  0 Multiplicity = 1

 SCF Done:  E(RB3LYP) =  -693.702300232     A.U. after   16 cycles
 SCF Done:  E(RB3LYP) =  -693.783413047     A.U. after   14 cycles
 SCF Done:  E(RB3LYP) =  -693.810861858     A.U. after   14 cycles
 SCF Done:  E(RB3LYP) =  -693.810197750     A.U. after   14 cycles
 SCF Done:  E(RB3LYP) =  -693.811151315     A.U. after   10 cycles
 SCF Done:  E(RB3LYP) =  -693.807492794     A.U. after   14 cycles
 SCF Done:  E(RB3LYP) =  -693.811298662     A.U. after   10 cycles
 SCF Done:  E(RB3LYP) =  -693.811364689     A.U. after   12 cycles
 SCF Done:  E(RB3LYP) =  -693.811411702     A.U. after   11 cycles
 SCF Done:  E(RB3LYP) =  -693.811430276     A.U. after   11 cycles
 SCF Done:  E(RB3LYP) =  -693.811460804     A.U. after   12 cycles
 SCF Done:  E(RB3LYP) =  -693.811471683     A.U. after   14 cycles
 SCF Done:  E(RB3LYP) =  -693.811498108     A.U. after   14 cycles
 SCF Done:  E(RB3LYP) =  -693.811528602     A.U. after   12 cycles
 SCF Done:  E(RB3LYP) =  -693.811543336     A.U. after   12 cycles
 SCF Done:  E(RB3LYP) =  -693.811544284     A.U. after   11 cycles
 SCF Done:  E(RB3LYP) =  -693.811544495     A.U. after    9 cycles
 SCF Done:  E(RB3LYP) =  -693.811544508     A.U. after    8 cycles
 Optimization completed.
    -- Stationary point found.
 Normal termination of Gaussian 09 at Fri Aug 20 15:41:31 2021.

 ----------------------------------------------------------------------
 #P Geom=AllCheck Guess=TCheck SCRF=Check GenChk RB3LYP/6-31G(d,p) Freq
 ----------------------------------------------------------------------

 Structure from the checkpoint file:  "/public/home/users/caep010/.cache/gau_scr/Gau-38483.chk"
 ------
 NAGGOU
 ------
 Charge =  0 Multiplicity = 1

                         Standard orientation:
 ---------------------------------------------------------------------
 Center     Atomic      Atomic             Coordinates (Angstroms)
 Number     Number       Type             X           Y           Z
 ---------------------------------------------------------------------
      1          6           0       -2.014311    0.000108   -0.000693
      2          6           0       -1.355737    1.220802   -0.123117
      3          1           0       -1.932776    2.131341   -0.220365
      4          6           0        0.034290    1.236677   -0.133246
      5          6           0        0.739458    0.034282   -0.005061
      6          6           0        0.066830   -1.187717    0.114970
      7          1           0        0.636181   -2.103998    0.206571
      8          1           0        0.559777    2.176242   -0.260287
      9          6           0       -1.322614   -1.204164    0.112084
     10          1           0       -1.875772   -2.130116    0.203648
     11          7           0       -3.486534   -0.016904    0.005456
     12          7           0        2.157463    0.044622    0.003200
     13          7           0        2.883226   -1.067105   -0.312886
     14          7           0        4.123472   -0.739259   -0.204361
     15          6           0        3.040853    1.029066    0.303557
     16          1           0        2.768031    2.024576    0.615469
     17          7           0        4.262320    0.563941    0.181760
     18          8           0       -4.067166    1.062791   -0.095633
     19          8           0       -4.041294   -1.108971    0.112110
 ---------------------------------------------------------------------

 SCF Done:  E(RB3LYP) =  -693.811544508     A.U. after    1 cycles

 The electronic state is 1-A.
 Alpha  occ. eigenvalues --  -19.19807 -19.19793 -14.58964 -14.47233 -14.42783
 Alpha  occ. eigenvalues --  -14.41260 -14.38122 -10.29693 -10.29444 -10.27734
 Alpha  occ. eigenvalues --  -10.25077 -10.24885 -10.24672 -10.24406  -1.24155
 Alpha  occ. eigenvalues --   -1.16009  -1.06910  -0.98916  -0.91785  -0.90989
 Alpha  occ. eigenvalues --   -0.83347  -0.80583  -0.74686  -0.69998  -0.67188
 Alpha  occ. eigenvalues --   -0.65149  -0.62485  -0.60079  -0.57047  -0.54901
 Alpha  occ. eigenvalues --   -0.53516  -0.52172  -0.52093  -0.49670  -0.49252
 Alpha  occ. eigenvalues --   -0.47695  -0.45511  -0.42696  -0.40789  -0.39134
 Alpha  occ. eigenvalues --   -0.36489  -0.32715  -0.32634  -0.32440  -0.31824
 Alpha  occ. eigenvalues --   -0.30884  -0.30591  -0.30556  -0.28882
 Alpha virt. eigenvalues --   -0.11192  -0.05587  -0.05381  -0.00559   0.00682
 Alpha virt. eigenvalues --    0.05259   0.08321   0.11687   0.12030   0.13299
 Alpha virt. eigenvalues --    0.14249   0.16016   0.17033   0.18163   0.19727

 Mulliken charges:
               1
     1  C    0.257492
     2  C   -0.101099
     3  H    0.152014
     4  C   -0.112941
     5  C    0.325301
     6  C   -0.096189
     7  H    0.153121
     8  H    0.118904
     9  C   -0.100089
    10  H    0.153942
    11  N    0.389680
    12  N   -0.405129
    13  N   -0.056784
    14  N   -0.069591
    15  C    0.322751
    16  H    0.163195
    17  N   -0.315195
    18  O   -0.391007
    19  O   -0.388377
 Sum of Mulliken charges =  -0.00000

 Dipole moment (field-independent basis, Debye):
    X=             -0.5389    Y=              2.2616    Z=              0.6724  Tot=              2.4202
 Quadrupole moment (field-independent basis, Debye-Ang):
   XX=           -120.8598   YY=            -72.1218   ZZ=            -77.4358
   XY=              6.2307   XZ=              1.8884   YZ=             -0.7246

  Exact polarizability: 182.213   0.654 111.135   0.317  -0.421  42.449
 Approx polarizability: 277.629  -0.533 230.306   0.233  -1.435  69.532

                      1                      2                      3
                      A                      A                      A
 Frequencies --     41.1557                63.1980                66.7228
 Red. masses --      6.5533                 9.8568                 6.7904
 Frc consts  --      0.0065                 0.0232                 0.0178
 IR Inten    --      3.8802                 6.3787                 1.5751

                      4                      5                      6
                      A                      A                      A
 Frequencies --    122.3776               177.8693               255.2371
 Red. masses --      9.2843                 9.0383                 7.6846
 Frc consts  --      0.0819                 0.1685                 0.2950
 IR Inten    --      7.5626                 0.4522                 1.2561

                      7                      8                      9
                      A                      A                      A
 Frequencies --    274.6955               337.6578               421.0619
 Red. masses --     12.1493                 6.7413                 3.0902
 Frc consts  --      0.5401                 0.4528                 0.3228
 IR Inten    --      0.0618                 2.0285                 0.1165

                     10                     11                     12
                      A                      A                      A
 Frequencies --    444.4338               511.3985               517.5351
 Red. masses --      6.3617                 7.6994                 3.4111
 Frc consts  --      0.7403                 1.1864                 0.5383
 IR Inten    --      1.1775                10.7078                 6.1769

                     13                     14                     15
                      A                      A                      A
 Frequencies --    541.0606               639.5488               668.6333
 Red. masses --      6.1360                 6.9679                 4.3198
 Frc consts  --      1.0583                 1.6792                 1.1379
 IR Inten    --      1.6138                 0.6282                 2.2930

                     16                     17                     18
                      A                      A                      A
 Frequencies --    696.1059               720.8493               738.0104
 Red. masses --      4.0348                12.6227                 7.6745
 Frc consts  --      1.1519                 3.8645                 2.4628
 IR Inten    --     12.5030                 3.9456                 1.6712

                     19                     20                     21
                      A                      A                      A
 Frequencies --    757.4853               841.8170               850.8595
 Red. masses --      5.6472                 1.2997                 1.3662
 Frc consts  --      1.9091                 0.5427                 0.5828
 IR Inten    --     20.5088                 0.5856                12.6394

                     22                     23                     24
                      A                      A                      A
 Frequencies --    865.2460               880.0629               975.4013
 Red. masses --      9.7120                 1.6636                 5.6427
 Frc consts  --      4.2839                 0.7591                 3.1630
 IR Inten    --     63.6032                35.2594                 5.0062

                     25                     26                     27
                      A                      A                      A
 Frequencies --    982.2478               998.4592              1009.4154
 Red. masses --      1.3517                 1.3399                 8.1695
 Frc consts  --      0.7684                 0.7870                 4.9044
 IR Inten    --      0.8597                 1.1421                74.3057

                     28                     29                     30
                      A                      A                      A
 Frequencies --   1027.6077              1049.4069              1103.4019
 Red. masses --      3.8350                 3.3450                 7.9679
 Frc consts  --      2.3860                 2.1703                 5.7156
 IR Inten    --      5.9606                31.3377                37.6929

                     31                     32                     33
                      A                      A                      A
 Frequencies --   1130.7388              1132.7177              1195.0630
 Red. masses --      2.1371                 1.5447                 1.7295
 Frc consts  --      1.6099                 1.1677                 1.4553
 IR Inten    --     30.7443                24.1912                 6.9057

                     34                     35                     36
                      A                      A                      A
 Frequencies --   1209.3946              1240.2428              1323.1693
 Red. masses --      1.5242                 2.9943                 1.5208
 Frc consts  --      1.3135                 2.7137                 1.5687
 IR Inten    --      9.0494                48.4565                11.7464

                     37                     38                     39
                      A                      A                      A
 Frequencies --   1353.6133              1377.0879              1397.3771
 Red. masses --      4.5901                 9.1988                14.0789
 Frc consts  --      4.9552                10.2779                16.1974
 IR Inten    --     10.5300                 6.2306               394.5828

                     40                     41                     42
                      A                      A                      A
 Frequencies --   1432.8029              1477.7300              1507.9851
 Red. masses --      4.6043                 4.0204                 4.6440
 Frc consts  --      5.5691                 5.1726                 6.2221
 IR Inten    --     10.5945                 4.5962                31.2281

                     43                     44                     45
                      A                      A                      A
 Frequencies --   1546.9902              1625.8023              1654.7608
 Red. masses --      3.0578                10.8006                 5.9275
 Frc consts  --      4.3115                16.8204                 9.5629
 IR Inten    --    109.7870               100.0125                70.2456

                     46                     47                     48
                      A                      A                      A
 Frequencies --   1675.7038              3219.1187              3241.3529
 Red. masses --      9.7308                 1.0909                 1.0900
 Frc consts  --     16.0988                 6.6603                 6.7475
 IR Inten    --    103.3683                 3.0579                 0.7702

                     49                     50                     51
                      A                      A                      A
 Frequencies --   3251.4119              3252.8212              3306.8550
 Red. masses --      1.0933                 1.0952                 1.0997
 Frc consts  --      6.8097                 6.8273                 7.0850
 IR Inten    --      3.6353                 3.8632                 2.1777

 - Thermochemistry -
 -------------------
 Temperature   298.150 Kelvin.  Pressure   1.00000 Atm.
 Atom     1 has atomic number  6 and mass  12.00000

 Molecular mass:   191.04432 amu.
 Principal axes and moments of inertia in atomic units:
                           1         2         3
     Eigenvalues --   631.144505715.049256309.37989
           X            0.99999   0.00375   0.00107
           Y           -0.00374   0.99999  -0.00387
           Z           -0.00108   0.00387   0.99999
 This molecule is an asymmetric top.
 Rotational symmetry number  1.
 Warning -- assumption of classical behavior for rotation
           may cause significant error
 Rotational temperatures (Kelvin)      0.13723     0.01516     0.01373
 Rotational constants (GHZ):           2.85947     0.31579     0.28604
 Zero-point vibrational energy     341723.5 (Joules/Mol)
                                   81.67387 (Kcal/Mol)
 Warning -- explicit consideration of  13 degrees of freedom as
           vibrations may cause significant error
 Vibrational temperatures:     59.21    90.93    96.00   176.07   255.91
          (Kelvin)            367.23   395.23   485.81   605.81   639.44
                              735.79   744.62   778.46   920.17   962.01
                             1001.54  1037.14  1061.83  1089.85  1211.19
                             1224.20  1244.89  1266.21  1403.38  1413.23
                             1436.56  1452.32  1478.50  1509.86  1587.55
                             1626.88  1629.73  1719.43  1740.05  1784.43
                             1903.74  1947.55  1981.32  2010.51  2061.48
                             2126.12  2169.65  2225.77  2339.16  2380.83
                             2410.96  4631.59  4663.58  4678.05  4680.08
                             4757.82

 Zero-point correction=                           0.130156 (Hartree/Particle)
 Thermal correction to Energy=                    0.140548
 Thermal correction to Enthalpy=                  0.141492
 Thermal correction to Gibbs Free Energy=         0.092155
 Sum of electronic and zero-point Energies=           -693.681389
 Sum of electronic and thermal Energies=              -693.670997
 Sum of electronic and thermal Enthalpies=            -693.670053
 Sum of electronic and thermal Free Energies=         -693.719390

                     E (Thermal)             CV                S
                      KCal/Mol        Cal/Mol-Kelvin    Cal/Mol-Kelvin
 Total                   88.195             38.850            103.838
 Electronic               0.000              0.000              0.000
 Translational            0.889              2.981             41.648
 Rotational               0.889              2.981             31.499
 Vibrational             86.418             32.889             30.692
 Vibration     1          0.594              1.981              5.203
 Vibration     2          0.597              1.972              4.355
 Vibration     3          0.598              1.970              4.248
 Vibration     4          0.610              1.930              3.062
 Vibration     5          0.628              1.870              2.351
 Vibration     6          0.666              1.754              1.694
 Vibration     7          0.677              1.720              1.566
 Vibration     8          0.718              1.600              1.223
 Vibration     9          0.784              1.424              0.888
 Vibration    10          0.804              1.373              0.813
 Vibration    11          0.867              1.225              0.630
 Vibration    12          0.873              1.211              0.616
 Vibration    13          0.896              1.159              0.563

 Optimization completed.
    -- Stationary point found.
 Normal termination of Gaussian 09 at Fri Aug 20 15:42:03 2021.
