 Gaussian 09, Revision E.01,
 Gaussian 09:  ES64L-G09RevE.01 30-Nov-2015

 -------------------------
 #P OPT Freq B3LYP/6-31G**
 -------------------------

 ------
 UFUXOI
 ------
 Symbolic Z-matrix:
 Charge =  0 Multiplicity = 1

 SCF Done:  E(RB3LYP) =  -690.477974897     A.U. after   16 cycles
 SCF Done:  E(RB3LYP) =  -690.549822098     A.U. after   14 cycles
 SCF Done:  E(RB3LYP) =  -690.560331538     A.U. after   16 cycles
 SCF Done:  E(RB3LYP) =  -690.555101527     A.U. after   17 cycles
 SCF Done:  E(RB3LYP) =  -690.560873487     A.U. after   12 cycles
 SCF Done:  E(RB3LYP) =  -690.561124992     A.U. after   14 cycles
 SCF Done:  E(RB3LYP) =  -690.561109227     A.U. after   14 cycles
 SCF Done:  E(RB3LYP) =  -690.561251598     A.U. after    9 cycles
 SCF Done:  E(RB3LYP) =  -690.561296623     A.U. after   13 cycles
 SCF Done:  E(RB3LYP) =  -690.561341190     A.U. after   13 cycles
 SCF Done:  E(RB3LYP) =  -690.561342060     A.U. after   10 cycles
 Optimization completed.
    -- Stationary point found.
 Normal termination of Gaussian 09 at Fri Aug 20 16:03:47 2021.

 ----------------------------------------------------------------------
 #P Geom=AllCheck Guess=TCheck SCRF=Check GenChk RB3LYP/6-31G(d,p) Freq
 ----------------------------------------------------------------------

 Structure from the checkpoint file:  "/public/home/users/caep010/.cache/gau_scr/Gau-154667.chk"
 ------
 UFUXOI
 ------
 Charge =  0 Multiplicity = 1

                         Standard orientation:
 ---------------------------------------------------------------------
 Center     Atomic      Atomic             Coordinates (Angstroms)
 Number     Number       Type             X           Y           Z
 ---------------------------------------------------------------------
      1          7           0        0.626180   -1.539162    0.000204
      2          6           0        1.096277   -0.249824   -0.001089
      3          1           0        1.199451   -2.372416    0.000407
      4          7           0       -0.688967   -1.604112   -0.000882
      5          7           0        2.466508    0.049107   -0.000001
      6          6           0       -0.013132    0.606740   -0.000126
      7          7           0       -0.036695    1.945717    0.000818
      8          1           0        0.840885    2.443517   -0.000795
      9          6           0       -1.093439   -0.329146   -0.000161
     10          7           0       -2.487545    0.002679    0.000052
     11          8           0       -3.316631   -0.896173    0.000711
     12          8           0       -2.746721    1.219680   -0.000253
     13          1           0       -0.934396    2.405952   -0.000644
     14          8           0        3.258095   -0.902575    0.000794
     15          8           0        2.780190    1.251158   -0.000258
 ---------------------------------------------------------------------

 SCF Done:  E(RB3LYP) =  -690.561342060     A.U. after    1 cycles

 The electronic state is 1-A.
 Alpha  occ. eigenvalues --  -19.20238 -19.20143 -19.19782 -19.19702 -14.59888
 Alpha  occ. eigenvalues --  -14.59280 -14.47606 -14.42717 -14.39569 -10.30527
 Alpha  occ. eigenvalues --  -10.30426 -10.29657  -1.24516  -1.24201  -1.12362
 Alpha  occ. eigenvalues --   -1.07181  -1.06844  -0.97406  -0.90287  -0.85654
 Alpha  occ. eigenvalues --   -0.77429  -0.76134  -0.65414  -0.62627  -0.60153
 Alpha  occ. eigenvalues --   -0.56648  -0.56593  -0.55747  -0.55171  -0.54956
 Alpha  occ. eigenvalues --   -0.53647  -0.51814  -0.49199  -0.48579  -0.39828
 Alpha  occ. eigenvalues --   -0.36221  -0.33394  -0.33033  -0.32476  -0.32414
 Alpha  occ. eigenvalues --   -0.31905  -0.31675  -0.30980  -0.25840
 Alpha virt. eigenvalues --   -0.11353  -0.09543   0.00575   0.04999   0.06608
 Alpha virt. eigenvalues --    0.07705   0.11118   0.13305   0.14939   0.17781
 Alpha virt. eigenvalues --    0.22192   0.23915   0.25535   0.27160   0.29019

 Mulliken charges:
               1
     1  N   -0.375753
     2  C    0.567035
     3  H    0.315948
     4  N   -0.291814
     5  N    0.339788
     6  C    0.298944
     7  N   -0.681116
     8  H    0.305184
     9  C    0.494470
    10  N    0.370149
    11  O   -0.375561
    12  O   -0.426442
    13  H    0.309913
    14  O   -0.426754
    15  O   -0.423991
 Sum of Mulliken charges =   0.00000

 Dipole moment (field-independent basis, Debye):
    X=              1.3109    Y=              0.5703    Z=             -0.0046  Tot=              1.4296
 Quadrupole moment (field-independent basis, Debye-Ang):
   XX=            -90.6808   YY=            -59.1111   ZZ=            -64.2453
   XY=             -4.9203   XZ=             -0.0011   YZ=             -0.0113

  Exact polarizability: 128.739  -2.872  94.508   0.000  -0.001  30.130
 Approx polarizability: 219.414  -6.470 211.181   0.000  -0.007  47.226

                      1                      2                      3
                      A                      A                      A
 Frequencies --     80.1604                83.0616               118.5852
 Red. masses --     14.0361                13.7852                14.1808
 Frc consts  --      0.0531                 0.0560                 0.1175
 IR Inten    --      1.4683                 0.2369                 3.9041

                      4                      5                      6
                      A                      A                      A
 Frequencies --    161.7296               255.2549               257.1540
 Red. masses --     11.9934                 5.5760                11.4149
 Frc consts  --      0.1848                 0.2141                 0.4447
 IR Inten    --      9.8798                 1.8761                 1.8747

                      7                      8                      9
                      A                      A                      A
 Frequencies --    299.4390               323.9360               341.0092
 Red. masses --      1.1796                 5.3433                 8.3132
 Frc consts  --      0.0623                 0.3304                 0.5696
 IR Inten    --    231.2793                 3.0339                 2.9159

                     10                     11                     12
                      A                      A                      A
 Frequencies --    352.8123               498.0146               518.3672
 Red. masses --      6.7183                11.5191                10.3330
 Frc consts  --      0.4927                 1.6833                 1.6359
 IR Inten    --      0.7515                 2.1514                 2.6225

                     13                     14                     15
                      A                      A                      A
 Frequencies --    546.6054               618.0770               647.6277
 Red. masses --      2.2943                 1.0617                 5.0475
 Frc consts  --      0.4039                 0.2390                 1.2473
 IR Inten    --     35.3034                 0.1685                 4.0247

                     16                     17                     18
                      A                      A                      A
 Frequencies --    651.8797               698.9662               733.2207
 Red. masses --      4.0097                 2.4873                 8.0426
 Frc consts  --      1.0039                 0.7160                 2.5475
 IR Inten    --      6.5727                49.4757                 5.0288

                     19                     20                     21
                      A                      A                      A
 Frequencies --    744.7639               762.9307               838.4365
 Red. masses --     10.9006                12.7593                12.5409
 Frc consts  --      3.5623                 4.3757                 5.1942
 IR Inten    --     24.2827                 5.7795                28.6675

                     22                     23                     24
                      A                      A                      A
 Frequencies --    855.3542               961.9005              1176.3452
 Red. masses --     11.5553                 3.0423                 2.2407
 Frc consts  --      4.9811                 1.6585                 1.8269
 IR Inten    --     83.5661                20.2161                 8.9565

                     25                     26                     27
                      A                      A                      A
 Frequencies --   1223.8906              1276.9713              1338.7254
 Red. masses --      2.1127                 6.8586                 7.0718
 Frc consts  --      1.8646                 6.5894                 7.4673
 IR Inten    --     25.7697                36.0806                46.6818

                     28                     29                     30
                      A                      A                      A
 Frequencies --   1375.1832              1417.0827              1421.2195
 Red. masses --     12.3939                10.4440                 8.9188
 Frc consts  --     13.8095                12.3568                10.6140
 IR Inten    --    712.3062                21.0341                16.1273

                     31                     32                     33
                      A                      A                      A
 Frequencies --   1464.2818              1534.0270              1551.6244
 Red. masses --      3.2539                 2.5180                 2.6807
 Frc consts  --      4.1106                 3.4912                 3.8025
 IR Inten    --     78.3256               184.9694               202.6495

                     34                     35                     36
                      A                      A                      A
 Frequencies --   1606.0996              1643.3976              1705.9249
 Red. masses --      5.0327                 4.9999                 8.3363
 Frc consts  --      7.6488                 7.9561                14.2937
 IR Inten    --     59.9726                94.4426               383.5295

                     37                     38                     39
                      A                      A                      A
 Frequencies --   3584.7068              3644.9304              3731.8973
 Red. masses --      1.0427                 1.0822                 1.1082
 Frc consts  --      7.8947                 8.4713                 9.0938
 IR Inten    --    103.8165               192.7798               122.4883

 - Thermochemistry -
 -------------------
 Temperature   298.150 Kelvin.  Pressure   1.00000 Atm.
 Atom     1 has atomic number  7 and mass  14.00307

 Molecular mass:   173.01850 amu.
 Principal axes and moments of inertia in atomic units:
                           1         2         3
     Eigenvalues --   788.853932877.767023666.62055
           X            0.99999  -0.00513   0.00000
           Y            0.00513   0.99999  -0.00002
           Z           -0.00000   0.00002   1.00000
 This molecule is an asymmetric top.
 Rotational symmetry number  1.
 Warning -- assumption of classical behavior for rotation
           may cause significant error
 Rotational temperatures (Kelvin)      0.10980     0.03010     0.02362
 Rotational constants (GHZ):           2.28780     0.62713     0.49221
 Zero-point vibrational energy     245507.2 (Joules/Mol)
                                   58.67762 (Kcal/Mol)
 Warning -- explicit consideration of  14 degrees of freedom as
           vibrations may cause significant error
 Vibrational temperatures:    115.33   119.51   170.62   232.69   367.25
          (Kelvin)            369.99   430.83   466.07   490.64   507.62
                              716.53   745.81   786.44   889.27   931.79
                              937.91  1005.66  1054.94  1071.55  1097.69
                             1206.32  1230.66  1383.96  1692.50  1760.90
                             1837.27  1926.12  1978.58  2038.86  2044.82
                             2106.77  2207.12  2232.44  2310.82  2364.48
                             2454.44  5157.59  5244.24  5369.36

 Zero-point correction=                           0.093509 (Hartree/Particle)
 Thermal correction to Energy=                    0.103422
 Thermal correction to Enthalpy=                  0.104367
 Thermal correction to Gibbs Free Energy=         0.057607
 Sum of electronic and zero-point Energies=           -690.467833
 Sum of electronic and thermal Energies=              -690.457920
 Sum of electronic and thermal Enthalpies=            -690.456975
 Sum of electronic and thermal Free Energies=         -690.503735

                     E (Thermal)             CV                S
                      KCal/Mol        Cal/Mol-Kelvin    Cal/Mol-Kelvin
 Total                   64.899             36.132             98.414
 Electronic               0.000              0.000              0.000
 Translational            0.889              2.981             41.352
 Rotational               0.889              2.981             30.499
 Vibrational             63.121             30.170             26.563
 Vibration     1          0.600              1.963              3.887
 Vibration     2          0.600              1.961              3.817
 Vibration     3          0.609              1.934              3.123
 Vibration     4          0.622              1.889              2.529
 Vibration     5          0.666              1.754              1.694
 Vibration     6          0.667              1.751              1.681
 Vibration     7          0.692              1.675              1.420
 Vibration     8          0.708              1.628              1.290
 Vibration     9          0.721              1.594              1.207
 Vibration    10          0.729              1.569              1.154
 Vibration    11          0.854              1.254              0.663
 Vibration    12          0.873              1.209              0.614
 Vibration    13          0.902              1.147              0.551
 Vibration    14          0.978              0.994              0.420

 Optimization completed.
    -- Stationary point found.
 Normal termination of Gaussian 09 at Fri Aug 20 16:04:08 2021.
