 Gaussian 09, Revision E.01,
 Gaussian 09:  ES64L-G09RevE.01 30-Nov-2015

 -------------------------
 #P OPT Freq B3LYP/6-31G**
 -------------------------

 ------
 GIZSOX
 ------
 Symbolic Z-matrix:
 Charge =  0 Multiplicity = 1

 SCF Done:  E(RB3LYP) =  -734.738151895     A.U. after   17 cycles
 SCF Done:  E(RB3LYP) =  -734.818473866     A.U. after   14 cycles
 SCF Done:  E(RB3LYP) =  -734.850909532     A.U. after   16 cycles
 SCF Done:  E(RB3LYP) =  -734.857514044     A.U. after   15 cycles
 SCF Done:  E(RB3LYP) =  -734.838255203     A.U. after   18 cycles
 SCF Done:  E(RB3LYP) =  -734.858759033     A.U. after   13 cycles
 SCF Done:  E(RB3LYP) =  -734.860114212     A.U. after   15 cycles
 SCF Done:  E(RB3LYP) =  -734.846781872     A.U. after   16 cycles
 SCF Done:  E(RB3LYP) =  -734.860213938     A.U. after   12 cycles
 SCF Done:  E(RB3LYP) =  -734.860400458     A.U. after   14 cycles
 SCF Done:  E(RB3LYP) =  -734.860365018     A.U. after   15 cycles
 SCF Done:  E(RB3LYP) =  -734.860511332     A.U. after   14 cycles
 SCF Done:  E(RB3LYP) =  -734.860522819     A.U. after   11 cycles
 SCF Done:  E(RB3LYP) =  -734.860524287     A.U. after   10 cycles
 SCF Done:  E(RB3LYP) =  -734.860524566     A.U. after    8 cycles
 SCF Done:  E(RB3LYP) =  -734.860524595     A.U. after    8 cycles
 Optimization completed.
    -- Stationary point found.
 Normal termination of Gaussian 09 at Fri Aug 20 15:59:37 2021.

 ----------------------------------------------------------------------
 #P Geom=AllCheck Guess=TCheck SCRF=Check GenChk RB3LYP/6-31G(d,p) Freq
 ----------------------------------------------------------------------

 Structure from the checkpoint file:  "/public/home/users/caep010/.cache/gau_scr/Gau-163425.chk"
 ------
 GIZSOX
 ------
 Charge =  0 Multiplicity = 1

                         Standard orientation:
 ---------------------------------------------------------------------
 Center     Atomic      Atomic             Coordinates (Angstroms)
 Number     Number       Type             X           Y           Z
 ---------------------------------------------------------------------
      1          6           0        0.392806    0.127458   -0.225145
      2          6           0       -1.082735   -0.101533    0.016831
      3          7           0        1.107944   -1.162945   -0.625010
      4          7           0        1.118103    0.630251    1.045269
      5          8           0        2.320050    0.818664    0.929292
      6          7           0       -1.483892   -1.211837    0.498909
      7          8           0        1.523975   -1.861576    0.284118
      8          6           0       -1.872787    1.092242   -0.464315
      9          8           0        0.432801    0.862776    2.029771
     10          8           0        1.152234   -1.415835   -1.822028
     11          6           0       -0.797859    2.103055   -0.923721
     12          8           0       -2.869945   -1.238440    0.604287
     13          6           0        0.428526    1.235481   -1.278263
     14          1           0       -0.550784    2.786882   -0.105684
     15          1           0       -2.523922    0.777060   -1.288989
     16          1           0       -1.122150    2.710319   -1.771473
     17          1           0       -3.037517   -2.115993    0.976950
     18          1           0        1.382806    1.764642   -1.275398
     19          1           0       -2.527416    1.473253    0.324648
     20          1           0        0.303264    0.750631   -2.250082
 ---------------------------------------------------------------------

 SCF Done:  E(RB3LYP) =  -734.860524595     A.U. after    1 cycles

 The electronic state is 1-A.
 Alpha  occ. eigenvalues --  -19.22043 -19.20967 -19.20730 -19.20706 -19.20703
 Alpha  occ. eigenvalues --  -14.59430 -14.59253 -14.41641 -10.32188 -10.26329
 Alpha  occ. eigenvalues --  -10.23046 -10.22340 -10.22215  -1.25721  -1.24388
 Alpha  occ. eigenvalues --   -1.11528  -1.08295  -1.07985  -0.93362  -0.86472
 Alpha  occ. eigenvalues --   -0.81687  -0.72570  -0.71272  -0.66793  -0.62674
 Alpha  occ. eigenvalues --   -0.58715  -0.58401  -0.55472  -0.54366  -0.53848
 Alpha  occ. eigenvalues --   -0.52745  -0.52481  -0.50961  -0.49355  -0.45459
 Alpha  occ. eigenvalues --   -0.45283  -0.43260  -0.42120  -0.40271  -0.38400
 Alpha  occ. eigenvalues --   -0.37483  -0.33794  -0.33328  -0.33133  -0.32343
 Alpha  occ. eigenvalues --   -0.31694  -0.30939  -0.30150  -0.28081
 Alpha virt. eigenvalues --   -0.09012  -0.08725  -0.04423   0.05026   0.06862
 Alpha virt. eigenvalues --    0.09719   0.10146   0.11732   0.12964   0.13585
 Alpha virt. eigenvalues --    0.14527   0.15354   0.17714   0.18223   0.20443

 Mulliken charges:
               1
     1  C    0.158495
     2  C    0.365402
     3  N    0.483078
     4  N    0.483006
     5  O   -0.349209
     6  N   -0.231093
     7  O   -0.337515
     8  C   -0.221184
     9  O   -0.356036
    10  O   -0.373709
    11  C   -0.225095
    12  O   -0.401456
    13  C   -0.209594
    14  H    0.133458
    15  H    0.146077
    16  H    0.123101
    17  H    0.348006
    18  H    0.148864
    19  H    0.152511
    20  H    0.162893
 Sum of Mulliken charges =  -0.00000

 Dipole moment (field-independent basis, Debye):
    X=             -3.8815    Y=              2.0670    Z=             -1.9027  Tot=              4.7915
 Quadrupole moment (field-independent basis, Debye-Ang):
   XX=            -73.2438   YY=            -69.9098   ZZ=            -76.7678
   XY=              5.1509   XZ=             -2.5009   YZ=             -6.9551

  Exact polarizability:  96.362   4.767  85.876  -5.188  -7.134  81.533
 Approx polarizability: 158.038   9.134 128.183 -16.140 -14.565 155.552

                      1                      2                      3
                      A                      A                      A
 Frequencies --     41.2273                61.8026                75.7868
 Red. masses --     14.4865                 3.8084                12.9915
 Frc consts  --      0.0145                 0.0086                 0.0440
 IR Inten    --      0.1621                 0.1068                 0.7222

                      4                      5                      6
                      A                      A                      A
 Frequencies --    113.5728               155.8403               166.7638
 Red. masses --      7.0643                 6.2838                 2.4306
 Frc consts  --      0.0537                 0.0899                 0.0398
 IR Inten    --      0.5391                 2.0769                 0.5701

                      7                      8                      9
                      A                      A                      A
 Frequencies --    207.6145               255.1268               301.8817
 Red. masses --     10.0049                 5.0554                 3.2938
 Frc consts  --      0.2541                 0.1939                 0.1769
 IR Inten    --      3.0155                 1.3693                 0.7771

                     10                     11                     12
                      A                      A                      A
 Frequencies --    349.0432               371.8145               387.5006
 Red. masses --      5.5308                 9.8717                 9.5808
 Frc consts  --      0.3970                 0.8041                 0.8476
 IR Inten    --      5.6212                 2.7426                 2.0221

                     13                     14                     15
                      A                      A                      A
 Frequencies --    420.3440               455.2978               524.2690
 Red. masses --      2.1014                 3.9227                 2.3541
 Frc consts  --      0.2188                 0.4791                 0.3812
 IR Inten    --     42.8118                22.6138                37.7377

                     16                     17                     18
                      A                      A                      A
 Frequencies --    541.3268               594.2653               653.7908
 Red. masses --      3.3074                 2.4845                 5.7034
 Frc consts  --      0.5710                 0.5170                 1.4364
 IR Inten    --     25.4579                 5.9462                19.7493

                     19                     20                     21
                      A                      A                      A
 Frequencies --    707.5371               751.7533               774.6613
 Red. masses --      6.5416                 4.2087                 4.0803
 Frc consts  --      1.9295                 1.4014                 1.4427
 IR Inten    --     12.3692                 4.4357                27.9838

                     22                     23                     24
                      A                      A                      A
 Frequencies --    837.5995               851.0148               864.3802
 Red. masses --      4.2099                 4.5168                 2.5914
 Frc consts  --      1.7402                 1.9273                 1.1408
 IR Inten    --     31.5139                23.0781                11.2911

                     25                     26                     27
                      A                      A                      A
 Frequencies --    922.2826               936.2332               978.2286
 Red. masses --      2.2186                 1.9746                 7.4313
 Frc consts  --      1.1119                 1.0197                 4.1898
 IR Inten    --      4.4289                 7.7694                64.9376

                     28                     29                     30
                      A                      A                      A
 Frequencies --   1015.4483              1042.5703              1080.1691
 Red. masses --      2.3796                 5.5073                 1.7275
 Frc consts  --      1.4457                 3.5270                 1.1876
 IR Inten    --     20.4934                76.1380                 0.5329

                     31                     32                     33
                      A                      A                      A
 Frequencies --   1140.5266              1185.3643              1216.7070
 Red. masses --      5.9507                 1.5439                 1.5043
 Frc consts  --      4.5607                 1.2781                 1.3121
 IR Inten    --      8.9604                 6.1408                 8.7281

                     34                     35                     36
                      A                      A                      A
 Frequencies --   1237.5729              1271.2910              1316.1170
 Red. masses --      1.8021                 1.9651                 1.3921
 Frc consts  --      1.6262                 1.8713                 1.4208
 IR Inten    --      4.8729                 7.6486                 8.2509

                     37                     38                     39
                      A                      A                      A
 Frequencies --   1332.8645              1355.3580              1383.9932
 Red. masses --      1.5296                 1.3801                12.7158
 Frc consts  --      1.6011                 1.4937                14.3503
 IR Inten    --      7.8926                 5.5486               136.9023

                     40                     41                     42
                      A                      A                      A
 Frequencies --   1404.5321              1431.0382              1475.4961
 Red. masses --      1.4983                 5.6672                 1.0803
 Frc consts  --      1.7414                 6.8379                 1.3857
 IR Inten    --     54.7292               106.8831                10.7634

                     43                     44                     45
                      A                      A                      A
 Frequencies --   1502.3908              1521.4767              1675.2965
 Red. masses --      1.0941                 1.0980                14.0745
 Frc consts  --      1.4551                 1.4975                23.2738
 IR Inten    --     15.8724                 4.4487               288.3367

                     46                     47                     48
                      A                      A                      A
 Frequencies --   1695.4717              1746.7391              3057.2676
 Red. masses --     14.3545                 8.6064                 1.0672
 Frc consts  --     24.3119                15.4713                 5.8773
 IR Inten    --    151.3954                 4.9907                 4.2942

                     49                     50                     51
                      A                      A                      A
 Frequencies --   3077.6358              3096.3712              3111.0181
 Red. masses --      1.0653                 1.0612                 1.0958
 Frc consts  --      5.9450                 5.9947                 6.2487
 IR Inten    --     18.5150                 0.4646                 4.1297

                     52                     53                     54
                      A                      A                      A
 Frequencies --   3132.3742              3156.8225              3801.7460
 Red. masses --      1.1029                 1.1055                 1.0678
 Frc consts  --      6.3757                 6.4911                 9.0928
 IR Inten    --     15.2997                 2.6327               114.8557

 - Thermochemistry -
 -------------------
 Temperature   298.150 Kelvin.  Pressure   1.00000 Atm.
 Atom     1 has atomic number  6 and mass  12.00000

 Molecular mass:   189.03857 amu.
 Principal axes and moments of inertia in atomic units:
                           1         2         3
     Eigenvalues --  1790.443612307.359902611.53568
           X            0.99994  -0.01091  -0.00212
           Y            0.01051   0.99021  -0.13919
           Z            0.00362   0.13916   0.99026
 This molecule is an asymmetric top.
 Rotational symmetry number  1.
 Warning -- assumption of classical behavior for rotation
           may cause significant error
 Rotational temperatures (Kelvin)      0.04838     0.03754     0.03317
 Rotational constants (GHZ):           1.00799     0.78217     0.69107
 Zero-point vibrational energy     375415.8 (Joules/Mol)
                                   89.72653 (Kcal/Mol)
 Warning -- explicit consideration of  17 degrees of freedom as
           vibrations may cause significant error
 Vibrational temperatures:     59.32    88.92   109.04   163.41   224.22
          (Kelvin)            239.94   298.71   367.07   434.34   502.19
                              534.96   557.53   604.78   655.07   754.31
                              778.85   855.01   940.66  1017.99  1081.60
                             1114.56  1205.12  1224.42  1243.65  1326.96
                             1347.03  1407.45  1461.00  1500.02  1554.12
                             1640.96  1705.47  1750.57  1780.59  1829.10
                             1893.60  1917.69  1950.06  1991.26  2020.81
                             2058.94  2122.91  2161.60  2189.06  2410.38
                             2439.40  2513.16  4398.72  4428.03  4454.98
                             4476.06  4506.78  4541.96  5469.86

 Zero-point correction=                           0.142988 (Hartree/Particle)
 Thermal correction to Energy=                    0.154806
 Thermal correction to Enthalpy=                  0.155750
 Thermal correction to Gibbs Free Energy=         0.104165
 Sum of electronic and zero-point Energies=           -734.717536
 Sum of electronic and thermal Energies=              -734.705718
 Sum of electronic and thermal Enthalpies=            -734.704774
 Sum of electronic and thermal Free Energies=         -734.756359

                     E (Thermal)             CV                S
                      KCal/Mol        Cal/Mol-Kelvin    Cal/Mol-Kelvin
 Total                   97.142             42.860            108.570
 Electronic               0.000              0.000              0.000
 Translational            0.889              2.981             41.616
 Rotational               0.889              2.981             30.757
 Vibrational             95.365             36.898             36.197
 Vibration     1          0.594              1.981              5.199
 Vibration     2          0.597              1.973              4.399
 Vibration     3          0.599              1.965              3.997
 Vibration     4          0.607              1.938              3.207
 Vibration     5          0.620              1.896              2.600
 Vibration     6          0.624              1.883              2.472
 Vibration     7          0.641              1.829              2.065
 Vibration     8          0.665              1.754              1.695
 Vibration     9          0.694              1.670              1.406
 Vibration    10          0.726              1.577              1.171
 Vibration    11          0.744              1.530              1.072
 Vibration    12          0.756              1.497              1.010
 Vibration    13          0.783              1.426              0.891
 Vibration    14          0.814              1.349              0.780
 Vibration    15          0.879              1.196              0.600
 Vibration    16          0.896              1.159              0.562
 Vibration    17          0.952              1.044              0.460

 Normal termination of Gaussian 09 at Fri Aug 20 16:00:13 2021.
