 Gaussian 09, Revision E.01,
 Gaussian 09:  ES64L-G09RevE.01 30-Nov-2015

 -------------------------
 #P OPT Freq B3LYP/6-31G**
 -------------------------

 ------
 DIXDUJ
 ------
 Symbolic Z-matrix:
 Charge =  0 Multiplicity = 1

 SCF Done:  E(RB3LYP) =  -644.606836286     A.U. after   16 cycles
 SCF Done:  E(RB3LYP) =  -644.719876526     A.U. after   13 cycles
 SCF Done:  E(RB3LYP) =  -644.778591217     A.U. after   14 cycles
 SCF Done:  E(RB3LYP) =  -644.781602725     A.U. after   15 cycles
 SCF Done:  E(RB3LYP) =  -644.774681802     A.U. after   17 cycles
 SCF Done:  E(RB3LYP) =  -644.782253391     A.U. after   12 cycles
 SCF Done:  E(RB3LYP) =  -644.781352745     A.U. after   15 cycles
 SCF Done:  E(RB3LYP) =  -644.782764592     A.U. after   11 cycles
 SCF Done:  E(RB3LYP) =  -644.783131714     A.U. after   14 cycles
 SCF Done:  E(RB3LYP) =  -644.783503949     A.U. after   14 cycles
 SCF Done:  E(RB3LYP) =  -644.783647892     A.U. after   14 cycles
 SCF Done:  E(RB3LYP) =  -644.783680643     A.U. after   13 cycles
 SCF Done:  E(RB3LYP) =  -644.783719760     A.U. after   12 cycles
 SCF Done:  E(RB3LYP) =  -644.783724879     A.U. after   10 cycles
 SCF Done:  E(RB3LYP) =  -644.783725569     A.U. after    9 cycles
 SCF Done:  E(RB3LYP) =  -644.783725686     A.U. after    8 cycles
 Optimization completed.
    -- Stationary point found.
 Normal termination of Gaussian 09 at Fri Aug 20 15:37:54 2021.

 ----------------------------------------------------------------------
 #P Geom=AllCheck Guess=TCheck SCRF=Check GenChk RB3LYP/6-31G(d,p) Freq
 ----------------------------------------------------------------------

 Structure from the checkpoint file:  "/public/home/users/caep010/.cache/gau_scr/Gau-45544.chk"
 ------
 DIXDUJ
 ------
 Charge =  0 Multiplicity = 1

                         Standard orientation:
 ---------------------------------------------------------------------
 Center     Atomic      Atomic             Coordinates (Angstroms)
 Number     Number       Type             X           Y           Z
 ---------------------------------------------------------------------
      1          8           0        2.880631    1.308135    0.018385
      2          6           0        2.552428    0.132648    0.011115
      3          7           0        1.239356   -0.319054    0.011370
      4          6           0        0.061170    0.417648    0.004174
      5          6           0        0.062678    1.828943    0.001451
      6          6           0       -1.209756   -0.226453    0.000401
      7          7           0       -1.367196   -1.679065    0.003135
      8          8           0       -0.353173   -2.404674    0.007462
      9          8           0       -2.503467   -2.144629    0.001212
     10          6           0       -2.399873    0.514739   -0.006445
     11          6           0       -2.366362    1.897461   -0.009414
     12          1           0       -3.290549    2.464776   -0.014637
     13          6           0       -1.125234    2.545086   -0.005369
     14          1           0       -1.080117    3.630097   -0.007480
     15          6           0        3.566161   -0.998712   -0.024211
     16          1           0        1.078152   -1.322919    0.008796
     17          1           0       -3.334442   -0.030170   -0.009294
     18          1           0        3.604857   -1.434846   -1.028657
     19          1           0        1.018312    2.331755    0.005158
     20          1           0        3.312206   -1.798250    0.678341
     21          1           0        4.547259   -0.592431    0.219554
 ---------------------------------------------------------------------

 SCF Done:  E(RB3LYP) =  -644.783725686     A.U. after    1 cycles

 The electronic state is 1-A.
 Alpha  occ. eigenvalues --  -19.19209 -19.19042 -19.13753 -14.58336 -14.38569
 Alpha  occ. eigenvalues --  -10.31174 -10.27616 -10.26175 -10.22120 -10.21940
 Alpha  occ. eigenvalues --  -10.21106 -10.20644 -10.20339  -1.23308  -1.05930
 Alpha  occ. eigenvalues --   -1.05420  -0.96104  -0.88309  -0.81468  -0.78273
 Alpha  occ. eigenvalues --   -0.74373  -0.70574  -0.65429  -0.62116  -0.59518
 Alpha  occ. eigenvalues --   -0.55469  -0.54130  -0.54094  -0.52346  -0.49710
 Alpha  occ. eigenvalues --   -0.48704  -0.46618  -0.46100  -0.44846  -0.42262
 Alpha  occ. eigenvalues --   -0.41386  -0.41273  -0.39699  -0.37906  -0.37578
 Alpha  occ. eigenvalues --   -0.33095  -0.32031  -0.31795  -0.30177  -0.28266
 Alpha  occ. eigenvalues --   -0.26675  -0.24386
 Alpha virt. eigenvalues --   -0.09886  -0.03102  -0.00397   0.02676   0.07980
 Alpha virt. eigenvalues --    0.09358   0.12896   0.13409   0.14214   0.15112
 Alpha virt. eigenvalues --    0.15752   0.17566   0.18409   0.19876   0.20604

 Mulliken charges:
               1
     1  O   -0.477708
     2  C    0.571964
     3  N   -0.640561
     4  C    0.319657
     5  C   -0.107276
     6  C    0.228663
     7  N    0.376944
     8  O   -0.442131
     9  O   -0.388819
    10  C   -0.103599
    11  C   -0.093769
    12  H    0.102872
    13  C   -0.082937
    14  H    0.107591
    15  C   -0.406312
    16  H    0.307353
    17  H    0.142015
    18  H    0.147752
    19  H    0.154419
    20  H    0.133428
    21  H    0.150453
 Sum of Mulliken charges =  -0.00000

 Dipole moment (field-independent basis, Debye):
    X=              0.0126    Y=              1.3020    Z=             -0.0969  Tot=              1.3056
 Quadrupole moment (field-independent basis, Debye-Ang):
   XX=            -72.0619   YY=            -77.6114   ZZ=            -73.9929
   XY=            -15.3859   XZ=             -0.2428   YZ=              0.0257

  Exact polarizability: 154.663  -4.297 133.454   0.062   0.119  44.123
 Approx polarizability: 256.353   5.876 232.808   0.501   0.117  68.024

                      1                      2                      3
                      A                      A                      A
 Frequencies --     39.4580                42.8180                78.7878
 Red. masses --      2.1613                 1.8936                 3.1950
 Frc consts  --      0.0020                 0.0020                 0.0117
 IR Inten    --      3.6138                 0.0361                 5.9854

                      4                      5                      6
                      A                      A                      A
 Frequencies --     89.8640               147.5081               156.7173
 Red. masses --      6.4190                 5.0846                 4.6822
 Frc consts  --      0.0305                 0.0652                 0.0678
 IR Inten    --      0.3973                 0.4313                10.8771

                      7                      8                      9
                      A                      A                      A
 Frequencies --    273.8855               274.4214               335.2180
 Red. masses --      7.4878                 5.6019                 4.6352
 Frc consts  --      0.3309                 0.2486                 0.3069
 IR Inten    --      0.0483                 0.1174                 0.1406

                     10                     11                     12
                      A                      A                      A
 Frequencies --    351.0588               423.3402               437.5384
 Red. masses --      8.0290                 6.8059                 3.7724
 Frc consts  --      0.5830                 0.7186                 0.4255
 IR Inten    --      1.9839                 2.8608                 0.0376

                     13                     14                     15
                      A                      A                      A
 Frequencies --    534.1360               536.3158               562.9993
 Red. masses --      4.4183                 4.0791                 5.6865
 Frc consts  --      0.7427                 0.6913                 1.0620
 IR Inten    --     11.9225                 9.9266                 1.1899

                     16                     17                     18
                      A                      A                      A
 Frequencies --    595.5427               666.7141               705.2722
 Red. masses --      2.9587                 5.6837                 6.3576
 Frc consts  --      0.6183                 1.4886                 1.8632
 IR Inten    --      4.2313                 9.0915                 5.0925

                     19                     20                     21
                      A                      A                      A
 Frequencies --    706.4367               750.0177               766.4494
 Red. masses --      4.8344                 2.7325                 1.1483
 Frc consts  --      1.4215                 0.9056                 0.3974
 IR Inten    --      7.0395                71.3603                28.7391

                     22                     23                     24
                      A                      A                      A
 Frequencies --    797.7489               850.1051               866.0490
 Red. masses --      1.6881                 4.9561                 8.5242
 Frc consts  --      0.6330                 2.1103                 3.7670
 IR Inten    --     16.5508                 2.2844                22.1555

                     25                     26                     27
                      A                      A                      A
 Frequencies --    903.8827               967.4843               982.5050
 Red. masses --      1.3879                 5.9920                 1.3193
 Frc consts  --      0.6681                 3.3045                 0.7503
 IR Inten    --      2.1388                 4.5618                 1.7317

                     28                     29                     30
                      A                      A                      A
 Frequencies --   1012.8809              1015.6811              1053.9155
 Red. masses --      1.6812                 1.2950                 1.7306
 Frc consts  --      1.0162                 0.7871                 1.1325
 IR Inten    --     33.3988                 1.7403                 7.1933

                     31                     32                     33
                      A                      A                      A
 Frequencies --   1072.3499              1103.4895              1170.5664
 Red. masses --      2.5598                 2.9675                 1.7056
 Frc consts  --      1.7343                 2.1290                 1.3770
 IR Inten    --     17.5560                33.8184                52.5129

                     34                     35                     36
                      A                      A                      A
 Frequencies --   1190.3371              1250.0239              1255.1889
 Red. masses --      1.1629                 2.5311                 1.8508
 Frc consts  --      0.9708                 2.3302                 1.7180
 IR Inten    --      8.1129               124.0555                28.0879

                     37                     38                     39
                      A                      A                      A
 Frequencies --   1311.7871              1359.5207              1381.5704
 Red. masses --      2.8717                 3.7433                 4.9202
 Frc consts  --      2.9115                 4.0764                 5.5333
 IR Inten    --    207.3343                80.8850               253.0952

                     40                     41                     42
                      A                      A                      A
 Frequencies --   1405.7789              1472.7164              1484.2130
 Red. masses --      1.3691                 1.7670                 1.3267
 Frc consts  --      1.5941                 2.2580                 1.7219
 IR Inten    --     82.9283               116.0195                 6.8817

                     43                     44                     45
                      A                      A                      A
 Frequencies --   1496.2667              1503.0772              1555.3229
 Red. masses --      1.1087                 2.2705                 2.8477
 Frc consts  --      1.4624                 3.0223                 4.0587
 IR Inten    --     14.1957                42.3346               604.9374

                     46                     47                     48
                      A                      A                      A
 Frequencies --   1621.2775              1637.2525              1671.5884
 Red. masses --      6.8237                 3.0114                 6.3280
 Frc consts  --     10.5678                 4.7560                10.4178
 IR Inten    --     86.5443               150.3098               114.9648

                     49                     50                     51
                      A                      A                      A
 Frequencies --   1797.5399              3055.4832              3121.4973
 Red. masses --      8.6434                 1.0387                 1.1006
 Frc consts  --     16.4547                 5.7134                 6.3184
 IR Inten    --    170.6807                 2.3629                 7.7870

                     52                     53                     54
                      A                      A                      A
 Frequencies --   3178.1204              3196.3119              3216.3490
 Red. masses --      1.1016                 1.0887                 1.0938
 Frc consts  --      6.5555                 6.5534                 6.6670
 IR Inten    --      5.4920                 6.7569                10.0651

                     55                     56                     57
                      A                      A                      A
 Frequencies --   3252.1700              3270.8538              3495.2068
 Red. masses --      1.0926                 1.0924                 1.0787
 Frc consts  --      6.8085                 6.8855                 7.7644
 IR Inten    --      2.9803                12.6014               150.8823

 - Thermochemistry -
 -------------------
 Temperature   298.150 Kelvin.  Pressure   1.00000 Atm.
 Atom     1 has atomic number  8 and mass  15.99491

 Molecular mass:   180.05349 amu.
 Principal axes and moments of inertia in atomic units:
                           1         2         3
     Eigenvalues --  1590.603572701.315974280.50764
           X            0.99688  -0.07890  -0.00049
           Y            0.07890   0.99688   0.00016
           Z            0.00047  -0.00020   1.00000
 This molecule is an asymmetric top.
 Rotational symmetry number  1.
 Warning -- assumption of classical behavior for rotation
           may cause significant error
 Rotational temperatures (Kelvin)      0.05445     0.03206     0.02023
 Rotational constants (GHZ):           1.13463     0.66810     0.42162
 Zero-point vibrational energy     415406.9 (Joules/Mol)
                                   99.28463 (Kcal/Mol)
 Warning -- explicit consideration of  16 degrees of freedom as
           vibrations may cause significant error
 Vibrational temperatures:     56.77    61.61   113.36   129.29   212.23
          (Kelvin)            225.48   394.06   394.83   482.30   505.09
                              609.09   629.52   768.50   771.64   810.03
                              856.85   959.25  1014.73  1016.40  1079.11
                             1102.75  1147.78  1223.11  1246.05  1300.48
                             1391.99  1413.60  1457.31  1461.34  1516.35
                             1542.87  1587.67  1684.18  1712.63  1798.50
                             1805.93  1887.37  1956.04  1987.77  2022.60
                             2118.91  2135.45  2152.79  2162.59  2237.76
                             2332.65  2355.64  2405.04  2586.26  4396.15
                             4491.13  4572.60  4598.77  4627.60  4679.14
                             4706.02  5028.82

 Zero-point correction=                           0.158220 (Hartree/Particle)
 Thermal correction to Energy=                    0.169673
 Thermal correction to Enthalpy=                  0.170617
 Thermal correction to Gibbs Free Energy=         0.119091
 Sum of electronic and zero-point Energies=           -644.625506
 Sum of electronic and thermal Energies=              -644.614052
 Sum of electronic and thermal Enthalpies=            -644.613108
 Sum of electronic and thermal Free Energies=         -644.664635

                     E (Thermal)             CV                S
                      KCal/Mol        Cal/Mol-Kelvin    Cal/Mol-Kelvin
 Total                  106.472             42.047            108.446
 Electronic               0.000              0.000              0.000
 Translational            0.889              2.981             41.471
 Rotational               0.889              2.981             31.287
 Vibrational            104.694             36.085             35.688
 Vibration     1          0.594              1.981              5.286
 Vibration     2          0.595              1.980              5.124
 Vibration     3          0.600              1.963              3.921
 Vibration     4          0.602              1.956              3.663
 Vibration     5          0.617              1.905              2.704
 Vibration     6          0.620              1.895              2.589
 Vibration     7          0.676              1.722              1.572
 Vibration     8          0.677              1.721              1.568
 Vibration     9          0.716              1.605              1.235
 Vibration    10          0.728              1.573              1.161
 Vibration    11          0.786              1.419              0.881
 Vibration    12          0.798              1.388              0.834
 Vibration    13          0.889              1.175              0.578
 Vibration    14          0.891              1.170              0.573
 Vibration    15          0.919              1.111              0.518
 Vibration    16          0.953              1.041              0.457

 Normal termination of Gaussian 09 at Fri Aug 20 15:38:28 2021.
