 Gaussian 09, Revision E.01,
 Gaussian 09:  ES64L-G09RevE.01 30-Nov-2015

 -------------------------
 #P OPT Freq B3LYP/6-31G**
 -------------------------

 ------
 YEYMAR
 ------
 Symbolic Z-matrix:
 Charge =  0 Multiplicity = 1

 SCF Done:  E(RB3LYP) =  -660.579378765     A.U. after   15 cycles
 SCF Done:  E(RB3LYP) =  -660.695028840     A.U. after   13 cycles
 SCF Done:  E(RB3LYP) =  -660.739863563     A.U. after   17 cycles
 SCF Done:  E(RB3LYP) =  -660.741823995     A.U. after   17 cycles
 SCF Done:  E(RB3LYP) =  -660.746691744     A.U. after   17 cycles
 SCF Done:  E(RB3LYP) =  -660.752526153     A.U. after   15 cycles
 SCF Done:  E(RB3LYP) =  -660.752965204     A.U. after   13 cycles
 SCF Done:  E(RB3LYP) =  -660.753443546     A.U. after   12 cycles
 SCF Done:  E(RB3LYP) =  -660.752595105     A.U. after   15 cycles
 SCF Done:  E(RB3LYP) =  -660.753902310     A.U. after   11 cycles
 SCF Done:  E(RB3LYP) =  -660.754222117     A.U. after   12 cycles
 SCF Done:  E(RB3LYP) =  -660.754417589     A.U. after   13 cycles
 SCF Done:  E(RB3LYP) =  -660.754452180     A.U. after   12 cycles
 SCF Done:  E(RB3LYP) =  -660.754464756     A.U. after   11 cycles
 SCF Done:  E(RB3LYP) =  -660.754468043     A.U. after    9 cycles
 SCF Done:  E(RB3LYP) =  -660.754468315     A.U. after    8 cycles
 Optimization completed.
    -- Stationary point found.
 Normal termination of Gaussian 09 at Fri Aug 20 15:46:51 2021.

 ----------------------------------------------------------------------
 #P Geom=AllCheck Guess=TCheck SCRF=Check GenChk RB3LYP/6-31G(d,p) Freq
 ----------------------------------------------------------------------

 Structure from the checkpoint file:  "/public/home/users/caep010/.cache/gau_scr/Gau-35018.chk"
 ------
 YEYMAR
 ------
 Charge =  0 Multiplicity = 1

                         Standard orientation:
 ---------------------------------------------------------------------
 Center     Atomic      Atomic             Coordinates (Angstroms)
 Number     Number       Type             X           Y           Z
 ---------------------------------------------------------------------
      1          8           0       -3.828757   -1.205528    0.117300
      2          7           0       -3.309659   -0.097194   -0.015713
      3          8           0       -3.933209    0.955579   -0.154351
      4          6           0       -1.841311   -0.025728   -0.007949
      5          6           0       -1.105660   -1.200913    0.150480
      6          6           0        0.280213   -1.126467    0.168798
      7          1           0       -1.626763   -2.142816    0.265359
      8          6           0        0.932337    0.110380    0.021764
      9          6           0        0.165000    1.274838   -0.146201
     10          6           0       -1.224942    1.213336   -0.159185
     11          6           0        2.411874    0.180179    0.043493
     12          7           0        3.058969   -0.894887   -0.276611
     13          7           0        3.010530    1.390854    0.331826
     14          1           0        4.011498    1.323460    0.460283
     15          8           0        4.452426   -0.660852   -0.176286
     16          1           0        4.821758   -1.508986   -0.452339
     17          1           0        2.542855    1.962515    1.020720
     18          1           0        0.658260    2.228804   -0.297707
     19          1           0       -1.833160    2.098865   -0.292400
     20          1           0        0.877922   -2.020607    0.299051
 ---------------------------------------------------------------------

 SCF Done:  E(RB3LYP) =  -660.754468315     A.U. after    1 cycles

 The electronic state is 1-A.
 Alpha  occ. eigenvalues --  -19.19551 -19.18020 -19.18003 -14.57135 -14.37641
 Alpha  occ. eigenvalues --  -14.36314 -10.27014 -10.25521 -10.23342 -10.22337
 Alpha  occ. eigenvalues --  -10.22129 -10.22053 -10.21622  -1.22297  -1.08354
 Alpha  occ. eigenvalues --   -1.05010  -0.94776  -0.89253  -0.84410  -0.80731
 Alpha  occ. eigenvalues --   -0.77582  -0.71504  -0.63846  -0.62294  -0.58312
 Alpha  occ. eigenvalues --   -0.56168  -0.54931  -0.53311  -0.53074  -0.50871
 Alpha  occ. eigenvalues --   -0.48761  -0.47076  -0.46527  -0.45649  -0.44967
 Alpha  occ. eigenvalues --   -0.42616  -0.39588  -0.39097  -0.37213  -0.34041
 Alpha  occ. eigenvalues --   -0.30909  -0.30694  -0.29262  -0.29002  -0.28412
 Alpha  occ. eigenvalues --   -0.27986  -0.22866
 Alpha virt. eigenvalues --   -0.09323  -0.02915  -0.02301   0.04586   0.06290
 Alpha virt. eigenvalues --    0.08006   0.10226   0.13004   0.13785   0.14234
 Alpha virt. eigenvalues --    0.15325   0.16119   0.18584   0.19237   0.24334

 Mulliken charges:
               1
     1  O   -0.396320
     2  N    0.385542
     3  O   -0.398310
     4  C    0.248869
     5  C   -0.095375
     6  C   -0.114255
     7  H    0.140082
     8  C    0.100688
     9  C   -0.143041
    10  C   -0.093572
    11  C    0.460949
    12  N   -0.285691
    13  N   -0.642143
    14  H    0.294496
    15  O   -0.443109
    16  H    0.338193
    17  H    0.266043
    18  H    0.111477
    19  H    0.139533
    20  H    0.125944
 Sum of Mulliken charges =  -0.00000

 Dipole moment (field-independent basis, Debye):
    X=              5.0824    Y=              0.9317    Z=              1.2557  Tot=              5.3175
 Quadrupole moment (field-independent basis, Debye-Ang):
   XX=            -83.8489   YY=            -66.3019   ZZ=            -72.8455
   XY=             -1.2308   XZ=              2.6807   YZ=              2.7321

  Exact polarizability: 182.440  -7.330 111.038  -1.613  -0.893  41.011
 Approx polarizability: 273.233 -20.293 224.992  -4.351  -4.986  64.824

                      1                      2                      3
                      A                      A                      A
 Frequencies --     51.7162                67.7943                81.1909
 Red. masses --      8.1805                 7.2904                 4.7858
 Frc consts  --      0.0129                 0.0197                 0.0186
 IR Inten    --      0.5672                 0.9129                 0.8669

                      4                      5                      6
                      A                      A                      A
 Frequencies --    131.4498               196.4931               251.6880
 Red. masses --      7.3684                 8.3143                 7.6458
 Frc consts  --      0.0750                 0.1891                 0.2854
 IR Inten    --      0.8013                 4.0529                 2.9192

                      7                      8                      9
                      A                      A                      A
 Frequencies --    280.3452               303.3923               346.4038
 Red. masses --      7.6071                 2.0137                 4.0631
 Frc consts  --      0.3523                 0.1092                 0.2873
 IR Inten    --      0.6191                63.6219                 9.0906

                     10                     11                     12
                      A                      A                      A
 Frequencies --    360.6485               416.2937               426.0512
 Red. masses --      1.8449                 1.6929                 2.4079
 Frc consts  --      0.1414                 0.1729                 0.2575
 IR Inten    --     76.1664                38.7643                11.7730

                     13                     14                     15
                      A                      A                      A
 Frequencies --    458.2715               504.0299               507.9424
 Red. masses --      2.5391                 6.6779                 3.4576
 Frc consts  --      0.3142                 0.9995                 0.5256
 IR Inten    --      4.0581                25.8466                12.4230

                     16                     17                     18
                      A                      A                      A
 Frequencies --    541.6670               591.8984               642.3169
 Red. masses --      5.7269                 1.5075                 6.9643
 Frc consts  --      0.9900                 0.3112                 1.6929
 IR Inten    --      0.5142               127.8370                 0.9312

                     19                     20                     21
                      A                      A                      A
 Frequencies --    694.6705               708.3816               718.6563
 Red. masses --      3.7618                 5.4219                 4.0276
 Frc consts  --      1.0695                 1.6030                 1.2256
 IR Inten    --     45.3451                 8.0897                68.0896

                     22                     23                     24
                      A                      A                      A
 Frequencies --    767.6003               820.6761               861.2968
 Red. masses --      6.0376                 4.3140                 1.2474
 Frc consts  --      2.0960                 1.7119                 0.5452
 IR Inten    --      7.8442                68.0021                 0.3830

                     25                     26                     27
                      A                      A                      A
 Frequencies --    872.2332               887.7984               976.3453
 Red. masses --      8.0414                 1.7263                 9.5625
 Frc consts  --      3.6045                 0.8017                 5.3707
 IR Inten    --     20.7935                38.7818               149.6129

                     28                     29                     30
                      A                      A                      A
 Frequencies --    993.3232              1001.9727              1031.4749
 Red. masses --      1.3176                 1.3229                 2.8701
 Frc consts  --      0.7660                 0.7825                 1.7991
 IR Inten    --      0.2388                 0.9138                 1.2502

                     31                     32                     33
                      A                      A                      A
 Frequencies --   1109.3433              1129.6009              1132.9307
 Red. masses --      2.2943                 2.9157                 1.2988
 Frc consts  --      1.6635                 2.1920                 0.9822
 IR Inten    --     50.7649                59.0717                 8.1372

                     34                     35                     36
                      A                      A                      A
 Frequencies --   1164.1610              1205.0200              1322.5515
 Red. masses --      1.8787                 1.3058                 1.3371
 Frc consts  --      1.5002                 1.1172                 1.3779
 IR Inten    --     11.3971                 0.5860                 2.8022

                     37                     38                     39
                      A                      A                      A
 Frequencies --   1342.2760              1373.7910              1395.3112
 Red. masses --      1.5535                 6.5861                13.8786
 Frc consts  --      1.6491                 7.3236                15.9198
 IR Inten    --    135.2405                13.6561               414.4557

                     40                     41                     42
                      A                      A                      A
 Frequencies --   1441.0279              1446.3988              1539.4710
 Red. masses --      2.5884                 3.1751                 2.6851
 Frc consts  --      3.1668                 3.9136                 3.7493
 IR Inten    --      4.8206                14.6601                 9.8843

                     43                     44                     45
                      A                      A                      A
 Frequencies --   1609.3502              1629.4267              1654.1136
 Red. masses --      9.5484                 1.2753                 5.4143
 Frc consts  --     14.5707                 1.9950                 8.7281
 IR Inten    --     81.1589                48.6371                53.4488

                     46                     47                     48
                      A                      A                      A
 Frequencies --   1663.8097              1710.6508              3212.0298
 Red. masses --      9.2349                 5.3785                 1.0900
 Frc consts  --     15.0623                 9.2734                 6.6257
 IR Inten    --    151.4148                88.3408                 3.0770

                     49                     50                     51
                      A                      A                      A
 Frequencies --   3230.4705              3247.3570              3247.9051
 Red. masses --      1.0897                 1.0930                 1.0943
 Frc consts  --      6.7001                 6.7907                 6.8011
 IR Inten    --      0.5604                 0.6907                 1.3191

                     52                     53                     54
                      A                      A                      A
 Frequencies --   3576.3268              3689.8901              3837.2683
 Red. masses --      1.0464                 1.1001                 1.0680
 Frc consts  --      7.8852                 8.8248                 9.2651
 IR Inten    --     32.2586                29.1625               125.2069

 - Thermochemistry -
 -------------------
 Temperature   298.150 Kelvin.  Pressure   1.00000 Atm.
 Atom     1 has atomic number  8 and mass  15.99491

 Molecular mass:   181.04874 amu.
 Principal axes and moments of inertia in atomic units:
                           1         2         3
     Eigenvalues --   665.421665088.310825705.80356
           X            1.00000   0.00194   0.00175
           Y           -0.00195   0.99999   0.00492
           Z           -0.00174  -0.00492   0.99999
 This molecule is an asymmetric top.
 Rotational symmetry number  1.
 Warning -- assumption of classical behavior for rotation
           may cause significant error
 Rotational temperatures (Kelvin)      0.13016     0.01702     0.01518
 Rotational constants (GHZ):           2.71218     0.35468     0.31630
 Zero-point vibrational energy     385224.5 (Joules/Mol)
                                   92.07086 (Kcal/Mol)
 Warning -- explicit consideration of  17 degrees of freedom as
           vibrations may cause significant error
 Vibrational temperatures:     74.41    97.54   116.82   189.13   282.71
          (Kelvin)            362.12   403.35   436.51   498.40   518.89
                              598.95   612.99   659.35   725.19   730.81
                              779.34   851.61   924.15   999.47  1019.20
                             1033.98  1104.40  1180.77  1239.21  1254.95
                             1277.34  1404.74  1429.17  1441.61  1484.06
                             1596.10  1625.24  1630.03  1674.97  1733.75
                             1902.85  1931.23  1976.58  2007.54  2073.32
                             2081.04  2214.95  2315.49  2344.38  2379.90
                             2393.85  2461.24  4621.39  4647.92  4672.22
                             4673.01  5145.53  5308.92  5520.97

 Zero-point correction=                           0.146724 (Hartree/Particle)
 Thermal correction to Energy=                    0.158019
 Thermal correction to Enthalpy=                  0.158963
 Thermal correction to Gibbs Free Energy=         0.108832
 Sum of electronic and zero-point Energies=           -660.607744
 Sum of electronic and thermal Energies=              -660.596450
 Sum of electronic and thermal Enthalpies=            -660.595506
 Sum of electronic and thermal Free Energies=         -660.645636

                     E (Thermal)             CV                S
                      KCal/Mol        Cal/Mol-Kelvin    Cal/Mol-Kelvin
 Total                   99.158             42.780            105.509
 Electronic               0.000              0.000              0.000
 Translational            0.889              2.981             41.487
 Rotational               0.889              2.981             31.336
 Vibrational             97.381             36.818             32.686
 Vibration     1          0.596              1.977              4.751
 Vibration     2          0.598              1.970              4.216
 Vibration     3          0.600              1.962              3.862
 Vibration     4          0.612              1.922              2.925
 Vibration     5          0.636              1.845              2.166
 Vibration     6          0.664              1.760              1.719
 Vibration     7          0.680              1.710              1.532
 Vibration     8          0.695              1.667              1.398
 Vibration     9          0.724              1.583              1.183
 Vibration    10          0.735              1.553              1.119
 Vibration    11          0.780              1.435              0.905
 Vibration    12          0.788              1.414              0.872
 Vibration    13          0.816              1.343              0.771
 Vibration    14          0.859              1.241              0.648
 Vibration    15          0.863              1.232              0.639
 Vibration    16          0.897              1.158              0.562
 Vibration    17          0.949              1.049              0.464

 Optimization completed.
    -- Stationary point found.
 Normal termination of Gaussian 09 at Fri Aug 20 15:47:22 2021.
