 Gaussian 09, Revision E.01,
 Gaussian 09:  ES64L-G09RevE.01 30-Nov-2015

 --------------------------------
 #P OPT=calcfc Freq B3LYP/6-31G**
 --------------------------------

 --------
 WERVEU02
 --------
 Symbolic Z-matrix:
 Charge =  0 Multiplicity = 1

 SCF Done:  E(RB3LYP) =  -752.026055256     A.U. after   16 cycles
 SCF Done:  E(RB3LYP) =  -752.026432876     A.U. after   12 cycles
 SCF Done:  E(RB3LYP) =  -752.026436225     A.U. after    9 cycles
 SCF Done:  E(RB3LYP) =  -752.026436988     A.U. after    9 cycles
 SCF Done:  E(RB3LYP) =  -752.026437056     A.U. after    8 cycles
 Optimization completed.
    -- Stationary point found.
 Normal termination of Gaussian 09 at Sun Aug 22 16:33:25 2021.

 ----------------------------------------------------------------------
 #P Geom=AllCheck Guess=TCheck SCRF=Check GenChk RB3LYP/6-31G(d,p) Freq
 ----------------------------------------------------------------------

 Structure from the checkpoint file:  "/public/home/users/caep010/.cache/gau_scr/Gau-152072.chk"
 --------
 WERVEU02
 --------
 Charge =  0 Multiplicity = 1

                         Standard orientation:
 ---------------------------------------------------------------------
 Center     Atomic      Atomic             Coordinates (Angstroms)
 Number     Number       Type             X           Y           Z
 ---------------------------------------------------------------------
      1          8           0        1.581540   -0.662134   -0.002917
      2          6           0        2.619506    0.206437    0.000819
      3          6           0        2.191100    1.507682    0.001720
      4          1           0        2.825902    2.379696    0.004127
      5          6           0        0.777519    1.439404   -0.001719
      6          1           0        0.077597    2.260746   -0.003469
      7          6           0        0.447296    0.098201   -0.004370
      8          7           0        3.936670   -0.336509    0.003084
      9          8           0        4.857678    0.488276    0.006658
     10          8           0        4.059321   -1.561425    0.001459
     11          6           0       -0.792017   -0.637286   -0.009060
     12          7           0       -1.919907   -0.010409   -0.002853
     13          7           0       -3.052324   -0.726635   -0.007755
     14          1           0       -3.053332   -1.744031   -0.008408
     15          6           0       -4.326006   -0.129963    0.002162
     16          1           0       -0.716428   -1.728479   -0.018448
     17          8           0       -5.319110   -0.838241    0.019933
     18          7           0       -4.312017    1.228339   -0.029311
     19          1           0       -3.445385    1.733321    0.062303
     20          1           0       -5.195109    1.696588    0.083362
 ---------------------------------------------------------------------

 SCF Done:  E(RB3LYP) =  -752.026437056     A.U. after    1 cycles

 The electronic state is 1-A.
 Alpha  occ. eigenvalues --  -19.26186 -19.18286 -19.18095 -19.12462 -14.58041
 Alpha  occ. eigenvalues --  -14.42277 -14.41766 -14.36908 -10.33336 -10.30872
 Alpha  occ. eigenvalues --  -10.29274 -10.26541 -10.23874 -10.22938  -1.22959
 Alpha  occ. eigenvalues --   -1.16083  -1.07947  -1.05394  -1.03076  -0.92355
 Alpha  occ. eigenvalues --   -0.87416  -0.85152  -0.82599  -0.74052  -0.66716
 Alpha  occ. eigenvalues --   -0.64432  -0.64078  -0.59211  -0.57532  -0.56697
 Alpha  occ. eigenvalues --   -0.54875  -0.54634  -0.52272  -0.50761  -0.49995
 Alpha  occ. eigenvalues --   -0.48992  -0.47029  -0.45472  -0.44359  -0.42805
 Alpha  occ. eigenvalues --   -0.42136  -0.40249  -0.33282  -0.32534  -0.31205
 Alpha  occ. eigenvalues --   -0.30947  -0.30562  -0.29508  -0.28396  -0.28053
 Alpha  occ. eigenvalues --   -0.23749
 Alpha virt. eigenvalues --   -0.10324  -0.05572   0.03289   0.05352   0.06336
 Alpha virt. eigenvalues --    0.07231   0.07500   0.09507   0.10107   0.12474
 Alpha virt. eigenvalues --    0.13817   0.15292   0.16964   0.19974   0.21504

 Mulliken charges:
               1
     1  O   -0.458491
     2  C    0.519343
     3  C   -0.083919
     4  H    0.146799
     5  C   -0.137274
     6  H    0.122226
     7  C    0.337784
     8  N    0.331292
     9  O   -0.405671
    10  O   -0.392179
    11  C    0.064552
    12  N   -0.246841
    13  N   -0.375246
    14  H    0.274160
    15  C    0.743062
    16  H    0.116731
    17  O   -0.509027
    18  N   -0.623164
    19  H    0.286781
    20  H    0.289081
 Sum of Mulliken charges =  -0.00000

 Dipole moment (field-independent basis, Debye):
    X=             -2.6944    Y=              3.3807    Z=              0.2743  Tot=              4.3318
 Quadrupole moment (field-independent basis, Debye-Ang):
   XX=           -116.7668   YY=            -69.7057   ZZ=            -78.2704
   XY=             -4.1317   XZ=             -1.3037   YZ=              0.6988

  Exact polarizability: 251.368   5.675 105.970  -0.163   0.107  39.267
 Approx polarizability: 384.633  16.583 201.290  -0.207  -0.137  60.716

                      1                      2                      3
                      A                      A                      A
 Frequencies --     32.1555                52.9236                61.5304
 Red. masses --      5.8221                 9.2771                 7.6104
 Frc consts  --      0.0035                 0.0153                 0.0170
 IR Inten    --      0.7643                 0.1831                 4.0892

                      4                      5                      6
                      A                      A                      A
 Frequencies --     81.0951               119.9628               156.4077
 Red. masses --      9.6106                 8.1309                 7.1563
 Frc consts  --      0.0372                 0.0689                 0.1031
 IR Inten    --      1.7167                 0.7266                 3.7073

                      7                      8                      9
                      A                      A                      A
 Frequencies --    168.6400               206.6517               252.7615
 Red. masses --      1.4012                 6.3426                 7.0292
 Frc consts  --      0.0235                 0.1596                 0.2646
 IR Inten    --    149.3924                 5.5225                15.8431

                     10                     11                     12
                      A                      A                      A
 Frequencies --    280.5386               283.5759               365.9495
 Red. masses --      8.5402                 2.3796                 6.5342
 Frc consts  --      0.3960                 0.1127                 0.5156
 IR Inten    --      3.6741               110.7063                 1.4014

                     13                     14                     15
                      A                      A                      A
 Frequencies --    420.9251               467.9162               513.0885
 Red. masses --      4.7168                 9.6783                 1.1464
 Frc consts  --      0.4924                 1.2485                 0.1778
 IR Inten    --     14.0572                18.3110                56.5657

                     16                     17                     18
                      A                      A                      A
 Frequencies --    543.5823               558.9592               582.4084
 Red. masses --      5.0566                 2.5403                 1.2848
 Frc consts  --      0.8803                 0.4676                 0.2568
 IR Inten    --     29.6214                22.5580                37.2941

                     19                     20                     21
                      A                      A                      A
 Frequencies --    593.8733               650.4917               683.6305
 Red. masses --      5.0685                 5.8193                 5.1350
 Frc consts  --      1.0532                 1.4508                 1.4139
 IR Inten    --      0.3158                 9.4073                 0.3716

                     22                     23                     24
                      A                      A                      A
 Frequencies --    741.6060               743.2437               792.4716
 Red. masses --      8.9403                 8.8701                 4.7616
 Frc consts  --      2.8970                 2.8870                 1.7619
 IR Inten    --     24.2118                12.0445                21.5571

                     25                     26                     27
                      A                      A                      A
 Frequencies --    820.0239               821.0160               910.2582
 Red. masses --     12.0659                 1.3078                 1.3515
 Frc consts  --      4.7804                 0.5194                 0.6598
 IR Inten    --     33.1257                33.3169                 2.9655

                     28                     29                     30
                      A                      A                      A
 Frequencies --    930.4020               976.0131               990.8548
 Red. masses --      1.4756                 4.4809                 6.1888
 Frc consts  --      0.7526                 2.5149                 3.5799
 IR Inten    --     14.1692                15.8849                 6.8467

                     31                     32                     33
                      A                      A                      A
 Frequencies --   1017.7479              1044.4038              1095.9968
 Red. masses --      3.2112                 1.2897                 1.7855
 Frc consts  --      1.9597                 0.8289                 1.2637
 IR Inten    --      1.9540                62.7308                45.5896

                     34                     35                     36
                      A                      A                      A
 Frequencies --   1200.4817              1216.9580              1246.5273
 Red. masses --      4.0483                 2.0352                 3.9535
 Frc consts  --      3.4375                 1.7759                 3.6194
 IR Inten    --    154.3992                17.5748               336.4920

                     37                     38                     39
                      A                      A                      A
 Frequencies --   1292.1203              1358.0117              1393.9748
 Red. masses --      3.9675                 1.7019                 5.0541
 Frc consts  --      3.9027                 1.8492                 5.7863
 IR Inten    --     45.0965               138.0549              1117.5538

                     40                     41                     42
                      A                      A                      A
 Frequencies --   1408.3728              1429.4509              1488.0665
 Red. masses --      3.6188                 3.5193                 2.5581
 Frc consts  --      4.2292                 4.2369                 3.3374
 IR Inten    --     28.1809               102.0249               254.2251

                     43                     44                     45
                      A                      A                      A
 Frequencies --   1551.6338              1601.8773              1616.9421
 Red. masses --      5.0167                 1.3280                 8.1236
 Frc consts  --      7.1162                 2.0077                12.5137
 IR Inten    --     16.9321               312.6982                61.2112

                     46                     47                     48
                      A                      A                      A
 Frequencies --   1634.9479              1666.8271              1840.9911
 Red. masses --      9.9883                 7.6529                 8.0789
 Frc consts  --     15.7308                12.5273                16.1327
 IR Inten    --    141.9988               129.5924               523.5333

                     49                     50                     51
                      A                      A                      A
 Frequencies --   3105.8201              3285.1386              3301.3115
 Red. masses --      1.0884                 1.0945                 1.1016
 Frc consts  --      6.1856                 6.9593                 7.0735
 IR Inten    --     22.7313                 0.2966                 3.9870

                     52                     53                     54
                      A                      A                      A
 Frequencies --   3529.4167              3622.8937              3767.2259
 Red. masses --      1.0768                 1.0445                 1.1059
 Frc consts  --      7.9031                 8.0776                 9.2473
 IR Inten    --     27.6698                37.0413               100.7529

 - Thermochemistry -
 -------------------
 Temperature   298.150 Kelvin.  Pressure   1.00000 Atm.
 Atom     1 has atomic number  8 and mass  15.99491

 Molecular mass:   198.03890 amu.
 Principal axes and moments of inertia in atomic units:
                           1         2         3
     Eigenvalues --   613.523327968.584728581.87727
           X            1.00000  -0.00074  -0.00027
           Y            0.00074   1.00000   0.00174
           Z            0.00027  -0.00174   1.00000
 This molecule is an asymmetric top.
 Rotational symmetry number  1.
 Warning -- assumption of classical behavior for rotation
           may cause significant error
 Rotational temperatures (Kelvin)      0.14117     0.01087     0.01009
 Rotational constants (GHZ):           2.94160     0.22648     0.21030
 Zero-point vibrational energy     361990.6 (Joules/Mol)
                                   86.51782 (Kcal/Mol)
 Warning -- explicit consideration of  19 degrees of freedom as
           vibrations may cause significant error
 Vibrational temperatures:     46.26    76.15    88.53   116.68   172.60
          (Kelvin)            225.04   242.64   297.33   363.67   403.63
                              408.00   526.52   605.62   673.23   738.22
                              782.09   804.22   837.95   854.45   935.91
                              983.59  1067.00  1069.36  1140.19  1179.83
                             1181.26  1309.66  1338.64  1404.26  1425.62
                             1464.31  1502.66  1576.89  1727.22  1750.93
                             1793.47  1859.07  1953.87  2005.62  2026.33
                             2056.66  2140.99  2232.45  2304.74  2326.42
                             2352.32  2398.19  2648.77  4468.58  4726.58
                             4749.85  5078.04  5212.53  5420.19

 Zero-point correction=                           0.137875 (Hartree/Particle)
 Thermal correction to Energy=                    0.150712
 Thermal correction to Enthalpy=                  0.151656
 Thermal correction to Gibbs Free Energy=         0.096709
 Sum of electronic and zero-point Energies=           -751.888562
 Sum of electronic and thermal Energies=              -751.875725
 Sum of electronic and thermal Enthalpies=            -751.874781
 Sum of electronic and thermal Free Energies=         -751.929728

                     E (Thermal)             CV                S
                      KCal/Mol        Cal/Mol-Kelvin    Cal/Mol-Kelvin
 Total                   94.573             45.869            115.646
 Electronic               0.000              0.000              0.000
 Translational            0.889              2.981             41.755
 Rotational               0.889              2.981             32.106
 Vibrational             92.796             39.907             41.785
 Vibration     1          0.594              1.983              5.692
 Vibration     2          0.596              1.976              4.705
 Vibration     3          0.597              1.973              4.408
 Vibration     4          0.600              1.962              3.864
 Vibration     5          0.609              1.933              3.101
 Vibration     6          0.620              1.895              2.593
 Vibration     7          0.625              1.881              2.451
 Vibration     8          0.641              1.830              2.073
 Vibration     9          0.664              1.758              1.711
 Vibration    10          0.680              1.710              1.530
 Vibration    11          0.682              1.704              1.512
 Vibration    12          0.739              1.542              1.097
 Vibration    13          0.783              1.425              0.889
 Vibration    14          0.825              1.321              0.743
 Vibration    15          0.868              1.221              0.626
 Vibration    16          0.899              1.154              0.558
 Vibration    17          0.915              1.120              0.526
 Vibration    18          0.939              1.069              0.481
 Vibration    19          0.951              1.045              0.460

 Optimization completed.
    -- Stationary point found.
 Normal termination of Gaussian 09 at Sun Aug 22 16:33:54 2021.
