 Gaussian 09, Revision E.01,
 Gaussian 09:  ES64L-G09RevE.01 30-Nov-2015

 -------------------------
 #P OPT Freq B3LYP/6-31G**
 -------------------------

 ------
 FICDOK
 ------
 Symbolic Z-matrix:
 Charge =  0 Multiplicity = 1

 SCF Done:  E(RB3LYP) =  -584.452340773     A.U. after   15 cycles
 SCF Done:  E(RB3LYP) =  -584.526419545     A.U. after   14 cycles
 SCF Done:  E(RB3LYP) =  -584.552155154     A.U. after   16 cycles
 SCF Done:  E(RB3LYP) =  -584.542036081     A.U. after   17 cycles
 SCF Done:  E(RB3LYP) =  -584.554621161     A.U. after   13 cycles
 SCF Done:  E(RB3LYP) =  -584.555441913     A.U. after   13 cycles
 SCF Done:  E(RB3LYP) =  -584.555477227     A.U. after   13 cycles
 SCF Done:  E(RB3LYP) =  -584.555603848     A.U. after   13 cycles
 SCF Done:  E(RB3LYP) =  -584.555620006     A.U. after   10 cycles
 SCF Done:  E(RB3LYP) =  -584.555626734     A.U. after   10 cycles
 SCF Done:  E(RB3LYP) =  -584.555637948     A.U. after   10 cycles
 SCF Done:  E(RB3LYP) =  -584.555638411     A.U. after    9 cycles
 SCF Done:  E(RB3LYP) =  -584.555638792     A.U. after    9 cycles
 SCF Done:  E(RB3LYP) =  -584.555639382     A.U. after    9 cycles
 SCF Done:  E(RB3LYP) =  -584.555640536     A.U. after   10 cycles
 SCF Done:  E(RB3LYP) =  -584.555641690     A.U. after   10 cycles
 SCF Done:  E(RB3LYP) =  -584.555642385     A.U. after   10 cycles
 SCF Done:  E(RB3LYP) =  -584.555642752     A.U. after   10 cycles
 SCF Done:  E(RB3LYP) =  -584.555642815     A.U. after    8 cycles
 Optimization completed.
    -- Stationary point found.
 Normal termination of Gaussian 09 at Fri Aug 20 15:45:29 2021.

 ----------------------------------------------------------------------
 #P Geom=AllCheck Guess=TCheck SCRF=Check GenChk RB3LYP/6-31G(d,p) Freq
 ----------------------------------------------------------------------

 Structure from the checkpoint file:  "/public/home/users/caep010/.cache/gau_scr/Gau-212606.chk"
 ------
 FICDOK
 ------
 Charge =  0 Multiplicity = 1

                         Standard orientation:
 ---------------------------------------------------------------------
 Center     Atomic      Atomic             Coordinates (Angstroms)
 Number     Number       Type             X           Y           Z
 ---------------------------------------------------------------------
      1          7           0        1.620020   -0.570280   -0.028422
      2          6           0        3.015134   -0.172203   -0.150042
      3          6           0        1.119721   -1.840428    0.157253
      4          7           0       -0.186003   -1.863159    0.195720
      5          6           0       -0.568367   -0.563344    0.009994
      6          7           0       -1.954067   -0.210140   -0.081798
      7          8           0       -2.793773   -1.079195    0.125893
      8          8           0       -2.217091    0.965420   -0.389167
      9          6           0        0.538709    0.273094   -0.128506
     10          8           0        0.775257    1.569648   -0.355587
     11          6           0        0.156578    2.539952    0.520645
     12          1           0        3.641633   -0.996175    0.193804
     13          1           0        3.206017    0.708443    0.465341
     14          1           0        3.264401    0.062848   -1.188211
     15          1           0        1.771155   -2.698165    0.254238
     16          1           0        0.534882    3.505954    0.186531
     17          1           0        0.464103    2.357632    1.555700
     18          1           0       -0.927635    2.495106    0.428921
 ---------------------------------------------------------------------

 SCF Done:  E(RB3LYP) =  -584.555642815     A.U. after    1 cycles

 The electronic state is 1-A.
 Alpha  occ. eigenvalues --  -19.20975 -19.16429 -19.16195 -14.55908 -14.42404
 Alpha  occ. eigenvalues --  -14.34142 -10.30968 -10.26479 -10.25989 -10.25842
 Alpha  occ. eigenvalues --  -10.25189  -1.20779  -1.10493  -1.04030  -1.03199
 Alpha  occ. eigenvalues --   -0.92068  -0.80314  -0.76885  -0.73247  -0.68910
 Alpha  occ. eigenvalues --   -0.61444  -0.58547  -0.55983  -0.52618  -0.52183
 Alpha  occ. eigenvalues --   -0.50696  -0.50416  -0.48669  -0.47678  -0.47117
 Alpha  occ. eigenvalues --   -0.44517  -0.43641  -0.41974  -0.37984  -0.33991
 Alpha  occ. eigenvalues --   -0.29825  -0.29516  -0.29335  -0.28931  -0.27379
 Alpha  occ. eigenvalues --   -0.24289
 Alpha virt. eigenvalues --   -0.06620   0.00745   0.06314   0.07137   0.09295
 Alpha virt. eigenvalues --    0.11011   0.11958   0.12511   0.13877   0.14235
 Alpha virt. eigenvalues --    0.15830   0.18062   0.19021   0.21156   0.24904

 Mulliken charges:
               1
     1  N   -0.446035
     2  C   -0.178260
     3  C    0.274046
     4  N   -0.457793
     5  C    0.378746
     6  N    0.358171
     7  O   -0.384019
     8  O   -0.435729
     9  C    0.542129
    10  O   -0.524845
    11  C   -0.106081
    12  H    0.135811
    13  H    0.148354
    14  H    0.154258
    15  H    0.126064
    16  H    0.130320
    17  H    0.113376
    18  H    0.171487
 Sum of Mulliken charges =  -0.00000

 Dipole moment (field-independent basis, Debye):
    X=              7.3291    Y=              1.8589    Z=              0.9489  Tot=              7.6204
 Quadrupole moment (field-independent basis, Debye-Ang):
   XX=            -63.0794   YY=            -61.0687   ZZ=            -61.7071
   XY=             -5.7714   XZ=             -0.1724   YZ=              3.6753

  Exact polarizability: 107.412   0.590  96.010  -0.603  -3.597  45.212
 Approx polarizability: 167.685  11.506 164.403  -3.787 -15.745  70.026

                      1                      2                      3
                      A                      A                      A
 Frequencies --     37.0767                51.3431               101.7812
 Red. masses --      1.0399                 5.1470                 2.7083
 Frc consts  --      0.0008                 0.0080                 0.0165
 IR Inten    --      0.0263                 0.5428                 2.0814

                      4                      5                      6
                      A                      A                      A
 Frequencies --    112.5921               148.3341               198.4213
 Red. masses --      2.9827                 1.4301                 6.5044
 Frc consts  --      0.0223                 0.0185                 0.1509
 IR Inten    --      1.2270                 1.1069                 0.8956

                      7                      8                      9
                      A                      A                      A
 Frequencies --    221.7088               254.1624               283.3616
 Red. masses --      3.9143                 5.2176                 3.6853
 Frc consts  --      0.1134                 0.1986                 0.1743
 IR Inten    --      3.7457                 1.9343                 3.4113

                     10                     11                     12
                      A                      A                      A
 Frequencies --    371.0954               402.5292               465.5635
 Red. masses --      6.0508                 8.4525                 6.6670
 Frc consts  --      0.4909                 0.8069                 0.8514
 IR Inten    --      1.7357                 1.1729                 6.1013

                     13                     14                     15
                      A                      A                      A
 Frequencies --    584.5914               653.2584               664.9501
 Red. masses --      5.1063                 5.8001                 6.2456
 Frc consts  --      1.0282                 1.4583                 1.6271
 IR Inten    --      1.3905                 3.3761                17.3995

                     16                     17                     18
                      A                      A                      A
 Frequencies --    698.2994               764.6853               775.3067
 Red. masses --      6.3876                10.5695                 6.4694
 Frc consts  --      1.8352                 3.6414                 2.2912
 IR Inten    --      4.7883                 8.7939                 6.7691

                     19                     20                     21
                      A                      A                      A
 Frequencies --    807.8210               842.9480              1023.3064
 Red. masses --      1.4699                12.3898                 9.5155
 Frc consts  --      0.5651                 5.1870                 5.8708
 IR Inten    --      6.2880                65.3329                62.6925

                     22                     23                     24
                      A                      A                      A
 Frequencies --   1042.9360              1077.9921              1151.2788
 Red. masses --      4.8033                 1.7485                 1.3091
 Frc consts  --      3.0783                 1.1971                 1.0223
 IR Inten    --     33.5938                 1.1531                 2.7283

                     25                     26                     27
                      A                      A                      A
 Frequencies --   1174.4279              1210.5949              1239.9554
 Red. masses --      1.2408                 1.4841                 1.8887
 Frc consts  --      1.0083                 1.2815                 1.7109
 IR Inten    --      8.8478                 8.3376                64.5110

                     28                     29                     30
                      A                      A                      A
 Frequencies --   1283.1439              1327.5482              1373.7807
 Red. masses --      2.9119                 6.8051                 4.8490
 Frc consts  --      2.8247                 7.0662                 5.3919
 IR Inten    --     37.0036                55.5881                13.1900

                     31                     32                     33
                      A                      A                      A
 Frequencies --   1413.9785              1434.7638              1464.5748
 Red. masses --      8.8313                 2.6751                 1.2615
 Frc consts  --     10.4030                 3.2445                 1.5943
 IR Inten    --    359.2656                27.8328                 5.9020

                     34                     35                     36
                      A                      A                      A
 Frequencies --   1477.5386              1493.4114              1494.8461
 Red. masses --      1.7792                 1.0734                 1.0746
 Frc consts  --      2.2886                 1.4104                 1.4148
 IR Inten    --      2.5019                 9.9055                 4.0287

                     37                     38                     39
                      A                      A                      A
 Frequencies --   1522.9347              1531.9952              1565.1940
 Red. masses --      1.0837                 1.0542                 4.4856
 Frc consts  --      1.4809                 1.4578                 6.4745
 IR Inten    --      9.4536                12.9692               107.1165

                     40                     41                     42
                      A                      A                      A
 Frequencies --   1602.6060              1636.8991              3053.6807
 Red. masses --      6.0671                10.9667                 1.0376
 Frc consts  --      9.1809                17.3129                 5.7008
 IR Inten    --      9.9639               419.0639                52.4922

                     43                     44                     45
                      A                      A                      A
 Frequencies --   3069.9143              3144.6569              3151.4428
 Red. masses --      1.0337                 1.1041                 1.0972
 Frc consts  --      5.7399                 6.4327                 6.4203
 IR Inten    --     27.8741                 8.4582                24.6837

                     46                     47                     48
                      A                      A                      A
 Frequencies --   3168.7225              3190.6217              3259.9069
 Red. masses --      1.1058                 1.1082                 1.0968
 Frc consts  --      6.5415                 6.6471                 6.8675
 IR Inten    --      5.6464                 1.6574                 0.2725

 - Thermochemistry -
 -------------------
 Temperature   298.150 Kelvin.  Pressure   1.00000 Atm.
 Atom     1 has atomic number  7 and mass  14.00307

 Molecular mass:   157.04874 amu.
 Principal axes and moments of inertia in atomic units:
                           1         2         3
     Eigenvalues --  1058.432501740.734242701.65027
           X            0.99968  -0.02514  -0.00162
           Y            0.02517   0.99952   0.01783
           Z            0.00117  -0.01786   0.99984
 This molecule is an asymmetric top.
 Rotational symmetry number  1.
 Warning -- assumption of classical behavior for rotation
           may cause significant error
 Rotational temperatures (Kelvin)      0.08183     0.04976     0.03206
 Rotational constants (GHZ):           1.70511     1.03677     0.66801
 Zero-point vibrational energy     353032.8 (Joules/Mol)
                                   84.37687 (Kcal/Mol)
 Warning -- explicit consideration of  13 degrees of freedom as
           vibrations may cause significant error
 Vibrational temperatures:     53.35    73.87   146.44   161.99   213.42
          (Kelvin)            285.48   318.99   365.68   407.69   533.92
                              579.15   669.84   841.10   939.89   956.71
                             1004.70  1100.21  1115.49  1162.27  1212.81
                             1472.31  1500.55  1550.99  1656.43  1689.74
                             1741.77  1784.02  1846.16  1910.04  1976.56
                             2034.40  2064.30  2107.19  2125.85  2148.68
                             2150.75  2191.16  2204.20  2251.96  2305.79
                             2355.13  4393.56  4416.92  4524.45  4534.22
                             4559.08  4590.59  4690.27

 Zero-point correction=                           0.134463 (Hartree/Particle)
 Thermal correction to Energy=                    0.145092
 Thermal correction to Enthalpy=                  0.146037
 Thermal correction to Gibbs Free Energy=         0.096814
 Sum of electronic and zero-point Energies=           -584.421180
 Sum of electronic and thermal Energies=              -584.410550
 Sum of electronic and thermal Enthalpies=            -584.409606
 Sum of electronic and thermal Free Energies=         -584.458829

                     E (Thermal)             CV                S
                      KCal/Mol        Cal/Mol-Kelvin    Cal/Mol-Kelvin
 Total                   91.047             36.524            103.598
 Electronic               0.000              0.000              0.000
 Translational            0.889              2.981             41.064
 Rotational               0.889              2.981             29.988
 Vibrational             89.269             30.562             32.547
 Vibration     1          0.594              1.982              5.409
 Vibration     2          0.596              1.977              4.765
 Vibration     3          0.604              1.948              3.420
 Vibration     4          0.607              1.939              3.224
 Vibration     5          0.618              1.904              2.693
 Vibration     6          0.637              1.842              2.148
 Vibration     7          0.648              1.808              1.945
 Vibration     8          0.665              1.756              1.702
 Vibration     9          0.682              1.704              1.513
 Vibration    10          0.743              1.532              1.075
 Vibration    11          0.768              1.465              0.953
 Vibration    12          0.823              1.326              0.750
 Vibration    13          0.942              1.065              0.477

 Optimization completed.
    -- Stationary point found.
 Normal termination of Gaussian 09 at Fri Aug 20 15:45:54 2021.
