 Gaussian 09, Revision E.01,
 Gaussian 09:  ES64L-G09RevE.01 30-Nov-2015

 -------------------------
 #P OPT Freq B3LYP/6-31G**
 -------------------------

 ------
 KAYTUZ
 ------
 Symbolic Z-matrix:
 Charge =  0 Multiplicity = 1

 SCF Done:  E(RB3LYP) =  -625.985489940     A.U. after   16 cycles
 SCF Done:  E(RB3LYP) =  -626.063428425     A.U. after   13 cycles
 SCF Done:  E(RB3LYP) =  -626.091812233     A.U. after   14 cycles
 SCF Done:  E(RB3LYP) =  -626.089359806     A.U. after   15 cycles
 SCF Done:  E(RB3LYP) =  -626.093181002     A.U. after   11 cycles
 SCF Done:  E(RB3LYP) =  -626.092148691     A.U. after   15 cycles
 SCF Done:  E(RB3LYP) =  -626.094357222     A.U. after   10 cycles
 SCF Done:  E(RB3LYP) =  -626.094622969     A.U. after   12 cycles
 SCF Done:  E(RB3LYP) =  -626.094708902     A.U. after   10 cycles
 SCF Done:  E(RB3LYP) =  -626.094727037     A.U. after   10 cycles
 SCF Done:  E(RB3LYP) =  -626.094732240     A.U. after    9 cycles
 SCF Done:  E(RB3LYP) =  -626.094732833     A.U. after    8 cycles
 SCF Done:  E(RB3LYP) =  -626.094734294     A.U. after   10 cycles
 SCF Done:  E(RB3LYP) =  -626.094737634     A.U. after   11 cycles
 SCF Done:  E(RB3LYP) =  -626.094741839     A.U. after   12 cycles
 SCF Done:  E(RB3LYP) =  -626.094742676     A.U. after   11 cycles
 SCF Done:  E(RB3LYP) =  -626.094743181     A.U. after   10 cycles
 SCF Done:  E(RB3LYP) =  -626.094743193     A.U. after    8 cycles
 Optimization completed.
    -- Stationary point found.
 Normal termination of Gaussian 09 at Fri Aug 20 15:49:38 2021.

 ----------------------------------------------------------------------
 #P Geom=AllCheck Guess=TCheck SCRF=Check GenChk RB3LYP/6-31G(d,p) Freq
 ----------------------------------------------------------------------

 Structure from the checkpoint file:  "/public/home/users/caep010/.cache/gau_scr/Gau-197822.chk"
 ------
 KAYTUZ
 ------
 Charge =  0 Multiplicity = 1

                         Standard orientation:
 ---------------------------------------------------------------------
 Center     Atomic      Atomic             Coordinates (Angstroms)
 Number     Number       Type             X           Y           Z
 ---------------------------------------------------------------------
      1          6           0       -0.758712    0.513890   -0.339338
      2          7           0       -2.090808    0.806377   -0.502074
      3          1           0       -2.323530    1.785674   -0.546158
      4          6           0        0.156668    1.567404   -0.096982
      5          6           0        1.504810    1.315991    0.073187
      6          6           0       -0.260005   -0.808105   -0.398110
      7          6           0        1.093503   -1.058328   -0.230084
      8          6           0       -3.122386   -0.138193   -0.910536
      9          1           0       -3.907830    0.437825   -1.413196
     10          6           0       -3.744827   -0.920647    0.264737
     11          7           0       -4.386474   -0.116706    1.298800
     12          1           0       -3.714494    0.544163    1.682134
     13          1           0       -0.932139   -1.639862   -0.570252
     14          1           0        1.485071   -2.066912   -0.275289
     15          1           0       -2.718039   -0.833105   -1.659123
     16          6           0        1.972096   -0.000334    0.004607
     17          7           0        3.390216   -0.268538    0.181239
     18          8           0        4.138595    0.692045    0.387560
     19          8           0        3.770470   -1.441522    0.114895
     20          1           0        2.209232    2.117702    0.255999
     21          1           0       -0.210316    2.589333   -0.047527
     22          1           0       -2.969603   -1.528162    0.745407
     23          1           0       -4.482800   -1.622039   -0.143870
     24          1           0       -5.145486    0.433209    0.901615
 ---------------------------------------------------------------------

 SCF Done:  E(RB3LYP) =  -626.094743193     A.U. after    1 cycles

 The electronic state is 1-A.
 Alpha  occ. eigenvalues --  -19.16145 -19.16139 -14.55425 -14.37804 -14.32612
 Alpha  occ. eigenvalues --  -10.26044 -10.24242 -10.23395 -10.22444 -10.21369
 Alpha  occ. eigenvalues --  -10.21358 -10.20787 -10.20618  -1.20377  -1.03012
 Alpha  occ. eigenvalues --   -0.96557  -0.89367  -0.87323  -0.79537  -0.77009
 Alpha  occ. eigenvalues --   -0.74289  -0.68507  -0.64204  -0.62292  -0.58968
 Alpha  occ. eigenvalues --   -0.55859  -0.53845  -0.52167  -0.51368  -0.49939
 Alpha  occ. eigenvalues --   -0.48531  -0.46968  -0.45733  -0.44766  -0.44723
 Alpha  occ. eigenvalues --   -0.43915  -0.41556  -0.39450  -0.39223  -0.37037
 Alpha  occ. eigenvalues --   -0.36026  -0.32570  -0.29235  -0.29145  -0.27283
 Alpha  occ. eigenvalues --   -0.27243  -0.25048  -0.22108
 Alpha virt. eigenvalues --   -0.07046  -0.02018   0.02187   0.04807   0.08109
 Alpha virt. eigenvalues --    0.08539   0.10527   0.12015   0.13671   0.13870
 Alpha virt. eigenvalues --    0.14919   0.15936   0.16454   0.17498   0.19443

 Mulliken charges:
               1
     1  C    0.360541
     2  N   -0.593674
     3  H    0.258877
     4  C   -0.145389
     5  C   -0.091494
     6  C   -0.130991
     7  C   -0.102337
     8  C   -0.064800
     9  H    0.102351
    10  C   -0.054100
    11  N   -0.586745
    12  H    0.240929
    13  H    0.095685
    14  H    0.134700
    15  H    0.112770
    16  C    0.241661
    17  N    0.373494
    18  O   -0.414624
    19  O   -0.414898
    20  H    0.133907
    21  H    0.085683
    22  H    0.118497
    23  H    0.108752
    24  H    0.231205
 Sum of Mulliken charges =  -0.00000

 Dipole moment (field-independent basis, Debye):
    X=             -6.9491    Y=              2.3447    Z=             -2.0353  Tot=              7.6112
 Quadrupole moment (field-independent basis, Debye-Ang):
   XX=            -93.5249   YY=            -70.0689   ZZ=            -78.8542
   XY=             -3.6613   XZ=              6.1192   YZ=              2.1153

  Exact polarizability: 190.988  -5.511 112.505  13.431   6.293  59.385
 Approx polarizability: 287.083 -13.546 211.457  26.880  14.098  88.985

                      1                      2                      3
                      A                      A                      A
 Frequencies --     31.0426                48.3459                80.5381
 Red. masses --      5.7994                 5.1319                 6.0807
 Frc consts  --      0.0033                 0.0071                 0.0232
 IR Inten    --      1.2895                 1.8933                 1.7148

                      4                      5                      6
                      A                      A                      A
 Frequencies --    100.7887               116.1032               189.4936
 Red. masses --      3.9608                 2.8531                 4.1063
 Frc consts  --      0.0237                 0.0227                 0.0869
 IR Inten    --      0.5063                 1.2874                 6.3008

                      7                      8                      9
                      A                      A                      A
 Frequencies --    221.6114               290.9916               297.1328
 Red. masses --      4.3707                 1.6869                 5.9931
 Frc consts  --      0.1265                 0.0842                 0.3117
 IR Inten    --     19.6118                27.0880                 8.7343

                     10                     11                     12
                      A                      A                      A
 Frequencies --    331.3570               353.9748               362.7799
 Red. masses --      2.4494                 1.1369                 2.7878
 Frc consts  --      0.1585                 0.0839                 0.2162
 IR Inten    --     16.3676                95.3797                 6.1692

                     13                     14                     15
                      A                      A                      A
 Frequencies --    430.5111               466.2992               506.8834
 Red. masses --      3.2045                 2.2017                 2.7997
 Frc consts  --      0.3499                 0.2821                 0.4238
 IR Inten    --      0.8040                 5.1114                 5.9178

                     16                     17                     18
                      A                      A                      A
 Frequencies --    533.5101               563.5896               636.1841
 Red. masses --      5.4501                 3.1664                 5.7559
 Frc consts  --      0.9140                 0.5926                 1.3725
 IR Inten    --      2.9413                 1.6804                 7.7895

                     19                     20                     21
                      A                      A                      A
 Frequencies --    654.6738               702.9980               756.9381
 Red. masses --      5.6723                 3.5937                 6.9800
 Frc consts  --      1.4324                 1.0464                 2.3563
 IR Inten    --     12.8932                 6.9254                26.3604

                     22                     23                     24
                      A                      A                      A
 Frequencies --    780.9007               818.3934               834.3473
 Red. masses --      2.8010                 1.2611                 2.3174
 Frc consts  --      1.0064                 0.4976                 0.9505
 IR Inten    --     20.1752                 2.1294               135.3316

                     25                     26                     27
                      A                      A                      A
 Frequencies --    844.7434               864.2722               875.9752
 Red. masses --      1.8160                 3.4782                 2.8401
 Frc consts  --      0.7635                 1.5308                 1.2840
 IR Inten    --     41.3133                 9.5034                13.0254

                     28                     29                     30
                      A                      A                      A
 Frequencies --    895.6825               973.4674               983.1311
 Red. masses --      1.6462                 1.3032                 1.2999
 Frc consts  --      0.7781                 0.7276                 0.7403
 IR Inten    --    127.3226                 0.0889                 1.3360

                     31                     32                     33
                      A                      A                      A
 Frequencies --   1003.9345              1019.1067              1112.0156
 Red. masses --      1.7203                 2.7723                 3.2011
 Frc consts  --      1.0216                 1.6964                 2.3322
 IR Inten    --     26.9051                 1.3877                 3.5192

                     34                     35                     36
                      A                      A                      A
 Frequencies --   1128.4521              1138.4823              1150.9542
 Red. masses --      2.2609                 2.2957                 1.4359
 Frc consts  --      1.6963                 1.7531                 1.1207
 IR Inten    --     11.9357               135.2772                12.5025

                     37                     38                     39
                      A                      A                      A
 Frequencies --   1194.5692              1216.8154              1288.9035
 Red. masses --      1.3489                 1.3925                 1.3292
 Frc consts  --      1.1341                 1.2148                 1.3010
 IR Inten    --      2.0671                23.7459                 1.2337

                     40                     41                     42
                      A                      A                      A
 Frequencies --   1314.8939              1339.3329              1376.1047
 Red. masses --      1.6786                 1.5985                 2.6856
 Frc consts  --      1.7100                 1.6894                 2.9963
 IR Inten    --    132.9194                91.1149               400.8877

                     43                     44                     45
                      A                      A                      A
 Frequencies --   1387.2620              1396.5884              1401.7853
 Red. masses --      2.1635                 1.7448                 1.6946
 Frc consts  --      2.4532                 2.0051                 1.9619
 IR Inten    --    311.8367                49.7176                12.0114

                     46                     47                     48
                      A                      A                      A
 Frequencies --   1407.5788              1462.3862              1493.4508
 Red. masses --      1.4349                 2.6062                 1.0942
 Frc consts  --      1.6750                 3.2838                 1.4379
 IR Inten    --      2.7717                 5.3211                 3.3717

                     49                     50                     51
                      A                      A                      A
 Frequencies --   1499.6987              1525.9976              1564.2936
 Red. masses --      1.1443                 1.9248                 2.9921
 Frc consts  --      1.5163                 2.6409                 4.3138
 IR Inten    --      2.4463                 4.8138               161.4699

                     52                     53                     54
                      A                      A                      A
 Frequencies --   1603.2468              1654.5179              1662.1274
 Red. masses --      6.3222                 7.7515                 5.8754
 Frc consts  --      9.5746                12.5020                 9.5636
 IR Inten    --     96.9010               109.8683               333.4428

                     55                     56                     57
                      A                      A                      A
 Frequencies --   1672.1516              3024.2290              3045.7692
 Red. masses --      1.0944                 1.0632                 1.0607
 Frc consts  --      1.8030                 5.7292                 5.7976
 IR Inten    --     16.6550                39.1944                34.3755

                     58                     59                     60
                      A                      A                      A
 Frequencies --   3075.4759              3094.7401              3180.0944
 Red. masses --      1.1031                 1.1043                 1.0900
 Frc consts  --      6.1474                 6.2315                 6.4946
 IR Inten    --     15.8017                57.7690                13.2161

                     61                     62                     63
                      A                      A                      A
 Frequencies --   3222.1455              3243.6849              3244.2445
 Red. masses --      1.0885                 1.0925                 1.0936
 Frc consts  --      6.6583                 6.7727                 6.7819
 IR Inten    --      9.0199                 0.4459                 2.7573

                     64                     65                     66
                      A                      A                      A
 Frequencies --   3483.5793              3573.5215              3654.3293
 Red. masses --      1.0487                 1.0929                 1.0771
 Frc consts  --      7.4978                 8.2228                 8.4745
 IR Inten    --      1.2750                 0.0832                45.4624

 - Thermochemistry -
 -------------------
 Temperature   298.150 Kelvin.  Pressure   1.00000 Atm.
 Atom     1 has atomic number  6 and mass  12.00000

 Molecular mass:   181.08513 amu.
 Principal axes and moments of inertia in atomic units:
                           1         2         3
     Eigenvalues --   782.382055473.062635863.50805
           X            0.99999   0.00493  -0.00012
           Y           -0.00493   0.99980   0.01916
           Z            0.00022  -0.01916   0.99982
 This molecule is an asymmetric top.
 Rotational symmetry number  1.
 Warning -- assumption of classical behavior for rotation
           may cause significant error
 Rotational temperatures (Kelvin)      0.11071     0.01583     0.01477
 Rotational constants (GHZ):           2.30673     0.32975     0.30779
 Zero-point vibrational energy     510824.1 (Joules/Mol)
                                  122.08989 (Kcal/Mol)
 Warning -- explicit consideration of  17 degrees of freedom as
           vibrations may cause significant error
 Vibrational temperatures:     44.66    69.56   115.88   145.01   167.05
          (Kelvin)            272.64   318.85   418.67   427.51   476.75
                              509.29   521.96   619.41   670.90   729.29
                              767.60   810.88   915.33   941.93  1011.46
                             1089.06  1123.54  1177.48  1200.44  1215.40
                             1243.49  1260.33  1288.69  1400.60  1414.50
                             1444.44  1466.27  1599.94  1623.59  1638.02
                             1655.96  1718.72  1750.72  1854.44  1891.84
                             1927.00  1979.91  1995.96  2009.38  2016.85
                             2025.19  2104.04  2148.74  2157.73  2195.57
                             2250.67  2306.71  2380.48  2391.43  2405.85
                             4351.19  4382.18  4424.92  4452.64  4575.44
                             4635.94  4666.93  4667.74  5012.09  5141.49
                             5257.76

 Zero-point correction=                           0.194563 (Hartree/Particle)
 Thermal correction to Energy=                    0.206818
 Thermal correction to Enthalpy=                  0.207763
 Thermal correction to Gibbs Free Energy=         0.154732
 Sum of electronic and zero-point Energies=           -625.900181
 Sum of electronic and thermal Energies=              -625.887925
 Sum of electronic and thermal Enthalpies=            -625.886981
 Sum of electronic and thermal Free Energies=         -625.940011

                     E (Thermal)             CV                S
                      KCal/Mol        Cal/Mol-Kelvin    Cal/Mol-Kelvin
 Total                  129.781             45.731            111.611
 Electronic               0.000              0.000              0.000
 Translational            0.889              2.981             41.488
 Rotational               0.889              2.981             31.596
 Vibrational            128.003             39.769             38.527
 Vibration     1          0.594              1.983              5.762
 Vibration     2          0.595              1.978              4.884
 Vibration     3          0.600              1.962              3.878
 Vibration     4          0.604              1.948              3.439
 Vibration     5          0.608              1.936              3.164
 Vibration     6          0.633              1.854              2.233
 Vibration     7          0.648              1.808              1.946
 Vibration     8          0.687              1.691              1.468
 Vibration     9          0.691              1.679              1.433
 Vibration    10          0.714              1.613              1.253
 Vibration    11          0.730              1.567              1.148
 Vibration    12          0.737              1.549              1.110
 Vibration    13          0.792              1.404              0.857
 Vibration    14          0.824              1.325              0.748
 Vibration    15          0.862              1.235              0.641
 Vibration    16          0.888              1.176              0.579
 Vibration    17          0.919              1.110              0.517

 Normal termination of Gaussian 09 at Fri Aug 20 15:50:18 2021.
