 Gaussian 09, Revision E.01,
 Gaussian 09:  ES64L-G09RevE.01 30-Nov-2015

 -------------------------
 #P OPT Freq B3LYP/6-31G**
 -------------------------

 ------
 HNIMOZ
 ------
 Symbolic Z-matrix:
 Charge =  0 Multiplicity = 1

 SCF Done:  E(RB3LYP) =  -583.311283164     A.U. after   16 cycles
 SCF Done:  E(RB3LYP) =  -583.342733593     A.U. after   13 cycles
 SCF Done:  E(RB3LYP) =  -583.344930111     A.U. after   14 cycles
 SCF Done:  E(RB3LYP) =  -583.345027991     A.U. after   12 cycles
 SCF Done:  E(RB3LYP) =  -583.344625858     A.U. after   13 cycles
 SCF Done:  E(RB3LYP) =  -583.345093294     A.U. after    9 cycles
 SCF Done:  E(RB3LYP) =  -583.345137772     A.U. after   12 cycles
 SCF Done:  E(RB3LYP) =  -583.345156797     A.U. after   11 cycles
 SCF Done:  E(RB3LYP) =  -583.345166338     A.U. after   11 cycles
 SCF Done:  E(RB3LYP) =  -583.345169549     A.U. after   10 cycles
 SCF Done:  E(RB3LYP) =  -583.345171364     A.U. after    9 cycles
 SCF Done:  E(RB3LYP) =  -583.345172822     A.U. after    9 cycles
 SCF Done:  E(RB3LYP) =  -583.345173512     A.U. after    8 cycles
 SCF Done:  E(RB3LYP) =  -583.345173640     A.U. after    8 cycles
 Optimization completed.
    -- Stationary point found.
 Normal termination of Gaussian 09 at Fri Aug 20 15:59:38 2021.

 ----------------------------------------------------------------------
 #P Geom=AllCheck Guess=TCheck SCRF=Check GenChk RB3LYP/6-31G(d,p) Freq
 ----------------------------------------------------------------------

 Structure from the checkpoint file:  "/public/home/users/caep010/.cache/gau_scr/Gau-13831.chk"
 ------
 HNIMOZ
 ------
 Charge =  0 Multiplicity = 1

                         Standard orientation:
 ---------------------------------------------------------------------
 Center     Atomic      Atomic             Coordinates (Angstroms)
 Number     Number       Type             X           Y           Z
 ---------------------------------------------------------------------
      1          6           0       -0.858837    0.363479    0.007471
      2          7           0       -2.054284   -0.383441   -0.013361
      3          8           0       -1.946982   -1.620977   -0.039324
      4          6           0       -0.628576    1.729071    0.010219
      5          7           0        0.715398    2.005889    0.002956
      6          6           0        1.267236    0.809390   -0.012924
      7          8           0        2.548519    0.418771    0.050357
      8          6           0        2.537599   -1.032124   -0.112111
      9          6           0        1.072820   -1.498909    0.141946
     10          1           0        0.735122   -2.246386   -0.575840
     11          1           0        2.856403   -1.255174   -1.134399
     12          8           0       -3.118925    0.240378    0.003170
     13          1           0        0.911164   -1.881763    1.154357
     14          1           0        3.253612   -1.449867    0.595544
     15          1           0       -1.376949    2.507571    0.005354
     16          7           0        0.398643   -0.223192   -0.041915
 ---------------------------------------------------------------------

 SCF Done:  E(RB3LYP) =  -583.345173640     A.U. after    1 cycles

 The electronic state is 1-A.
 Alpha  occ. eigenvalues --  -19.22710 -19.17682 -19.17638 -14.57541 -14.42524
 Alpha  occ. eigenvalues --  -14.34650 -10.32980 -10.29283 -10.27981 -10.27821
 Alpha  occ. eigenvalues --  -10.24810  -1.22096  -1.14150  -1.04812  -1.03785
 Alpha  occ. eigenvalues --   -0.93412  -0.83226  -0.79464  -0.72396  -0.67740
 Alpha  occ. eigenvalues --   -0.63622  -0.60152  -0.56079  -0.55208  -0.53250
 Alpha  occ. eigenvalues --   -0.52317  -0.50566  -0.48420  -0.47427  -0.45947
 Alpha  occ. eigenvalues --   -0.45269  -0.43444  -0.40120  -0.35592  -0.31927
 Alpha  occ. eigenvalues --   -0.30997  -0.30461  -0.30034  -0.28831  -0.24437
 Alpha virt. eigenvalues --   -0.08422   0.02657   0.04584   0.05420   0.07274
 Alpha virt. eigenvalues --    0.09970   0.11775   0.12079   0.14676   0.16771
 Alpha virt. eigenvalues --    0.17861   0.18143   0.20655   0.23530   0.24981

 Mulliken charges:
               1
     1  C    0.480366
     2  N    0.326486
     3  O   -0.434720
     4  C    0.075055
     5  N   -0.513220
     6  C    0.782691
     7  O   -0.505685
     8  C    0.007166
     9  C   -0.050907
    10  H    0.163837
    11  H    0.147077
    12  O   -0.409554
    13  H    0.154184
    14  H    0.145609
    15  H    0.142669
    16  N   -0.511052
 Sum of Mulliken charges =  -0.00000

 Dipole moment (field-independent basis, Debye):
    X=              4.1103    Y=             -2.6616    Z=              0.0108  Tot=              4.8968
 Quadrupole moment (field-independent basis, Debye-Ang):
   XX=            -69.3841   YY=            -63.3800   ZZ=            -59.0488
   XY=            -13.0283   XZ=             -0.3898   YZ=             -0.2685

  Exact polarizability: 106.918  -1.580  89.946  -0.457  -0.092  40.912
 Approx polarizability: 175.227   8.244 172.002  -0.219   0.981  62.306

                      1                      2                      3
                      A                      A                      A
 Frequencies --     81.1610               113.8695               159.7966
 Red. masses --      8.8130                 2.2563                 4.5185
 Frc consts  --      0.0342                 0.0172                 0.0680
 IR Inten    --      2.0272                 1.4416                 9.0246

                      4                      5                      6
                      A                      A                      A
 Frequencies --    166.4877               169.8827               321.3146
 Red. masses --      5.0783                 7.2507                 9.8572
 Frc consts  --      0.0829                 0.1233                 0.5996
 IR Inten    --      0.8899                 8.3058                 0.7104

                      7                      8                      9
                      A                      A                      A
 Frequencies --    389.8617               440.7110               578.9700
 Red. masses --      8.8063                 9.6553                 4.0188
 Frc consts  --      0.7886                 1.1049                 0.7937
 IR Inten    --      1.7567                 2.1516                 1.3592

                     10                     11                     12
                      A                      A                      A
 Frequencies --    596.3350               662.9604               721.4375
 Red. masses --      6.6507                 4.6233                 8.4928
 Frc consts  --      1.3935                 1.1972                 2.6044
 IR Inten    --      8.0634                 1.7532                22.1437

                     13                     14                     15
                      A                      A                      A
 Frequencies --    745.0998               755.2260               796.7811
 Red. masses --     11.4343                 6.7872                 3.5969
 Frc consts  --      3.7401                 2.2808                 1.3454
 IR Inten    --      6.6790                30.1293                 2.3451

                     16                     17                     18
                      A                      A                      A
 Frequencies --    832.5552               872.4097               883.7058
 Red. masses --      5.4601                 2.2283                 1.3822
 Frc consts  --      2.2298                 0.9992                 0.6360
 IR Inten    --     18.0449                13.7181                 8.9023

                     19                     20                     21
                      A                      A                      A
 Frequencies --    950.1059              1010.4859              1067.3298
 Red. masses --      2.5801                 5.9420                 4.2708
 Frc consts  --      1.3722                 3.5747                 2.8665
 IR Inten    --      6.9110                77.7329                33.8331

                     22                     23                     24
                      A                      A                      A
 Frequencies --   1136.9935              1184.5493              1209.6251
 Red. masses --      1.6474                 2.3160                 1.8553
 Frc consts  --      1.2548                 1.9147                 1.5994
 IR Inten    --      2.0877                34.4063                42.7944

                     25                     26                     27
                      A                      A                      A
 Frequencies --   1219.8105              1253.0284              1290.5206
 Red. masses --      1.4792                 1.3409                 3.1423
 Frc consts  --      1.2968                 1.2405                 3.0834
 IR Inten    --     28.5469                11.3422                99.9377

                     28                     29                     30
                      A                      A                      A
 Frequencies --   1313.6869              1375.9347              1400.0393
 Red. masses --      1.6448                 1.5177                 6.7367
 Frc consts  --      1.6724                 1.6929                 7.7799
 IR Inten    --     91.7734                42.8363               118.4486

                     31                     32                     33
                      A                      A                      A
 Frequencies --   1445.1391              1502.5063              1521.4397
 Red. masses --      7.3086                 2.6703                 1.6860
 Frc consts  --      8.9930                 3.5517                 2.2994
 IR Inten    --    221.0971                33.8997               109.5430

                     34                     35                     36
                      A                      A                      A
 Frequencies --   1539.4332              1557.1275              1605.9119
 Red. masses --      1.3455                 2.3954                13.2351
 Frc consts  --      1.8787                 3.4219                20.1103
 IR Inten    --     51.6700               175.9689               110.4846

                     37                     38                     39
                      A                      A                      A
 Frequencies --   1612.9543              3078.6220              3084.5873
 Red. masses --      8.1937                 1.0679                 1.0637
 Frc consts  --     12.5596                 5.9635                 5.9629
 IR Inten    --    352.2754                19.1191                28.9185

                     40                     41                     42
                      A                      A                      A
 Frequencies --   3151.2932              3163.6256              3284.6662
 Red. masses --      1.1011                 1.1064                 1.0977
 Frc consts  --      6.4423                 6.5241                 6.9775
 IR Inten    --      5.2356                12.2572                 1.2974

 - Thermochemistry -
 -------------------
 Temperature   298.150 Kelvin.  Pressure   1.00000 Atm.
 Atom     1 has atomic number  6 and mass  12.00000

 Molecular mass:   155.03309 amu.
 Principal axes and moments of inertia in atomic units:
                           1         2         3
     Eigenvalues --   755.699291924.792282653.21208
           X            0.99892  -0.04638  -0.00123
           Y            0.04638   0.99892  -0.00139
           Z            0.00129   0.00133   1.00000
 This molecule is an asymmetric top.
 Rotational symmetry number  1.
 Warning -- assumption of classical behavior for rotation
           may cause significant error
 Rotational temperatures (Kelvin)      0.11461     0.04500     0.03264
 Rotational constants (GHZ):           2.38817     0.93763     0.68021
 Zero-point vibrational energy     300549.7 (Joules/Mol)
                                   71.83310 (Kcal/Mol)
 Warning -- explicit consideration of  10 degrees of freedom as
           vibrations may cause significant error
 Vibrational temperatures:    116.77   163.83   229.91   239.54   244.42
          (Kelvin)            462.30   560.92   634.08   833.01   857.99
                              953.85  1037.99  1072.03  1086.60  1146.39
                             1197.86  1255.20  1271.45  1366.99  1453.86
                             1535.65  1635.88  1704.30  1740.38  1755.03
                             1802.83  1856.77  1890.10  1979.66  2014.34
                             2079.23  2161.77  2189.01  2214.90  2240.36
                             2310.55  2320.68  4429.44  4438.03  4534.00
                             4551.75  4725.90

 Zero-point correction=                           0.114473 (Hartree/Particle)
 Thermal correction to Energy=                    0.122904
 Thermal correction to Enthalpy=                  0.123848
 Thermal correction to Gibbs Free Energy=         0.080210
 Sum of electronic and zero-point Energies=           -583.230700
 Sum of electronic and thermal Energies=              -583.222270
 Sum of electronic and thermal Enthalpies=            -583.221326
 Sum of electronic and thermal Free Energies=         -583.264964

                     E (Thermal)             CV                S
                      KCal/Mol        Cal/Mol-Kelvin    Cal/Mol-Kelvin
 Total                   77.123             30.735             91.843
 Electronic               0.000              0.000              0.000
 Translational            0.889              2.981             41.025
 Rotational               0.889              2.981             29.735
 Vibrational             75.346             24.773             21.083
 Vibration     1          0.600              1.962              3.863
 Vibration     2          0.607              1.938              3.202
 Vibration     3          0.622              1.892              2.552
 Vibration     4          0.624              1.884              2.475
 Vibration     5          0.625              1.880              2.437
 Vibration     6          0.707              1.633              1.303
 Vibration     7          0.758              1.492              1.001
 Vibration     8          0.801              1.381              0.824
 Vibration     9          0.936              1.077              0.487
 Vibration    10          0.954              1.040              0.456

 Optimization completed.
    -- Stationary point found.
 Normal termination of Gaussian 09 at Fri Aug 20 16:00:00 2021.
