 Gaussian 09, Revision E.01,
 Gaussian 09:  ES64L-G09RevE.01 30-Nov-2015

 -------------------------
 #P OPT Freq B3LYP/6-31G**
 -------------------------

 ------
 ERUDAX
 ------
 Symbolic Z-matrix:
 Charge =  0 Multiplicity = 1

 SCF Done:  E(RB3LYP) =  -719.829812276     A.U. after   15 cycles
 SCF Done:  E(RB3LYP) =  -719.945239802     A.U. after   13 cycles
 SCF Done:  E(RB3LYP) =  -720.006829238     A.U. after   14 cycles
 SCF Done:  E(RB3LYP) =  -720.007942479     A.U. after   13 cycles
 SCF Done:  E(RB3LYP) =  -720.004153793     A.U. after   14 cycles
 SCF Done:  E(RB3LYP) =  -720.008051556     A.U. after   10 cycles
 SCF Done:  E(RB3LYP) =  -720.008220675     A.U. after   13 cycles
 SCF Done:  E(RB3LYP) =  -720.008270794     A.U. after   12 cycles
 SCF Done:  E(RB3LYP) =  -720.008273789     A.U. after   10 cycles
 SCF Done:  E(RB3LYP) =  -720.008280214     A.U. after    9 cycles
 SCF Done:  E(RB3LYP) =  -720.008281027     A.U. after    9 cycles
 SCF Done:  E(RB3LYP) =  -720.008281213     A.U. after    8 cycles
 SCF Done:  E(RB3LYP) =  -720.008281303     A.U. after    8 cycles
 SCF Done:  E(RB3LYP) =  -720.008281338     A.U. after    7 cycles
 Optimization completed.
    -- Stationary point found.
 Normal termination of Gaussian 09 at Fri Aug 20 16:03:28 2021.

 ----------------------------------------------------------------------
 #P Geom=AllCheck Guess=TCheck SCRF=Check GenChk RB3LYP/6-31G(d,p) Freq
 ----------------------------------------------------------------------

 Structure from the checkpoint file:  "/public/home/users/caep010/.cache/gau_scr/Gau-20922.chk"
 ------
 ERUDAX
 ------
 Charge =  0 Multiplicity = 1

                         Standard orientation:
 ---------------------------------------------------------------------
 Center     Atomic      Atomic             Coordinates (Angstroms)
 Number     Number       Type             X           Y           Z
 ---------------------------------------------------------------------
      1          6           0       -5.206711   -0.203993    0.000503
      2          1           0       -6.022653    0.517887   -0.001667
      3          1           0       -5.252786   -0.837766   -0.887951
      4          1           0       -5.254839   -0.834513    0.891192
      5          8           0       -4.002744    0.581209    0.000496
      6          6           0       -2.855331   -0.140216   -0.000174
      7          7           0       -1.791795    0.737839   -0.000385
      8          1           0       -2.049359    1.714749    0.000220
      9          6           0       -0.425527    0.441685   -0.000254
     10          6           0        0.468750    1.529470   -0.000288
     11          6           0        1.838238    1.318916   -0.000133
     12          6           0        2.319630    0.009952    0.000016
     13          7           0        3.764460   -0.219277    0.000165
     14          8           0        4.502114    0.768745    0.000276
     15          1           0        2.538246    2.144590   -0.000131
     16          6           0        0.077819   -0.872188   -0.000114
     17          1           0        0.082033    2.544957   -0.000460
     18          6           0        1.451269   -1.080438    0.000029
     19          1           0        1.861163   -2.082594    0.000157
     20          8           0       -2.799834   -1.352963   -0.000611
     21          8           0        4.161641   -1.385721    0.000189
     22          1           0       -0.608703   -1.706531   -0.000131
 ---------------------------------------------------------------------

 SCF Done:  E(RB3LYP) =  -720.008281338     A.U. after    1 cycles

 The electronic state is 1-A.
 Alpha  occ. eigenvalues --  -19.21160 -19.17284 -19.17269 -19.14882 -14.56485
 Alpha  occ. eigenvalues --  -14.40373 -10.36117 -10.27038 -10.25702 -10.24635
 Alpha  occ. eigenvalues --  -10.22205 -10.21983 -10.21902 -10.20947  -1.21558
 Alpha  occ. eigenvalues --   -1.12879  -1.04236  -1.03583  -0.97458  -0.88555
 Alpha  occ. eigenvalues --   -0.80762  -0.77629  -0.74871  -0.69655  -0.65322
 Alpha  occ. eigenvalues --   -0.61918  -0.59139  -0.57254  -0.55568  -0.53970
 Alpha  occ. eigenvalues --   -0.52422  -0.50508  -0.50476  -0.48005  -0.47006
 Alpha  occ. eigenvalues --   -0.46583  -0.45186  -0.44203  -0.44083  -0.42183
 Alpha  occ. eigenvalues --   -0.39731  -0.38307  -0.37346  -0.33879  -0.31996
 Alpha  occ. eigenvalues --   -0.30283  -0.30252  -0.29656  -0.28341  -0.27854
 Alpha  occ. eigenvalues --   -0.24693
 Alpha virt. eigenvalues --   -0.08257  -0.02658  -0.00375   0.04670   0.06180
 Alpha virt. eigenvalues --    0.08769   0.09986   0.11309   0.14147   0.14637
 Alpha virt. eigenvalues --    0.14893   0.15836   0.16070   0.18905   0.19738

 Mulliken charges:
               1
     1  C   -0.080107
     2  H    0.126970
     3  H    0.137100
     4  H    0.136988
     5  O   -0.495255
     6  C    0.809708
     7  N   -0.659531
     8  H    0.281818
     9  C    0.346496
    10  C   -0.146642
    11  C   -0.092205
    12  C    0.249436
    13  N    0.380300
    14  O   -0.405413
    15  H    0.138765
    16  C   -0.109352
    17  H    0.095724
    18  C   -0.107582
    19  H    0.140982
    20  O   -0.494450
    21  O   -0.403225
    22  H    0.149475
 Sum of Mulliken charges =  -0.00000

 Dipole moment (field-independent basis, Debye):
    X=             -6.4624    Y=              2.7429    Z=              0.0009  Tot=              7.0204
 Quadrupole moment (field-independent basis, Debye-Ang):
   XX=            -88.2704   YY=            -76.5046   ZZ=            -78.9775
   XY=             -1.4973   XZ=             -0.0048   YZ=             -0.0018

  Exact polarizability: 195.078  -1.110 112.083  -0.000  -0.002  45.999
 Approx polarizability: 268.975  -1.873 223.198   0.007   0.001  69.776

                      1                      2                      3
                      A                      A                      A
 Frequencies --     40.3827                53.5596                75.2425
 Red. masses --      5.5248                 6.2516                 4.9271
 Frc consts  --      0.0053                 0.0106                 0.0164
 IR Inten    --      0.1896                 2.0214                 0.1360

                      4                      5                      6
                      A                      A                      A
 Frequencies --     97.7241               107.8966               119.4115
 Red. masses --      1.2946                 5.5686                 3.8481
 Frc consts  --      0.0073                 0.0382                 0.0323
 IR Inten    --      2.4132                 0.3796                 4.5914

                      7                      8                      9
                      A                      A                      A
 Frequencies --    174.1939               223.9871               261.2696
 Red. masses --      4.7646                 6.5630                 9.3797
 Frc consts  --      0.0852                 0.1940                 0.3772
 IR Inten    --      1.2599                 3.9742                 2.7559

                     10                     11                     12
                      A                      A                      A
 Frequencies --    313.4697               325.0682               379.6773
 Red. masses --      6.4161                 4.5600                 6.7981
 Frc consts  --      0.3715                 0.2839                 0.5774
 IR Inten    --      1.6816                19.1247                 8.9018

                     13                     14                     15
                      A                      A                      A
 Frequencies --    425.4166               469.1396               511.9012
 Red. masses --      3.2073                 7.0325                 2.9954
 Frc consts  --      0.3420                 0.9119                 0.4625
 IR Inten    --      0.0050                 3.1802                 4.8816

                     16                     17                     18
                      A                      A                      A
 Frequencies --    536.8153               570.2129               639.7719
 Red. masses --      7.4492                 1.1143                 7.0784
 Frc consts  --      1.2648                 0.2135                 1.7070
 IR Inten    --      1.4045                84.2055                 1.3743

                     19                     20                     21
                      A                      A                      A
 Frequencies --    684.9023               701.0080               744.8750
 Red. masses --      7.0839                 3.9534                 5.9878
 Frc consts  --      1.9579                 1.1446                 1.9574
 IR Inten    --      5.4928                12.6211                 6.8943

                     22                     23                     24
                      A                      A                      A
 Frequencies --    752.1522               757.6814               836.0428
 Red. masses --     10.9027                 6.2660                 1.3484
 Frc consts  --      3.6341                 2.1194                 0.5553
 IR Inten    --     14.1441                28.8984                 8.5348

                     25                     26                     27
                      A                      A                      A
 Frequencies --    840.9547               877.2863               881.9226
 Red. masses --      6.9664                 1.5613                 7.3617
 Frc consts  --      2.9027                 0.7080                 3.3736
 IR Inten    --     14.0845                31.7765                34.9617

                     28                     29                     30
                      A                      A                      A
 Frequencies --    974.6320               976.2115              1001.1751
 Red. masses --      1.3132                 6.4084                 1.2907
 Frc consts  --      0.7349                 3.5982                 0.7623
 IR Inten    --      0.5754                 7.0982                 0.0001

                     31                     32                     33
                      A                      A                      A
 Frequencies --   1027.8598              1097.4000              1134.0805
 Red. masses --      2.8511                 5.6707                 2.3421
 Frc consts  --      1.7747                 4.0236                 1.7748
 IR Inten    --      0.0703               102.2532               102.3496

                     34                     35                     36
                      A                      A                      A
 Frequencies --   1143.7885              1181.7021              1208.9660
 Red. masses --      1.3118                 1.2658                 1.3501
 Frc consts  --      1.0111                 1.0415                 1.1626
 IR Inten    --     13.6894                 0.6207                83.6898

                     37                     38                     39
                      A                      A                      A
 Frequencies --   1215.2295              1244.6691              1299.0897
 Red. masses --      1.5377                 2.2523                 3.4943
 Frc consts  --      1.3380                 2.0558                 3.4744
 IR Inten    --     86.7802               641.4693                50.8189

                     40                     41                     42
                      A                      A                      A
 Frequencies --   1331.2913              1378.8967              1394.2439
 Red. masses --      1.3923                 8.8027                10.4829
 Frc consts  --      1.4538                 9.8612                12.0063
 IR Inten    --     56.0965               286.6010               361.7719

                     43                     44                     45
                      A                      A                      A
 Frequencies --   1452.4395              1481.4581              1495.3424
 Red. masses --      2.8414                 1.2464                 1.0466
 Frc consts  --      3.5317                 1.6118                 1.3788
 IR Inten    --     79.9026                 6.0706                 6.5130

                     46                     47                     48
                      A                      A                      A
 Frequencies --   1511.8660              1537.6843              1570.4677
 Red. masses --      1.0587                 2.3035                 2.7242
 Frc consts  --      1.4258                 3.2090                 3.9586
 IR Inten    --     33.7027                 3.4443               651.9291

                     49                     50                     51
                      A                      A                      A
 Frequencies --   1617.5328              1657.4070              1666.3499
 Red. masses --      6.4395                 5.8018                 8.0717
 Frc consts  --      9.9268                 9.3901                13.2053
 IR Inten    --    142.9290               134.1060               126.2910

                     52                     53                     54
                      A                      A                      A
 Frequencies --   1830.4481              3068.4080              3147.9845
 Red. masses --     10.0447                 1.0298                 1.1076
 Frc consts  --     19.8291                 5.7126                 6.4669
 IR Inten    --    224.2273                38.3740                18.4411

                     55                     56                     57
                      A                      A                      A
 Frequencies --   3179.3024              3185.5733              3243.8235
 Red. masses --      1.1071                 1.0905                 1.0907
 Frc consts  --      6.5932                 6.5201                 6.7622
 IR Inten    --     15.1444                11.1304                 1.5829

                     58                     59                     60
                      A                      A                      A
 Frequencies --   3247.3055              3268.0045              3631.6351
 Red. masses --      1.0928                 1.0931                 1.0767
 Frc consts  --      6.7895                 6.8781                 8.3667
 IR Inten    --      1.5458                 5.6666                45.2133

 - Thermochemistry -
 -------------------
 Temperature   298.150 Kelvin.  Pressure   1.00000 Atm.
 Atom     1 has atomic number  6 and mass  12.00000

 Molecular mass:   196.04841 amu.
 Principal axes and moments of inertia in atomic units:
                           1         2         3
     Eigenvalues --   653.460816756.505757398.57424
           X            1.00000   0.00282  -0.00000
           Y           -0.00282   1.00000  -0.00001
           Z            0.00000   0.00001   1.00000
 This molecule is an asymmetric top.
 Rotational symmetry number  1.
 Warning -- assumption of classical behavior for rotation
           may cause significant error
 Rotational temperatures (Kelvin)      0.13255     0.01282     0.01171
 Rotational constants (GHZ):           2.76182     0.26711     0.24393
 Zero-point vibrational energy     429484.7 (Joules/Mol)
                                  102.64931 (Kcal/Mol)
 Warning -- explicit consideration of  17 degrees of freedom as
           vibrations may cause significant error
 Vibrational temperatures:     58.10    77.06   108.26   140.60   155.24
          (Kelvin)            171.81   250.63   322.27   375.91   451.01
                              467.70   546.27   612.08   674.99   736.51
                              772.36   820.41   920.49   985.42  1008.59
                             1071.71  1082.18  1090.13  1202.88  1209.94
                             1262.22  1268.89  1402.28  1404.55  1440.47
                             1478.86  1578.91  1631.69  1645.65  1700.20
                             1739.43  1748.44  1790.80  1869.10  1915.43
                             1983.92  2006.00  2089.73  2131.49  2151.46
                             2175.24  2212.38  2259.55  2327.27  2384.64
                             2397.50  2633.60  4414.75  4529.24  4574.30
                             4583.32  4667.13  4672.14  4701.92  5225.11

 Zero-point correction=                           0.163582 (Hartree/Particle)
 Thermal correction to Energy=                    0.176143
 Thermal correction to Enthalpy=                  0.177087
 Thermal correction to Gibbs Free Energy=         0.123062
 Sum of electronic and zero-point Energies=           -719.844699
 Sum of electronic and thermal Energies=              -719.832138
 Sum of electronic and thermal Enthalpies=            -719.831194
 Sum of electronic and thermal Free Energies=         -719.885219

                     E (Thermal)             CV                S
                      KCal/Mol        Cal/Mol-Kelvin    Cal/Mol-Kelvin
 Total                  110.531             45.415            113.705
 Electronic               0.000              0.000              0.000
 Translational            0.889              2.981             41.725
 Rotational               0.889              2.981             31.858
 Vibrational            108.754             39.454             40.123
 Vibration     1          0.594              1.981              5.240
 Vibration     2          0.596              1.976              4.681
 Vibration     3          0.599              1.966              4.011
 Vibration     4          0.603              1.951              3.499
 Vibration     5          0.606              1.943              3.306
 Vibration     6          0.609              1.933              3.110
 Vibration     7          0.627              1.874              2.390
 Vibration     8          0.649              1.805              1.927
 Vibration     9          0.669              1.744              1.653
 Vibration    10          0.701              1.648              1.344
 Vibration    11          0.709              1.625              1.284
 Vibration    12          0.750              1.513              1.040
 Vibration    13          0.787              1.415              0.874
 Vibration    14          0.826              1.319              0.740
 Vibration    15          0.867              1.224              0.629
 Vibration    16          0.892              1.169              0.572
 Vibration    17          0.926              1.096              0.504

 Normal termination of Gaussian 09 at Fri Aug 20 16:04:06 2021.
