 Gaussian 09, Revision E.01,
 Gaussian 09:  ES64L-G09RevE.01 30-Nov-2015

 -------------------------
 #P OPT Freq B3LYP/6-31G**
 -------------------------

 ------
 XUCJEM
 ------
 Symbolic Z-matrix:
 Charge =  0 Multiplicity = 1

 SCF Done:  E(RB3LYP) =  -469.947875073     A.U. after   16 cycles
 SCF Done:  E(RB3LYP) =  -470.015419978     A.U. after   14 cycles
 SCF Done:  E(RB3LYP) =  -470.034251163     A.U. after   15 cycles
 SCF Done:  E(RB3LYP) =  -470.029000585     A.U. after   15 cycles
 SCF Done:  E(RB3LYP) =  -470.034471707     A.U. after   10 cycles
 SCF Done:  E(RB3LYP) =  -470.034656414     A.U. after   13 cycles
 SCF Done:  E(RB3LYP) =  -470.034690743     A.U. after   12 cycles
 SCF Done:  E(RB3LYP) =  -470.034698360     A.U. after   10 cycles
 SCF Done:  E(RB3LYP) =  -470.034699003     A.U. after    8 cycles
 SCF Done:  E(RB3LYP) =  -470.034699074     A.U. after    8 cycles
 Optimization completed.
    -- Stationary point found.
 Normal termination of Gaussian 09 at Fri Aug 20 15:58:09 2021.

 ----------------------------------------------------------------------
 #P Geom=AllCheck Guess=TCheck SCRF=Check GenChk RB3LYP/6-31G(d,p) Freq
 ----------------------------------------------------------------------

 Structure from the checkpoint file:  "/public/home/users/caep010/.cache/gau_scr/Gau-228077.chk"
 ------
 XUCJEM
 ------
 Charge =  0 Multiplicity = 1

                         Standard orientation:
 ---------------------------------------------------------------------
 Center     Atomic      Atomic             Coordinates (Angstroms)
 Number     Number       Type             X           Y           Z
 ---------------------------------------------------------------------
      1          8           0        2.177454   -1.370989   -0.000663
      2          7           0        1.871170   -0.171953    0.000077
      3          8           0        2.661117    0.765079    0.001172
      4          6           0        0.457338    0.118964   -0.000145
      5          7           0       -0.035048    1.388204   -0.000403
      6          6           0       -0.539491   -0.830912   -0.000199
      7          7           0       -1.700097   -0.104908   -0.000629
      8          1           0       -0.506151   -1.907742   -0.000280
      9          6           0       -3.057057   -0.635425    0.000979
     10          1           0       -3.759356    0.199196   -0.007312
     11          1           0       -3.233119   -1.236270    0.896878
     12          1           0       -3.229154   -1.250339   -0.886039
     13          6           0       -1.337096    1.222395   -0.000580
     14          1           0       -2.075125    2.012899   -0.000962
 ---------------------------------------------------------------------

 SCF Done:  E(RB3LYP) =  -470.034699074     A.U. after    1 cycles

 The electronic state is 1-A.
 Alpha  occ. eigenvalues --  -19.16889 -19.16554 -14.56187 -14.43306 -14.34602
 Alpha  occ. eigenvalues --  -10.27025 -10.26753 -10.26205 -10.25274  -1.21186
 Alpha  occ. eigenvalues --   -1.05492  -1.03839  -0.92561  -0.80658  -0.76979
 Alpha  occ. eigenvalues --   -0.70614  -0.61415  -0.59423  -0.55816  -0.52524
 Alpha  occ. eigenvalues --   -0.51128  -0.50198  -0.49843  -0.46852  -0.45792
 Alpha  occ. eigenvalues --   -0.44304  -0.42679  -0.30610  -0.30398  -0.29508
 Alpha  occ. eigenvalues --   -0.29506  -0.27850  -0.26248
 Alpha virt. eigenvalues --   -0.07106  -0.00060   0.06682   0.06841   0.09870
 Alpha virt. eigenvalues --    0.10673   0.12749   0.13784   0.13836   0.18680
 Alpha virt. eigenvalues --    0.21861   0.24278   0.27342   0.30997   0.31632

 Mulliken charges:
               1
     1  O   -0.418318
     2  N    0.359528
     3  O   -0.380836
     4  C    0.369021
     5  N   -0.444643
     6  C    0.115418
     7  N   -0.414966
     8  H    0.151346
     9  C   -0.188813
    10  H    0.142124
    11  H    0.152007
    12  H    0.151880
    13  C    0.277597
    14  H    0.128655
 Sum of Mulliken charges =  -0.00000

 Dipole moment (field-independent basis, Debye):
    X=             -7.8891    Y=             -1.5980    Z=              0.0005  Tot=              8.0493
 Quadrupole moment (field-independent basis, Debye-Ang):
   XX=            -48.2184   YY=            -52.6904   ZZ=            -50.0751
   XY=              0.6726   XZ=             -0.0029   YZ=             -0.0036

  Exact polarizability:  95.233   1.709  71.765  -0.004   0.002  32.484
 Approx polarizability: 140.566  10.985 142.124   0.007   0.024  48.709

                      1                      2                      3
                      A                      A                      A
 Frequencies --     53.6540                77.3548               153.6312
 Red. masses --      1.2110                 4.4188                 3.7918
 Frc consts  --      0.0021                 0.0156                 0.0527
 IR Inten    --      0.0360                 1.1254                 0.0862

                      4                      5                      6
                      A                      A                      A
 Frequencies --    193.2851               275.7284               356.8844
 Red. masses --      5.6750                 5.0481                 3.7267
 Frc consts  --      0.1249                 0.2261                 0.2797
 IR Inten    --      0.7629                 1.4580                 0.0844

                      7                      8                      9
                      A                      A                      A
 Frequencies --    423.3079               555.1338               618.7766
 Red. masses --      7.9765                 7.5092                 3.5975
 Frc consts  --      0.8421                 1.3635                 0.8116
 IR Inten    --      2.5755                 0.2145                 2.4493

                     10                     11                     12
                      A                      A                      A
 Frequencies --    665.8113               695.4516               756.5983
 Red. masses --      4.7610                 4.5405                 2.6253
 Frc consts  --      1.2435                 1.2939                 0.8854
 IR Inten    --     16.1380                 2.4106                17.3586

                     13                     14                     15
                      A                      A                      A
 Frequencies --    792.4946               834.6569               841.0851
 Red. masses --      2.0942                12.6968                 1.4503
 Frc consts  --      0.7749                 5.2115                 0.6045
 IR Inten    --      0.5147                56.8580                21.7733

                     16                     17                     18
                      A                      A                      A
 Frequencies --   1000.3906              1057.0652              1082.8824
 Red. masses --      4.9584                 4.5853                 1.4564
 Frc consts  --      2.9237                 3.0187                 1.0062
 IR Inten    --     13.3881                14.2925                 3.9968

                     19                     20                     21
                      A                      A                      A
 Frequencies --   1145.8701              1150.3831              1264.6326
 Red. masses --      1.7282                 1.3109                 1.3204
 Frc consts  --      1.3369                 1.0221                 1.2442
 IR Inten    --     30.0431                 0.0091                10.8747

                     22                     23                     24
                      A                      A                      A
 Frequencies --   1340.4845              1376.9883              1400.5652
 Red. masses --     10.2156                 4.6887                 9.0580
 Frc consts  --     10.8152                 5.2380                10.4686
 IR Inten    --     80.5013                82.0497               105.7201

                     25                     26                     27
                      A                      A                      A
 Frequencies --   1448.2520              1467.8592              1496.8963
 Red. masses --      5.1962                 1.4090                 1.0399
 Frc consts  --      6.4213                 1.7886                 1.3728
 IR Inten    --     56.1022                32.5277                 9.0496

                     28                     29                     30
                      A                      A                      A
 Frequencies --   1521.6311              1550.9084              1568.3061
 Red. masses --      1.2046                 3.4448                 4.1588
 Frc consts  --      1.6433                 4.8819                 6.0267
 IR Inten    --     18.3128                47.5334                32.9049

                     31                     32                     33
                      A                      A                      A
 Frequencies --   1645.5415              3064.9362              3137.2954
 Red. masses --     13.7713                 1.0332                 1.1066
 Frc consts  --     21.9707                 5.7183                 6.4171
 IR Inten    --    221.7717                32.1911                10.4852

                     34                     35                     36
                      A                      A                      A
 Frequencies --   3162.7407              3262.5268              3312.9260
 Red. masses --      1.1041                 1.0969                 1.1000
 Frc consts  --      6.5073                 6.8788                 7.1132
 IR Inten    --      5.4632                 0.4793                 6.4240

 - Thermochemistry -
 -------------------
 Temperature   298.150 Kelvin.  Pressure   1.00000 Atm.
 Atom     1 has atomic number  8 and mass  15.99491

 Molecular mass:   127.03818 amu.
 Principal axes and moments of inertia in atomic units:
                           1         2         3
     Eigenvalues --   395.072371637.341842020.97252
           X            0.99993   0.01223  -0.00002
           Y           -0.01223   0.99993  -0.00004
           Z            0.00002   0.00004   1.00000
 This molecule is an asymmetric top.
 Rotational symmetry number  1.
 Rotational temperatures (Kelvin)      0.21924     0.05290     0.04286
 Rotational constants (GHZ):           4.56813     1.10224     0.89301
 Zero-point vibrational energy     267682.0 (Joules/Mol)
                                   63.97753 (Kcal/Mol)
 Warning -- explicit consideration of   9 degrees of freedom as
           vibrations may cause significant error
 Vibrational temperatures:     77.20   111.30   221.04   278.09   396.71
          (Kelvin)            513.48   609.04   798.71   890.28   957.95
                             1000.60  1088.57  1140.22  1200.88  1210.13
                             1439.34  1520.88  1558.02  1648.65  1655.14
                             1819.52  1928.66  1981.18  2015.10  2083.71
                             2111.92  2153.70  2189.28  2231.41  2256.44
                             2367.56  4409.75  4513.86  4550.47  4694.04
                             4766.56

 Zero-point correction=                           0.101955 (Hartree/Particle)
 Thermal correction to Energy=                    0.109785
 Thermal correction to Enthalpy=                  0.110729
 Thermal correction to Gibbs Free Energy=         0.068414
 Sum of electronic and zero-point Energies=           -469.932744
 Sum of electronic and thermal Energies=              -469.924914
 Sum of electronic and thermal Enthalpies=            -469.923970
 Sum of electronic and thermal Free Energies=         -469.966285

                     E (Thermal)             CV                S
                      KCal/Mol        Cal/Mol-Kelvin    Cal/Mol-Kelvin
 Total                   68.891             27.246             89.060
 Electronic               0.000              0.000              0.000
 Translational            0.889              2.981             40.431
 Rotational               0.889              2.981             28.660
 Vibrational             67.114             21.285             19.968
 Vibration     1          0.596              1.976              4.678
 Vibration     2          0.599              1.964              3.957
 Vibration     3          0.619              1.899              2.627
 Vibration     4          0.635              1.849              2.196
 Vibration     5          0.677              1.718              1.560
 Vibration     6          0.732              1.561              1.136
 Vibration     7          0.785              1.420              0.881
 Vibration     8          0.911              1.128              0.534
 Vibration     9          0.979              0.992              0.418

 Normal termination of Gaussian 09 at Fri Aug 20 15:58:23 2021.
