 Gaussian 09, Revision E.01,
 Gaussian 09:  ES64L-G09RevE.01 30-Nov-2015

 -------------------------
 #P OPT Freq B3LYP/6-31G**
 -------------------------

 --------
 NITBAL02
 --------
 Symbolic Z-matrix:
 Charge =  0 Multiplicity = 1

 SCF Done:  E(RB3LYP) =  -605.291756833     A.U. after   16 cycles
 SCF Done:  E(RB3LYP) =  -605.364585430     A.U. after   13 cycles
 SCF Done:  E(RB3LYP) =  -605.385624889     A.U. after   14 cycles
 SCF Done:  E(RB3LYP) =  -605.377495665     A.U. after   17 cycles
 SCF Done:  E(RB3LYP) =  -605.386068097     A.U. after   11 cycles
 SCF Done:  E(RB3LYP) =  -605.386121581     A.U. after   13 cycles
 SCF Done:  E(RB3LYP) =  -605.386677251     A.U. after   12 cycles
 SCF Done:  E(RB3LYP) =  -605.386695953     A.U. after   11 cycles
 SCF Done:  E(RB3LYP) =  -605.386703610     A.U. after   11 cycles
 SCF Done:  E(RB3LYP) =  -605.386705379     A.U. after    9 cycles
 SCF Done:  E(RB3LYP) =  -605.386705693     A.U. after    9 cycles
 Optimization completed.
    -- Stationary point found.
 Normal termination of Gaussian 09 at Fri Aug 20 15:58:17 2021.

 ----------------------------------------------------------------------
 #P Geom=AllCheck Guess=TCheck SCRF=Check GenChk RB3LYP/6-31G(d,p) Freq
 ----------------------------------------------------------------------

 Structure from the checkpoint file:  "/public/home/users/caep010/.cache/gau_scr/Gau-48388.chk"
 --------
 NITBAL02
 --------
 Charge =  0 Multiplicity = 1

                         Standard orientation:
 ---------------------------------------------------------------------
 Center     Atomic      Atomic             Coordinates (Angstroms)
 Number     Number       Type             X           Y           Z
 ---------------------------------------------------------------------
      1          8           0       -4.777676   -0.119377   -0.000047
      2          1           0       -5.263162   -0.956263   -0.000615
      3          7           0       -3.448453   -0.533083   -0.000272
      4          6           0       -2.651715    0.472013    0.000093
      5          6           0       -1.198926    0.282190    0.000125
      6          6           0       -0.613156   -0.998832   -0.000100
      7          1           0       -3.045149    1.490928    0.000466
      8          6           0       -0.367138    1.414643    0.000350
      9          6           0        1.017220    1.283317    0.000274
     10          6           0        1.564732    0.003063    0.000063
     11          7           0        3.026964   -0.146109   -0.000034
     12          8           0        3.484811   -1.288983    0.000604
     13          1           0       -0.810789    2.405834    0.000550
     14          6           0        0.766076   -1.142728   -0.000098
     15          8           0        3.706870    0.880506   -0.000868
     16          1           0        1.673557    2.144048    0.000435
     17          1           0        1.237141   -2.117639   -0.000173
     18          1           0       -1.255774   -1.871716   -0.000274
 ---------------------------------------------------------------------

 SCF Done:  E(RB3LYP) =  -605.386705693     A.U. after    1 cycles

 The electronic state is 1-A.
 Alpha  occ. eigenvalues --  -19.21198 -19.18148 -19.18132 -14.57274 -14.40900
 Alpha  occ. eigenvalues --  -10.25738 -10.24479 -10.23553 -10.22526 -10.22381
 Alpha  occ. eigenvalues --  -10.22334 -10.21901  -1.22430  -1.10534  -1.05143
 Alpha  occ. eigenvalues --   -0.90590  -0.87972  -0.81088  -0.77911  -0.71911
 Alpha  occ. eigenvalues --   -0.64403  -0.62651  -0.58687  -0.55880  -0.55207
 Alpha  occ. eigenvalues --   -0.53212  -0.51151  -0.50196  -0.47924  -0.46892
 Alpha  occ. eigenvalues --   -0.45286  -0.44949  -0.43568  -0.39911  -0.39638
 Alpha  occ. eigenvalues --   -0.37414  -0.31869  -0.31036  -0.30859  -0.30031
 Alpha  occ. eigenvalues --   -0.29146  -0.28273  -0.25243
 Alpha virt. eigenvalues --   -0.09840  -0.04064  -0.02913   0.03939   0.05665
 Alpha virt. eigenvalues --    0.08276   0.10338   0.12777   0.14881   0.15521
 Alpha virt. eigenvalues --    0.16417   0.18617   0.19518   0.24196   0.26393

 Mulliken charges:
               1
     1  O   -0.398823
     2  H    0.340641
     3  N   -0.198187
     4  C    0.126627
     5  C    0.115593
     6  C   -0.118131
     7  H    0.108201
     8  C   -0.143182
     9  C   -0.092508
    10  C    0.246167
    11  N    0.386495
    12  O   -0.396387
    13  H    0.104654
    14  C   -0.089528
    15  O   -0.397478
    16  H    0.141134
    17  H    0.140926
    18  H    0.123784
 Sum of Mulliken charges =  -0.00000

 Dipole moment (field-independent basis, Debye):
    X=             -4.7552    Y=              0.3174    Z=              0.0000  Tot=              4.7658
 Quadrupole moment (field-independent basis, Debye-Ang):
   XX=            -76.7141   YY=            -61.7489   ZZ=            -68.0885
   XY=              5.0261   XZ=              0.0055   YZ=              0.0056

  Exact polarizability: 185.725   6.353 101.363   0.001   0.003  34.368
 Approx polarizability: 290.277  19.717 203.755   0.001  -0.008  53.756

                      1                      2                      3
                      A                      A                      A
 Frequencies --     55.8481                66.5358               120.8570
 Red. masses --      7.5988                 6.9371                 7.0613
 Frc consts  --      0.0140                 0.0181                 0.0608
 IR Inten    --      0.4250                 0.3430                 0.8948

                      4                      5                      6
                      A                      A                      A
 Frequencies --    130.7451               198.8640               254.9753
 Red. masses --      3.3406                 9.8335                 7.2087
 Frc consts  --      0.0336                 0.2291                 0.2761
 IR Inten    --      1.3317                 1.0838                 3.1138

                      7                      8                      9
                      A                      A                      A
 Frequencies --    300.7932               350.7910               420.6141
 Red. masses --     10.8170                 5.3450                 2.9596
 Frc consts  --      0.5766                 0.3875                 0.3085
 IR Inten    --      0.1952                 2.1638                 2.1167

                     10                     11                     12
                      A                      A                      A
 Frequencies --    437.8392               449.2438               497.0255
 Red. masses --      5.4154                 1.1365                 8.4452
 Frc consts  --      0.6117                 0.1351                 1.2292
 IR Inten    --      1.8259               136.3643                19.8219

                     13                     14                     15
                      A                      A                      A
 Frequencies --    522.1753               539.5156               644.3910
 Red. masses --      3.0699                 6.5266                 7.1256
 Frc consts  --      0.4932                 1.1193                 1.7433
 IR Inten    --      1.8012                 1.4724                 0.0362

                     16                     17                     18
                      A                      A                      A
 Frequencies --    703.4177               704.2085               760.1067
 Red. masses --      7.0268                 4.0878                 5.1751
 Frc consts  --      2.0485                 1.1944                 1.7617
 IR Inten    --      4.0627                15.2781                16.5431

                     19                     20                     21
                      A                      A                      A
 Frequencies --    851.2321               853.2772               876.9841
 Red. masses --      7.2614                 1.2747                 1.5979
 Frc consts  --      3.1000                 0.5468                 0.7241
 IR Inten    --     96.6632                 1.8451                24.0146

                     22                     23                     24
                      A                      A                      A
 Frequencies --    895.6584               974.3549               989.2166
 Red. masses --      4.8712                 1.4231                 1.3825
 Frc consts  --      2.3023                 0.7960                 0.7971
 IR Inten    --      1.8891                12.8765                 2.4250

                     25                     26                     27
                      A                      A                      A
 Frequencies --   1002.5248              1024.9729              1030.9995
 Red. masses --      1.3165                 7.2298                 3.0348
 Frc consts  --      0.7796                 4.4751                 1.9006
 IR Inten    --      0.2903               250.2155                25.7779

                     28                     29                     30
                      A                      A                      A
 Frequencies --   1128.0466              1132.0576              1202.4039
 Red. masses --      2.6245                 1.3374                 1.2654
 Frc consts  --      1.9677                 1.0099                 1.0779
 IR Inten    --     54.9394                 4.5600                 1.5487

                     31                     32                     33
                      A                      A                      A
 Frequencies --   1245.7357              1299.6736              1328.7114
 Red. masses --      2.3430                 1.3180                 1.2939
 Frc consts  --      2.1423                 1.3117                 1.3459
 IR Inten    --     19.6223                96.5318                 6.3923

                     34                     35                     36
                      A                      A                      A
 Frequencies --   1374.1784              1394.3999              1443.4813
 Red. masses --      8.3178                14.0127                 2.5772
 Frc consts  --      9.2543                16.0527                 3.1639
 IR Inten    --      9.4280               433.9898                16.1468

                     37                     38                     39
                      A                      A                      A
 Frequencies --   1462.7132              1536.7412              1609.4862
 Red. masses --      1.7121                 2.5415                 9.4582
 Frc consts  --      2.1583                 3.5363                14.4356
 IR Inten    --     20.9186                 9.5744                99.7205

                     40                     41                     42
                      A                      A                      A
 Frequencies --   1652.7846              1663.5531              1701.0908
 Red. masses --      5.8926                 9.4854                 6.6661
 Frc consts  --      9.4840                15.4660                11.3653
 IR Inten    --     41.1847               105.3264                 5.7931

                     43                     44                     45
                      A                      A                      A
 Frequencies --   3126.0362              3196.6784              3223.6450
 Red. masses --      1.0895                 1.0904                 1.0900
 Frc consts  --      6.2731                 6.5652                 6.6735
 IR Inten    --     15.9307                 7.4673                 0.6885

                     46                     47                     48
                      A                      A                      A
 Frequencies --   3245.7474              3247.3653              3807.1957
 Red. masses --      1.0937                 1.0931                 1.0677
 Frc consts  --      6.7886                 6.7914                 9.1184
 IR Inten    --      0.8455                 1.2942               136.3683

 - Thermochemistry -
 -------------------
 Temperature   298.150 Kelvin.  Pressure   1.00000 Atm.
 Atom     1 has atomic number  8 and mass  15.99491

 Molecular mass:   166.03784 amu.
 Principal axes and moments of inertia in atomic units:
                           1         2         3
     Eigenvalues --   500.660214549.909565050.56960
           X            1.00000   0.00158   0.00000
           Y           -0.00158   1.00000   0.00003
           Z           -0.00000  -0.00003   1.00000
 This molecule is an asymmetric top.
 Rotational symmetry number  1.
 Warning -- assumption of classical behavior for rotation
           may cause significant error
 Rotational temperatures (Kelvin)      0.17300     0.01904     0.01715
 Rotational constants (GHZ):           3.60472     0.39665     0.35733
 Zero-point vibrational energy     339015.1 (Joules/Mol)
                                   81.02654 (Kcal/Mol)
 Warning -- explicit consideration of  14 degrees of freedom as
           vibrations may cause significant error
 Vibrational temperatures:     80.35    95.73   173.89   188.11   286.12
          (Kelvin)            366.85   432.77   504.71   605.17   629.95
                              646.36   715.11   751.29   776.24   927.13
                             1012.06  1013.20  1093.62  1224.73  1227.67
                             1261.78  1288.65  1401.88  1423.26  1442.41
                             1474.71  1483.38  1623.01  1628.78  1729.99
                             1792.33  1869.94  1911.72  1977.13  2006.23
                             2076.84  2104.52  2211.03  2315.69  2377.99
                             2393.48  2447.49  4497.66  4599.30  4638.10
                             4669.90  4672.23  5477.70

 Zero-point correction=                           0.129124 (Hartree/Particle)
 Thermal correction to Energy=                    0.139247
 Thermal correction to Enthalpy=                  0.140191
 Thermal correction to Gibbs Free Energy=         0.092510
 Sum of electronic and zero-point Energies=           -605.257582
 Sum of electronic and thermal Energies=              -605.247459
 Sum of electronic and thermal Enthalpies=            -605.246514
 Sum of electronic and thermal Free Energies=         -605.294196

                     E (Thermal)             CV                S
                      KCal/Mol        Cal/Mol-Kelvin    Cal/Mol-Kelvin
 Total                   87.379             37.553            100.354
 Electronic               0.000              0.000              0.000
 Translational            0.889              2.981             41.229
 Rotational               0.889              2.981             30.821
 Vibrational             85.601             31.592             28.304
 Vibration     1          0.596              1.975              4.599
 Vibration     2          0.598              1.970              4.253
 Vibration     3          0.609              1.932              3.087
 Vibration     4          0.612              1.923              2.935
 Vibration     5          0.637              1.841              2.144
 Vibration     6          0.665              1.754              1.696
 Vibration     7          0.693              1.672              1.412
 Vibration     8          0.728              1.574              1.163
 Vibration     9          0.783              1.425              0.890
 Vibration    10          0.798              1.388              0.833
 Vibration    11          0.808              1.363              0.798
 Vibration    12          0.853              1.257              0.666
 Vibration    13          0.877              1.201              0.605
 Vibration    14          0.895              1.163              0.566

 Optimization completed.
    -- Stationary point found.
 Normal termination of Gaussian 09 at Fri Aug 20 15:58:43 2021.
