 Gaussian 09, Revision E.01,
 Gaussian 09:  ES64L-G09RevE.01 30-Nov-2015

 -------------------------
 #P OPT Freq B3LYP/6-31G**
 -------------------------

 ------
 LAHCEC
 ------
 Symbolic Z-matrix:
 Charge =  0 Multiplicity = 1

 SCF Done:  E(RB3LYP) =  -719.812704038     A.U. after   15 cycles
 SCF Done:  E(RB3LYP) =  -719.932729657     A.U. after   13 cycles
 SCF Done:  E(RB3LYP) =  -720.000526125     A.U. after   14 cycles
 SCF Done:  E(RB3LYP) =  -720.002349085     A.U. after   12 cycles
 SCF Done:  E(RB3LYP) =  -720.000076989     A.U. after   14 cycles
 SCF Done:  E(RB3LYP) =  -720.002457272     A.U. after    9 cycles
 SCF Done:  E(RB3LYP) =  -720.002510338     A.U. after   12 cycles
 SCF Done:  E(RB3LYP) =  -720.002443004     A.U. after   12 cycles
 SCF Done:  E(RB3LYP) =  -720.002633603     A.U. after   12 cycles
 SCF Done:  E(RB3LYP) =  -720.002637089     A.U. after    9 cycles
 SCF Done:  E(RB3LYP) =  -720.002638910     A.U. after    9 cycles
 SCF Done:  E(RB3LYP) =  -720.002639964     A.U. after    8 cycles
 SCF Done:  E(RB3LYP) =  -720.002640564     A.U. after    8 cycles
 SCF Done:  E(RB3LYP) =  -720.002640840     A.U. after    8 cycles
 SCF Done:  E(RB3LYP) =  -720.002641122     A.U. after    8 cycles
 SCF Done:  E(RB3LYP) =  -720.002641928     A.U. after    9 cycles
 SCF Done:  E(RB3LYP) =  -720.002643673     A.U. after   10 cycles
 SCF Done:  E(RB3LYP) =  -720.002644003     A.U. after   10 cycles
 SCF Done:  E(RB3LYP) =  -720.002644024     A.U. after    8 cycles
 Optimization completed.
    -- Stationary point found.
 Normal termination of Gaussian 09 at Fri Aug 20 15:57:25 2021.

 ----------------------------------------------------------------------
 #P Geom=AllCheck Guess=TCheck SCRF=Check GenChk RB3LYP/6-31G(d,p) Freq
 ----------------------------------------------------------------------

 Structure from the checkpoint file:  "/public/home/users/caep010/.cache/gau_scr/Gau-140171.chk"
 ------
 LAHCEC
 ------
 Charge =  0 Multiplicity = 1

                         Standard orientation:
 ---------------------------------------------------------------------
 Center     Atomic      Atomic             Coordinates (Angstroms)
 Number     Number       Type             X           Y           Z
 ---------------------------------------------------------------------
      1          8           0       -4.337997   -1.299551   -0.000406
      2          7           0       -3.872758   -0.155562   -0.000182
      3          8           0       -4.558725    0.871326   -0.000111
      4          6           0       -2.426085   -0.007544    0.000005
      5          6           0       -1.617549   -1.144051    0.000194
      6          6           0       -0.237357   -1.007692    0.000372
      7          6           0        0.355902    0.275850    0.000337
      8          6           0       -0.488805    1.412860    0.000147
      9          7           0        1.712502    0.446628    0.000562
     10          6           0       -1.863135    1.273687   -0.000009
     11          6           0        2.676797   -0.617148    0.000158
     12          6           0        4.070082   -0.018147   -0.000183
     13          8           0        5.014026   -0.975848   -0.000271
     14          8           0        4.308996    1.169225   -0.000380
     15          1           0        0.382105   -1.897276    0.000567
     16          1           0       -2.083442   -2.121553    0.000200
     17          1           0       -2.516641    2.136972   -0.000139
     18          1           0       -0.044612    2.404172    0.000131
     19          1           0        2.102186    1.379513    0.000096
     20          1           0        5.875712   -0.525063   -0.000552
     21          1           0        2.588746   -1.271266    0.881174
     22          1           0        2.588237   -1.271075   -0.880921
 ---------------------------------------------------------------------

 SCF Done:  E(RB3LYP) =  -720.002644024     A.U. after    1 cycles

 The electronic state is 1-A.
 Alpha  occ. eigenvalues --  -19.23207 -19.17776 -19.16094 -19.16080 -14.55370
 Alpha  occ. eigenvalues --  -14.37762 -10.35906 -10.26766 -10.26041 -10.23341
 Alpha  occ. eigenvalues --  -10.21350 -10.21242 -10.20659 -10.20639  -1.20322
 Alpha  occ. eigenvalues --   -1.14304  -1.05449  -1.02956  -0.96993  -0.87589
 Alpha  occ. eigenvalues --   -0.80636  -0.77008  -0.75968  -0.68495  -0.65262
 Alpha  occ. eigenvalues --   -0.62272  -0.59385  -0.56685  -0.54032  -0.52472
 Alpha  occ. eigenvalues --   -0.51526  -0.51300  -0.50969  -0.49776  -0.48448
 Alpha  occ. eigenvalues --   -0.46012  -0.44626  -0.44502  -0.44169  -0.42418
 Alpha  occ. eigenvalues --   -0.41200  -0.39293  -0.36230  -0.35460  -0.32397
 Alpha  occ. eigenvalues --   -0.31645  -0.29181  -0.29091  -0.27225  -0.27184
 Alpha  occ. eigenvalues --   -0.22242
 Alpha virt. eigenvalues --   -0.06993  -0.02507  -0.01658   0.02360   0.04893
 Alpha virt. eigenvalues --    0.07872   0.08296   0.10147   0.13648   0.14877
 Alpha virt. eigenvalues --    0.15836   0.15957   0.17894   0.18217   0.20574

 Mulliken charges:
               1
     1  O   -0.415636
     2  N    0.373686
     3  O   -0.414143
     4  C    0.241747
     5  C   -0.102286
     6  C   -0.141238
     7  C    0.382725
     8  C   -0.140169
     9  N   -0.630129
    10  C   -0.093402
    11  C   -0.064437
    12  C    0.560187
    13  O   -0.476442
    14  O   -0.456277
    15  H    0.091018
    16  H    0.133928
    17  H    0.134580
    18  H    0.093680
    19  H    0.279897
    20  H    0.335736
    21  H    0.153491
    22  H    0.153485
 Sum of Mulliken charges =  -0.00000

 Dipole moment (field-independent basis, Debye):
    X=              7.9702    Y=             -0.6342    Z=             -0.0003  Tot=              7.9954
 Quadrupole moment (field-independent basis, Debye-Ang):
   XX=            -91.9508   YY=            -77.8798   ZZ=            -79.1842
   XY=             -7.1733   XZ=             -0.0045   YZ=             -0.0014

  Exact polarizability: 195.908  -0.560 113.697   0.008  -0.002  45.369
 Approx polarizability: 287.135   2.778 223.614   0.022  -0.001  70.175

                      1                      2                      3
                      A                      A                      A
 Frequencies --     15.0826                56.1792                78.1603
 Red. masses --      8.2751                12.2485                 5.8571
 Frc consts  --      0.0011                 0.0228                 0.0211
 IR Inten    --      0.0003                 0.3682                 0.0304

                      4                      5                      6
                      A                      A                      A
 Frequencies --     84.5422               109.2030               119.0595
 Red. masses --      7.4454                 4.2835                 3.4943
 Frc consts  --      0.0314                 0.0301                 0.0292
 IR Inten    --      2.7270                 0.0089                15.9159

                      7                      8                      9
                      A                      A                      A
 Frequencies --    205.4661               237.3915               290.0978
 Red. masses --      9.5144                 8.6247                 6.7610
 Frc consts  --      0.2367                 0.2864                 0.3352
 IR Inten    --      5.1229                 0.7668                 0.3380

                     10                     11                     12
                      A                      A                      A
 Frequencies --    331.2032               424.2838               434.6072
 Red. masses --      6.4971                 1.7790                 8.2813
 Frc consts  --      0.4199                 0.1887                 0.9216
 IR Inten    --      1.1383                29.0694                12.7475

                     13                     14                     15
                      A                      A                      A
 Frequencies --    435.2996               506.9048               512.1383
 Red. masses --      1.4943                 2.5534                 6.4777
 Frc consts  --      0.1668                 0.3866                 1.0010
 IR Inten    --     37.8231                 9.3586                 8.5225

                     16                     17                     18
                      A                      A                      A
 Frequencies --    526.0449               552.8480               615.8566
 Red. masses --      1.6331                 5.0290                 5.1368
 Frc consts  --      0.2663                 0.9056                 1.1479
 IR Inten    --     13.4555                11.5375                32.7215

                     19                     20                     21
                      A                      A                      A
 Frequencies --    647.9942               673.0293               688.1727
 Red. masses --      7.0465                 1.4755                 6.4855
 Frc consts  --      1.7433                 0.3938                 1.8096
 IR Inten    --      0.6733               115.3719                32.7627

                     22                     23                     24
                      A                      A                      A
 Frequencies --    703.5426               757.6327               817.2400
 Red. masses --      3.4872                 6.9864                 1.2589
 Frc consts  --      1.0170                 2.3628                 0.4954
 IR Inten    --     12.4280                25.0780                 0.0570

                     25                     26                     27
                      A                      A                      A
 Frequencies --    838.7917               844.7564               875.1674
 Red. masses --      6.4767                 1.8501                 6.5558
 Frc consts  --      2.6848                 0.7779                 2.9584
 IR Inten    --      4.8376                40.3724                30.3960

                     28                     29                     30
                      A                      A                      A
 Frequencies --    908.2776               972.4173               982.4267
 Red. masses --      3.1402                 1.3074                 1.3022
 Frc consts  --      1.5263                 0.7284                 0.7405
 IR Inten    --     13.7417                 0.0282                 1.2171

                     31                     32                     33
                      A                      A                      A
 Frequencies --   1019.0689              1031.3501              1134.1110
 Red. masses --      2.8005                 2.0068                 1.6102
 Frc consts  --      1.7135                 1.2577                 1.2202
 IR Inten    --      2.9774                 1.9364                 5.8591

                     34                     35                     36
                      A                      A                      A
 Frequencies --   1136.1527              1164.3671              1197.8393
 Red. masses --      2.0684                 2.8641                 2.3216
 Frc consts  --      1.5731                 2.2878                 1.9626
 IR Inten    --    152.8725               264.7443               156.4238

                     37                     38                     39
                      A                      A                      A
 Frequencies --   1215.5428              1237.5723              1288.0418
 Red. masses --      1.4140                 1.0859                 1.5464
 Frc consts  --      1.2310                 0.9799                 1.5116
 IR Inten    --      6.6243                 0.0612                 7.8269

                     40                     41                     42
                      A                      A                      A
 Frequencies --   1327.7496              1350.0786              1381.1718
 Red. masses --      1.3863                 1.8458                 9.2977
 Frc consts  --      1.4399                 1.9822                10.4501
 IR Inten    --     19.3655                 0.5565               780.0945

                     43                     44                     45
                      A                      A                      A
 Frequencies --   1396.3475              1434.8778              1469.7436
 Red. masses --      5.3510                 2.6523                 3.0332
 Frc consts  --      6.1471                 3.2173                 3.8605
 IR Inten    --     99.6096               129.2264                 0.5196

                     46                     47                     48
                      A                      A                      A
 Frequencies --   1504.6576              1528.9584              1573.6308
 Red. masses --      1.1871                 1.7624                 3.5528
 Frc consts  --      1.5835                 2.4274                 5.1835
 IR Inten    --     28.6420                14.7989               220.4832

                     49                     50                     51
                      A                      A                      A
 Frequencies --   1601.7339              1653.1254              1664.9960
 Red. masses --      6.3832                 8.3029                 6.0332
 Frc consts  --      9.6488                13.3687                 9.8543
 IR Inten    --     82.2366               130.7439               369.2570

                     52                     53                     54
                      A                      A                      A
 Frequencies --   1848.0538              3000.9951              3023.4084
 Red. masses --      9.8309                 1.0578                 1.1031
 Frc consts  --     19.7820                 5.6128                 5.9413
 IR Inten    --    248.9974                60.5105                14.7408

                     55                     56                     57
                      A                      A                      A
 Frequencies --   3188.7372              3212.4390              3243.2141
 Red. masses --      1.0903                 1.0890                 1.0926
 Frc consts  --      6.5316                 6.6213                 6.7712
 IR Inten    --      9.4546                11.4799                 0.0461

                     58                     59                     60
                      A                      A                      A
 Frequencies --   3243.4409              3615.2094              3756.2984
 Red. masses --      1.0933                 1.0769                 1.0643
 Frc consts  --      6.7766                 8.2925                 8.8479
 IR Inten    --      2.7037               165.4598                86.5218

 - Thermochemistry -
 -------------------
 Temperature   298.150 Kelvin.  Pressure   1.00000 Atm.
 Atom     1 has atomic number  8 and mass  15.99491

 Molecular mass:   196.04841 amu.
 Principal axes and moments of inertia in atomic units:
                           1         2         3
     Eigenvalues --   649.046647434.870748072.74242
           X            0.99999  -0.00449  -0.00000
           Y            0.00449   0.99999  -0.00001
           Z            0.00000   0.00001   1.00000
 This molecule is an asymmetric top.
 Rotational symmetry number  1.
 Warning -- assumption of classical behavior for rotation
           may cause significant error
 Rotational temperatures (Kelvin)      0.13345     0.01165     0.01073
 Rotational constants (GHZ):           2.78060     0.24274     0.22356
 Zero-point vibrational energy     428781.9 (Joules/Mol)
                                  102.48133 (Kcal/Mol)
 Warning -- explicit consideration of  18 degrees of freedom as
           vibrations may cause significant error
 Vibrational temperatures:     21.70    80.83   112.46   121.64   157.12
          (Kelvin)            171.30   295.62   341.55   417.39   476.53
                              610.45   625.30   626.30   729.32   736.85
                              756.86   795.42   886.08   932.32   968.34
                              990.13  1012.24  1090.06  1175.82  1206.83
                             1215.41  1259.17  1306.81  1399.09  1413.49
                             1466.21  1483.88  1631.73  1634.67  1675.26
                             1723.42  1748.89  1780.59  1853.20  1910.33
                             1942.46  1987.20  2009.03  2064.47  2114.63
                             2164.86  2199.83  2264.10  2304.53  2378.48
                             2395.55  2658.93  4317.76  4350.00  4587.88
                             4621.98  4666.26  4666.58  5201.47  5404.47

 Zero-point correction=                           0.163314 (Hartree/Particle)
 Thermal correction to Energy=                    0.175765
 Thermal correction to Enthalpy=                  0.176709
 Thermal correction to Gibbs Free Energy=         0.122100
 Sum of electronic and zero-point Energies=           -719.839330
 Sum of electronic and thermal Energies=              -719.826879
 Sum of electronic and thermal Enthalpies=            -719.825935
 Sum of electronic and thermal Free Energies=         -719.880544

                     E (Thermal)             CV                S
                      KCal/Mol        Cal/Mol-Kelvin    Cal/Mol-Kelvin
 Total                  110.294             45.647            114.936
 Electronic               0.000              0.000              0.000
 Translational            0.889              2.981             41.725
 Rotational               0.889              2.981             32.033
 Vibrational            108.517             39.686             41.179
 Vibration     1          0.593              1.986              7.195
 Vibration     2          0.596              1.975              4.587
 Vibration     3          0.599              1.964              3.937
 Vibration     4          0.601              1.960              3.783
 Vibration     5          0.606              1.942              3.283
 Vibration     6          0.609              1.933              3.116
 Vibration     7          0.640              1.832              2.084
 Vibration     8          0.656              1.783              1.822
 Vibration     9          0.686              1.692              1.473
 Vibration    10          0.714              1.613              1.254
 Vibration    11          0.786              1.417              0.878
 Vibration    12          0.795              1.395              0.844
 Vibration    13          0.796              1.393              0.842
 Vibration    14          0.862              1.235              0.641
 Vibration    15          0.867              1.223              0.628
 Vibration    16          0.881              1.192              0.596
 Vibration    17          0.908              1.133              0.538
 Vibration    18          0.975              0.998              0.423

 Optimization completed.
    -- Stationary point found.
 Normal termination of Gaussian 09 at Fri Aug 20 15:58:02 2021.
