 Gaussian 09, Revision E.01,
 Gaussian 09:  ES64L-G09RevE.01 30-Nov-2015

 -------------------------
 #P OPT Freq B3LYP/6-31G**
 -------------------------

 ------
 JERVUY
 ------
 Symbolic Z-matrix:
 Charge =  0 Multiplicity = 1

 SCF Done:  E(RB3LYP) =  -732.434765272     A.U. after   18 cycles
 SCF Done:  E(RB3LYP) =  -732.498184437     A.U. after   15 cycles
 SCF Done:  E(RB3LYP) =  -732.505826983     A.U. after   16 cycles
 SCF Done:  E(RB3LYP) =  -732.493584488     A.U. after   17 cycles
 SCF Done:  E(RB3LYP) =  -732.509136541     A.U. after   13 cycles
 SCF Done:  E(RB3LYP) =  -732.509262637     A.U. after   15 cycles
 SCF Done:  E(RB3LYP) =  -732.506931455     A.U. after   15 cycles
 SCF Done:  E(RB3LYP) =  -732.509729281     A.U. after   12 cycles
 SCF Done:  E(RB3LYP) =  -732.510100812     A.U. after   13 cycles
 SCF Done:  E(RB3LYP) =  -732.510157873     A.U. after   13 cycles
 SCF Done:  E(RB3LYP) =  -732.510173811     A.U. after   13 cycles
 SCF Done:  E(RB3LYP) =  -732.510190419     A.U. after   14 cycles
 SCF Done:  E(RB3LYP) =  -732.510195602     A.U. after   13 cycles
 SCF Done:  E(RB3LYP) =  -732.510198499     A.U. after   13 cycles
 SCF Done:  E(RB3LYP) =  -732.510198943     A.U. after    9 cycles
 SCF Done:  E(RB3LYP) =  -732.510198988     A.U. after    9 cycles
 Optimization completed.
    -- Stationary point found.
 Normal termination of Gaussian 09 at Fri Aug 20 15:58:52 2021.

 ----------------------------------------------------------------------
 #P Geom=AllCheck Guess=TCheck SCRF=Check GenChk RB3LYP/6-31G(d,p) Freq
 ----------------------------------------------------------------------

 Structure from the checkpoint file:  "/public/home/users/caep010/.cache/gau_scr/Gau-197443.chk"
 ------
 JERVUY
 ------
 Charge =  0 Multiplicity = 1

                         Standard orientation:
 ---------------------------------------------------------------------
 Center     Atomic      Atomic             Coordinates (Angstroms)
 Number     Number       Type             X           Y           Z
 ---------------------------------------------------------------------
      1          7           0        0.004781    2.003159   -0.037388
      2          6           0        1.250348    1.291263   -0.057289
      3          1           0        0.124867    3.010362   -0.060497
      4          8           0        2.281195    1.924973   -0.128768
      5          6           0        1.032048   -0.158277   -0.016732
      6          7           0        2.189141   -1.062401    0.020008
      7          8           0        3.251085   -0.608962    0.427130
      8          6           0       -0.211859   -0.720883   -0.006074
      9          8           0        1.996637   -2.225198   -0.340636
     10          1           0       -0.317832   -1.799143   -0.004522
     11          6           0       -1.360160    0.102832    0.005771
     12          7           0       -2.692430   -0.477077    0.035839
     13          8           0       -2.772494   -1.703443    0.050560
     14          8           0       -3.648793    0.301291    0.044198
     15          6           0       -1.226053    1.469110   -0.007189
     16          1           0       -2.084473    2.129454    0.005015
 ---------------------------------------------------------------------

 SCF Done:  E(RB3LYP) =  -732.510198988     A.U. after    1 cycles

 The electronic state is 1-A.
 Alpha  occ. eigenvalues --  -19.20871 -19.20676 -19.19637 -19.19357 -19.16610
 Alpha  occ. eigenvalues --  -14.60317 -14.59033 -14.45859 -10.35230 -10.32220
 Alpha  occ. eigenvalues --  -10.29208 -10.29002 -10.27685  -1.25261  -1.24059
 Alpha  occ. eigenvalues --   -1.09531  -1.08007  -1.06736  -1.02221  -0.90566
 Alpha  occ. eigenvalues --   -0.86064  -0.75956  -0.74868  -0.70944  -0.62981
 Alpha  occ. eigenvalues --   -0.60510  -0.58417  -0.56347  -0.56188  -0.55782
 Alpha  occ. eigenvalues --   -0.54336  -0.53529  -0.52728  -0.50700  -0.49168
 Alpha  occ. eigenvalues --   -0.46366  -0.45045  -0.40286  -0.36984  -0.33845
 Alpha  occ. eigenvalues --   -0.33519  -0.33149  -0.32099  -0.31894  -0.30990
 Alpha  occ. eigenvalues --   -0.29436  -0.28113
 Alpha virt. eigenvalues --   -0.12090  -0.11037  -0.06089  -0.01149   0.02306
 Alpha virt. eigenvalues --    0.08394   0.09900   0.10047   0.13558   0.15941
 Alpha virt. eigenvalues --    0.16337   0.22715   0.23461   0.24104   0.25297

 Mulliken charges:
               1
     1  N   -0.576078
     2  C    0.595792
     3  H    0.305331
     4  O   -0.449371
     5  C    0.146357
     6  N    0.384846
     7  O   -0.349051
     8  C   -0.023281
     9  O   -0.389453
    10  H    0.195741
    11  C    0.173784
    12  N    0.384409
    13  O   -0.382236
    14  O   -0.402644
    15  C    0.192167
    16  H    0.193688
 Sum of Mulliken charges =  -0.00000

 Dipole moment (field-independent basis, Debye):
    X=             -2.7692    Y=              4.3490    Z=              0.0052  Tot=              5.1558
 Quadrupole moment (field-independent basis, Debye-Ang):
   XX=            -99.0290   YY=            -67.9130   ZZ=            -68.8314
   XY=             -6.0567   XZ=             -0.2828   YZ=             -0.7836

  Exact polarizability: 136.258   5.745 106.917   1.314   1.790  35.196
 Approx polarizability: 240.903  26.401 218.750   7.098   9.250  58.622

                      1                      2                      3
                      A                      A                      A
 Frequencies --     41.0682                64.7456                95.4666
 Red. masses --     15.5816                15.3013                 9.2486
 Frc consts  --      0.0155                 0.0378                 0.0497
 IR Inten    --      0.2393                 0.0849                11.7161

                      4                      5                      6
                      A                      A                      A
 Frequencies --    148.4397               160.5006               265.6569
 Red. masses --      6.3645                13.5508                11.1849
 Frc consts  --      0.0826                 0.2057                 0.4651
 IR Inten    --      1.6823                 3.5394                 2.9340

                      7                      8                      9
                      A                      A                      A
 Frequencies --    281.4194               346.5033               358.7242
 Red. masses --      9.5318                12.7723                12.1556
 Frc consts  --      0.4448                 0.9035                 0.9216
 IR Inten    --      0.3293                 0.1301                 0.4277

                     10                     11                     12
                      A                      A                      A
 Frequencies --    402.3327               443.7873               499.2166
 Red. masses --      5.4884                 6.0502                 3.2218
 Frc consts  --      0.5234                 0.7020                 0.4731
 IR Inten    --      1.5580                 1.8541                22.5473

                     13                     14                     15
                      A                      A                      A
 Frequencies --    525.9686               590.0991               641.1697
 Red. masses --      9.3282                 5.4608                 7.6434
 Frc consts  --      1.5204                 1.1204                 1.8513
 IR Inten    --     10.0497                 2.9915                 3.4541

                     16                     17                     18
                      A                      A                      A
 Frequencies --    696.1396               725.6036               749.1363
 Red. masses --      5.3571                 4.0047                 5.7482
 Frc consts  --      1.5296                 1.2423                 1.9007
 IR Inten    --     22.4086                59.0593                 5.3495

                     19                     20                     21
                      A                      A                      A
 Frequencies --    754.2529               790.8477               822.9395
 Red. masses --      2.2535                 6.2289                 7.2285
 Frc consts  --      0.7553                 2.2954                 2.8842
 IR Inten    --     39.6512                46.7524                22.6468

                     22                     23                     24
                      A                      A                      A
 Frequencies --    844.6439               947.6169               970.6378
 Red. masses --     10.9180                 8.6641                 1.4123
 Frc consts  --      4.5893                 4.5840                 0.7840
 IR Inten    --     14.9218                 7.1452                 3.9011

                     25                     26                     27
                      A                      A                      A
 Frequencies --    992.2903              1045.9622              1123.7083
 Red. masses --      1.3807                 3.3167                 2.0114
 Frc consts  --      0.8010                 2.1379                 1.4964
 IR Inten    --     11.3997                 3.7248                98.5208

                     28                     29                     30
                      A                      A                      A
 Frequencies --   1188.0198              1241.3881              1327.5374
 Red. masses --      2.2451                 2.1438                 1.9845
 Frc consts  --      1.8670                 1.9465                 2.0606
 IR Inten    --     55.2428                53.8473                12.4133

                     31                     32                     33
                      A                      A                      A
 Frequencies --   1380.4173              1401.8484              1441.7239
 Red. masses --     13.5692                12.9595                 2.7886
 Frc consts  --     15.2344                15.0052                 3.4151
 IR Inten    --    469.9884               273.6366                 3.9966

                     34                     35                     36
                      A                      A                      A
 Frequencies --   1500.1642              1586.1182              1641.2013
 Red. masses --      3.4100                 6.4778                10.9184
 Frc consts  --      4.5215                 9.6017                17.3274
 IR Inten    --     31.0042                21.2995                88.1436

                     37                     38                     39
                      A                      A                      A
 Frequencies --   1650.5231              1680.9669              1829.4655
 Red. masses --     11.8074                 7.3922                10.0828
 Frc consts  --     18.9517                12.3067                19.8828
 IR Inten    --    159.6846               194.4595               500.4744

                     40                     41                     42
                      A                      A                      A
 Frequencies --   3248.2078              3250.8554              3592.0244
 Red. masses --      1.0915                 1.0947                 1.0788
 Frc consts  --      6.7854                 6.8161                 8.2014
 IR Inten    --     16.2422                11.7656               107.6550

 - Thermochemistry -
 -------------------
 Temperature   298.150 Kelvin.  Pressure   1.00000 Atm.
 Atom     1 has atomic number  7 and mass  14.00307

 Molecular mass:   185.00727 amu.
 Principal axes and moments of inertia in atomic units:
                           1         2         3
     Eigenvalues --  1221.678693223.207334407.72979
           X            0.99998  -0.00623  -0.00001
           Y            0.00623   0.99998  -0.00049
           Z            0.00002   0.00049   1.00000
 This molecule is an asymmetric top.
 Rotational symmetry number  1.
 Warning -- assumption of classical behavior for rotation
           may cause significant error
 Rotational temperatures (Kelvin)      0.07090     0.02687     0.01965
 Rotational constants (GHZ):           1.47726     0.55992     0.40945
 Zero-point vibrational energy     258927.7 (Joules/Mol)
                                   61.88522 (Kcal/Mol)
 Warning -- explicit consideration of  14 degrees of freedom as
           vibrations may cause significant error
 Vibrational temperatures:     59.09    93.15   137.36   213.57   230.92
          (Kelvin)            382.22   404.90   498.54   516.12   578.87
                              638.51   718.26   756.75   849.02   922.50
                             1001.59  1043.98  1077.84  1085.20  1137.85
                             1184.02  1215.25  1363.41  1396.53  1427.68
                             1504.90  1616.76  1709.29  1786.08  1910.03
                             1986.11  2016.94  2074.32  2158.40  2282.07
                             2361.32  2374.73  2418.53  2632.19  4673.44
                             4677.25  5168.12

 Zero-point correction=                           0.098620 (Hartree/Particle)
 Thermal correction to Energy=                    0.108944
 Thermal correction to Enthalpy=                  0.109888
 Thermal correction to Gibbs Free Energy=         0.061080
 Sum of electronic and zero-point Energies=           -732.411579
 Sum of electronic and thermal Energies=              -732.401255
 Sum of electronic and thermal Enthalpies=            -732.400311
 Sum of electronic and thermal Free Energies=         -732.449119

                     E (Thermal)             CV                S
                      KCal/Mol        Cal/Mol-Kelvin    Cal/Mol-Kelvin
 Total                   68.363             37.415            102.726
 Electronic               0.000              0.000              0.000
 Translational            0.889              2.981             41.552
 Rotational               0.889              2.981             31.229
 Vibrational             66.586             31.453             29.944
 Vibration     1          0.594              1.981              5.207
 Vibration     2          0.597              1.971              4.307
 Vibration     3          0.603              1.952              3.545
 Vibration     4          0.618              1.904              2.692
 Vibration     5          0.622              1.891              2.544
 Vibration     6          0.671              1.736              1.624
 Vibration     7          0.681              1.708              1.525
 Vibration     8          0.725              1.582              1.182
 Vibration     9          0.734              1.557              1.128
 Vibration    10          0.768              1.465              0.954
 Vibration    11          0.803              1.375              0.815
 Vibration    12          0.855              1.252              0.660
 Vibration    13          0.881              1.193              0.596
 Vibration    14          0.947              1.053              0.467

 Optimization completed.
    -- Stationary point found.
 Normal termination of Gaussian 09 at Fri Aug 20 15:59:16 2021.
