 Gaussian 09, Revision E.01,
 Gaussian 09:  ES64L-G09RevE.01 30-Nov-2015

 -------------------------------------
 #P OPT Freq B3LYP/6-31G** Pop=NBORead
 -------------------------------------

 ---
 NO2
 ---
 Symbolic Z-matrix:
 Charge =  0 Multiplicity = 2

 SCF Done:  E(UB3LYP) =  -205.072205963     A.U. after   16 cycles
 SCF Done:  E(UB3LYP) =  -205.072206189     A.U. after    8 cycles
 Optimization completed.
    -- Stationary point found.
 Normal termination of Gaussian 09 at Fri Dec  4 15:18:59 2020.

 ----------------------------------------------------------------------
 #P Geom=AllCheck Guess=TCheck SCRF=Check GenChk UB3LYP/6-31G(d,p) Freq
 ----------------------------------------------------------------------

 Structure from the checkpoint file:  "/new_disk/wangrunwen/BDE/LowestConformer/B3LYP/Gau-79122.chk"
 ---
 NO2
 ---
 Charge =  0 Multiplicity = 2

                         Standard orientation:
 ---------------------------------------------------------------------
 Center     Atomic      Atomic             Coordinates (Angstroms)
 Number     Number       Type             X           Y           Z
 ---------------------------------------------------------------------
      1          7           0       -0.000000    0.328124   -0.000000
      2          8           0        1.106877   -0.143547    0.000000
      3          8           0       -1.106877   -0.143562   -0.000000
 ---------------------------------------------------------------------

 SCF Done:  E(UB3LYP) =  -205.072206189     A.U. after    1 cycles

 The electronic state is 2-A'.
 Alpha  occ. eigenvalues --  -19.26566 -19.26565 -14.58716  -1.28178  -1.13635
 Alpha  occ. eigenvalues --   -0.67825  -0.57493  -0.57202  -0.56496  -0.38154
 Alpha  occ. eigenvalues --   -0.37745  -0.28770
 Alpha virt. eigenvalues --   -0.09031   0.21016   0.36957   0.58381   0.59073
 Alpha virt. eigenvalues --    0.59284   0.61181   0.77974   0.82021   0.87939
 Alpha virt. eigenvalues --    0.88918   0.93811   0.95240   1.27333   1.37161

  Beta  occ. eigenvalues --  -19.25675 -19.25673 -14.57652  -1.26309  -1.11484
  Beta  occ. eigenvalues --   -0.64489  -0.55402  -0.54824  -0.52975  -0.36985
  Beta  occ. eigenvalues --   -0.34105
  Beta virt. eigenvalues --   -0.14309  -0.07383   0.22341   0.39530   0.59688
  Beta virt. eigenvalues --    0.59882   0.61972   0.62078   0.78558   0.83810
  Beta virt. eigenvalues --    0.88371   0.91486   0.94471   0.96901   1.28905

 Mulliken charges and spin densities:
               1          2
     1  N    0.480630   0.436513
     2  O   -0.240313   0.281742
     3  O   -0.240317   0.281745
 Sum of Mulliken charges =  -0.00000   1.00000

 Dipole moment (field-independent basis, Debye):
    X=              0.0000    Y=              0.3213    Z=              0.0000  Tot=              0.3213
 Quadrupole moment (field-independent basis, Debye-Ang):
   XX=            -17.5906   YY=            -15.2325   ZZ=            -14.5505
   XY=             -0.0000   XZ=             -0.0000   YZ=             -0.0000

  Exact polarizability:  24.079   0.000   8.973   0.000  -0.000   7.080
 Approx polarizability:  60.793   0.000  13.273   0.000   0.000   9.717

 Summary of Natural Population Analysis:

                                       Natural Population
                Natural  -----------------------------------------------
    Atom  No    Charge         Core      Valence    Rydberg      Total
 -----------------------------------------------------------------------
      N    1    0.46936      0.99984     2.00638    0.02442     3.03064
      O    2    0.01532      0.99992     2.97696    0.00781     3.98468
      O    3    0.01532      0.99992     2.97696    0.00781     3.98468
 =======================================================================
   * Total *    0.50000      2.99967     7.96030    0.04003    11.00000

                      1                      2                      3
                     A'                     A'                     A'
 Frequencies --    748.9761              1403.9361              1720.2843
 Red. masses --     15.1677                15.3150                14.6239
 Frc consts  --      5.0131                17.7853                25.4984
 IR Inten    --      7.8616                 0.4312               323.4218

 - Thermochemistry -
 -------------------
 Temperature   298.150 Kelvin.  Pressure   1.00000 Atm.
 Atom     1 has atomic number  7 and mass  14.00307

 Molecular mass:    45.99290 amu.
 Principal axes and moments of inertia in atomic units:
                           1         2         3
     Eigenvalues --     7.73809 139.96133 147.69942
           X            1.00000  -0.00001   0.00000
           Y            0.00001   1.00000   0.00000
           Z            0.00000  -0.00000   1.00000
 This molecule is an asymmetric top.
 Rotational symmetry number  1.
 Rotational temperatures (Kelvin)     11.19318     0.61884     0.58642
 Rotational constants (GHZ):         233.22830    12.89457    12.21901
 Zero-point vibrational energy      23166.9 (Joules/Mol)
                                    5.53701 (Kcal/Mol)
 Vibrational temperatures:   1077.61  2019.95  2475.10
          (Kelvin)

 Zero-point correction=                           0.008824 (Hartree/Particle)
 Thermal correction to Energy=                    0.011760
 Thermal correction to Enthalpy=                  0.012704
 Thermal correction to Gibbs Free Energy=        -0.015217
 Sum of electronic and zero-point Energies=           -205.063382
 Sum of electronic and thermal Energies=              -205.060446
 Sum of electronic and thermal Enthalpies=            -205.059502
 Sum of electronic and thermal Free Energies=         -205.087423

                     E (Thermal)             CV                S
                      KCal/Mol        Cal/Mol-Kelvin    Cal/Mol-Kelvin
 Total                    7.380              6.838             58.765
 Electronic               0.000              0.000              1.377
 Translational            0.889              2.981             37.403
 Rotational               0.889              2.981             19.709
 Vibrational              5.602              0.877              0.275

 Optimization completed.
    -- Stationary point found.
 Normal termination of Gaussian 09 at Fri Dec  4 15:19:08 2020.
