 Gaussian 09, Revision E.01,
 Gaussian 09:  ES64L-G09RevE.01 30-Nov-2015

 -------------------------
 #P OPT Freq B3LYP/6-31G**
 -------------------------

 ------
 BANFIG
 ------
 Symbolic Z-matrix:
 Charge =  0 Multiplicity = 1

 SCF Done:  E(RB3LYP) =  -660.758481661     A.U. after   18 cycles
 SCF Done:  E(RB3LYP) =  -660.780583468     A.U. after   14 cycles
 SCF Done:  E(RB3LYP) =  -660.779603586     A.U. after   15 cycles
 SCF Done:  E(RB3LYP) =  -660.781755972     A.U. after   11 cycles
 SCF Done:  E(RB3LYP) =  -660.779254224     A.U. after   15 cycles
 SCF Done:  E(RB3LYP) =  -660.783153729     A.U. after   12 cycles
 SCF Done:  E(RB3LYP) =  -660.783403409     A.U. after   13 cycles
 SCF Done:  E(RB3LYP) =  -660.783448134     A.U. after   12 cycles
 SCF Done:  E(RB3LYP) =  -660.783548529     A.U. after   13 cycles
 SCF Done:  E(RB3LYP) =  -660.783611490     A.U. after   14 cycles
 SCF Done:  E(RB3LYP) =  -660.783977484     A.U. after   13 cycles
 SCF Done:  E(RB3LYP) =  -660.784072089     A.U. after   13 cycles
 SCF Done:  E(RB3LYP) =  -660.784201814     A.U. after   13 cycles
 SCF Done:  E(RB3LYP) =  -660.784253467     A.U. after   12 cycles
 SCF Done:  E(RB3LYP) =  -660.784278945     A.U. after   12 cycles
 SCF Done:  E(RB3LYP) =  -660.784281193     A.U. after   11 cycles
 SCF Done:  E(RB3LYP) =  -660.784281946     A.U. after   10 cycles
 SCF Done:  E(RB3LYP) =  -660.784282179     A.U. after    9 cycles
 SCF Done:  E(RB3LYP) =  -660.784282228     A.U. after    8 cycles
 Optimization completed.
    -- Stationary point found.
 Normal termination of Gaussian 09 at Fri Aug 20 15:38:42 2021.

 ----------------------------------------------------------------------
 #P Geom=AllCheck Guess=TCheck SCRF=Check GenChk RB3LYP/6-31G(d,p) Freq
 ----------------------------------------------------------------------

 Structure from the checkpoint file:  "/public/home/users/caep010/.cache/gau_scr/Gau-87273.chk"
 ------
 BANFIG
 ------
 Charge =  0 Multiplicity = 1

                         Standard orientation:
 ---------------------------------------------------------------------
 Center     Atomic      Atomic             Coordinates (Angstroms)
 Number     Number       Type             X           Y           Z
 ---------------------------------------------------------------------
      1          8           0       -2.371589   -2.127344    0.145612
      2          7           0       -2.689283   -0.942226    0.049253
      3          8           0       -3.845781   -0.528405   -0.009508
      4          6           0       -1.603720    0.053385   -0.003676
      5          6           0       -1.930409    1.402332   -0.119643
      6          6           0       -0.894293    2.334570   -0.152802
      7          1           0       -1.124826    3.391533   -0.236255
      8          1           0       -2.971237    1.695239   -0.174062
      9          6           0       -0.286836   -0.391282    0.073263
     10          6           0        0.744922    0.550302    0.025471
     11          1           0       -0.103081   -1.451059    0.197504
     12          6           0        0.431930    1.913517   -0.074670
     13          1           0        1.250202    2.625176   -0.083822
     14          6           0        2.198841    0.178741    0.115448
     15          8           0        3.057632    0.992619    0.441041
     16          7           0        2.512286   -1.120508   -0.190221
     17          1           0        1.891138   -1.660763   -0.775262
     18          7           0        3.864005   -1.522932   -0.269856
     19          1           0        4.165877   -1.754268    0.676469
     20          1           0        4.398158   -0.690540   -0.526315
 ---------------------------------------------------------------------

 SCF Done:  E(RB3LYP) =  -660.784282228     A.U. after    1 cycles

 The electronic state is 1-A.
 Alpha  occ. eigenvalues --  -19.19089 -19.19071 -19.13586 -14.58194 -14.39991
 Alpha  occ. eigenvalues --  -14.36891 -10.30834 -10.26662 -10.23694 -10.23541
 Alpha  occ. eigenvalues --  -10.23403 -10.22848 -10.22759  -1.23396  -1.06139
 Alpha  occ. eigenvalues --   -1.06120  -0.98481  -0.90539  -0.83254  -0.81443
 Alpha  occ. eigenvalues --   -0.78212  -0.71377  -0.66498  -0.62679  -0.59796
 Alpha  occ. eigenvalues --   -0.57649  -0.54127  -0.52680  -0.52405  -0.51830
 Alpha  occ. eigenvalues --   -0.51503  -0.50230  -0.47818  -0.46453  -0.43360
 Alpha  occ. eigenvalues --   -0.42467  -0.39751  -0.39077  -0.38866  -0.31935
 Alpha  occ. eigenvalues --   -0.31759  -0.30330  -0.30034  -0.29349  -0.29029
 Alpha  occ. eigenvalues --   -0.27536  -0.26658
 Alpha virt. eigenvalues --   -0.09908  -0.06204  -0.01506   0.03923   0.06862
 Alpha virt. eigenvalues --    0.08070   0.09339   0.13430   0.13801   0.14988
 Alpha virt. eigenvalues --    0.15798   0.16538   0.17074   0.18982   0.23298

 Mulliken charges:
               1
     1  O   -0.394840
     2  N    0.392493
     3  O   -0.391616
     4  C    0.233760
     5  C   -0.080918
     6  C   -0.102299
     7  H    0.113903
     8  H    0.143886
     9  C   -0.120728
    10  C    0.019666
    11  H    0.141029
    12  C   -0.074547
    13  H    0.134631
    14  C    0.561278
    15  O   -0.515092
    16  N   -0.442875
    17  H    0.281454
    18  N   -0.444348
    19  H    0.273570
    20  H    0.271594
 Sum of Mulliken charges =  -0.00000

 Dipole moment (field-independent basis, Debye):
    X=              1.4328    Y=              1.7446    Z=             -0.6603  Tot=              2.3521
 Quadrupole moment (field-independent basis, Debye-Ang):
   XX=            -85.3980   YY=            -72.3655   ZZ=            -72.6988
   XY=            -11.5329   XZ=              0.6788   YZ=             -2.4376

  Exact polarizability: 145.994  -3.326 118.078   3.373  -2.152  42.459
 Approx polarizability: 227.694  -5.063 217.656   8.941  -3.263  66.653

                      1                      2                      3
                      A                      A                      A
 Frequencies --     48.8501                58.1531               109.5699
 Red. masses --      9.2209                 8.3372                 5.3311
 Frc consts  --      0.0130                 0.0166                 0.0377
 IR Inten    --      1.4411                 3.3954                 1.9268

                      4                      5                      6
                      A                      A                      A
 Frequencies --    111.6505               162.4748               181.5900
 Red. masses --      5.2864                 1.2530                 4.6467
 Frc consts  --      0.0388                 0.0195                 0.0903
 IR Inten    --      1.6500                21.9154                 2.7974

                      7                      8                      9
                      A                      A                      A
 Frequencies --    224.0766               264.4247               321.6037
 Red. masses --      3.8092                 5.5607                 4.3088
 Frc consts  --      0.1127                 0.2291                 0.2626
 IR Inten    --      6.8915                 4.3188                29.4224

                     10                     11                     12
                      A                      A                      A
 Frequencies --    334.2473               387.7527               433.8645
 Red. masses --      8.6611                 6.7499                 3.4014
 Frc consts  --      0.5701                 0.5979                 0.3772
 IR Inten    --      5.7234                 3.4897                 3.4864

                     13                     14                     15
                      A                      A                      A
 Frequencies --    453.1755               505.1336               525.1153
 Red. masses --      5.9073                 4.0471                 1.6017
 Frc consts  --      0.7148                 0.6084                 0.2602
 IR Inten    --     10.6015                19.3147                96.9763

                     16                     17                     18
                      A                      A                      A
 Frequencies --    563.0731               668.1852               680.2332
 Red. masses --      3.9435                 6.9812                 3.6371
 Frc consts  --      0.7367                 1.8364                 0.9916
 IR Inten    --     17.3542                 3.7749                 1.1348

                     19                     20                     21
                      A                      A                      A
 Frequencies --    730.9814               743.2470               777.1273
 Red. masses --      2.8643                 8.3189                 7.4317
 Frc consts  --      0.9017                 2.7076                 2.6444
 IR Inten    --     48.9335                20.3667                 0.4059

                     22                     23                     24
                      A                      A                      A
 Frequencies --    839.4005               863.4636               927.2496
 Red. masses --      1.5629                 7.4666                 3.0968
 Frc consts  --      0.6488                 3.2799                 1.5688
 IR Inten    --     11.1826                31.3170                30.6090

                     25                     26                     27
                      A                      A                      A
 Frequencies --    939.1840               974.7173               978.1625
 Red. masses --      1.6118                 1.3995                 2.9816
 Frc consts  --      0.8376                 0.7834                 1.6808
 IR Inten    --      8.9769                 0.7205                90.7498

                     28                     29                     30
                      A                      A                      A
 Frequencies --   1013.8153              1018.8685              1100.0025
 Red. masses --      1.3332                 6.0559                 1.7313
 Frc consts  --      0.8074                 3.7040                 1.2343
 IR Inten    --      1.2123                 0.7790                10.6032

                     31                     32                     33
                      A                      A                      A
 Frequencies --   1115.6656              1143.0217              1189.6792
 Red. masses --      1.7030                 2.3174                 1.1371
 Frc consts  --      1.2489                 1.7838                 0.9483
 IR Inten    --     26.1908                30.0731                 5.1920

                     34                     35                     36
                      A                      A                      A
 Frequencies --   1226.0718              1308.9596              1317.2044
 Red. masses --      3.1015                 1.6931                 1.7020
 Frc consts  --      2.7470                 1.7092                 1.7399
 IR Inten    --      4.4493                78.8406                62.7679

                     37                     38                     39
                      A                      A                      A
 Frequencies --   1360.1606              1376.1174              1398.8695
 Red. masses --      1.1493                 7.3499                13.6564
 Frc consts  --      1.2527                 8.2006                15.7449
 IR Inten    --      1.9032                10.9903               283.7053

                     40                     41                     42
                      A                      A                      A
 Frequencies --   1467.8409              1496.6700              1528.3774
 Red. masses --      3.1176                 1.8432                 2.4276
 Frc consts  --      3.9575                 2.4326                 3.3410
 IR Inten    --      3.3292               129.9137                70.6336

                     43                     44                     45
                      A                      A                      A
 Frequencies --   1624.3921              1637.1358              1678.7790
 Red. masses --      7.7444                 7.2934                 8.3370
 Frc consts  --     12.0398                11.5172                13.8435
 IR Inten    --     76.9533                46.4597                79.0195

                     46                     47                     48
                      A                      A                      A
 Frequencies --   1713.6524              1764.7217              3207.0604
 Red. masses --      1.0805                 9.4764                 1.0893
 Frc consts  --      1.8694                17.3878                 6.6012
 IR Inten    --     50.1531               173.7170                 5.8933

                     49                     50                     51
                      A                      A                      A
 Frequencies --   3227.5991              3241.3547              3247.1415
 Red. masses --      1.0934                 1.0910                 1.0933
 Frc consts  --      6.7110                 6.7533                 6.7921
 IR Inten    --      2.4786                 2.7420                 2.2171

                     52                     53                     54
                      A                      A                      A
 Frequencies --   3449.0463              3521.7576              3628.8795
 Red. masses --      1.0479                 1.0935                 1.0783
 Frc consts  --      7.3446                 7.9906                 8.3661
 IR Inten    --      2.9499                 2.5650                34.9282

 - Thermochemistry -
 -------------------
 Temperature   298.150 Kelvin.  Pressure   1.00000 Atm.
 Atom     1 has atomic number  8 and mass  15.99491

 Molecular mass:   181.04874 amu.
 Principal axes and moments of inertia in atomic units:
                           1         2         3
     Eigenvalues --  1180.611403883.931735012.87738
           X            0.99970  -0.02458  -0.00025
           Y            0.02458   0.99969  -0.00359
           Z            0.00033   0.00358   0.99999
 This molecule is an asymmetric top.
 Rotational symmetry number  1.
 Warning -- assumption of classical behavior for rotation
           may cause significant error
 Rotational temperatures (Kelvin)      0.07336     0.02230     0.01728
 Rotational constants (GHZ):           1.52865     0.46467     0.36002
 Zero-point vibrational energy     387647.2 (Joules/Mol)
                                   92.64990 (Kcal/Mol)
 Warning -- explicit consideration of  16 degrees of freedom as
           vibrations may cause significant error
 Vibrational temperatures:     70.28    83.67   157.65   160.64   233.76
          (Kelvin)            261.27   322.40   380.45   462.72   480.91
                              557.89   624.23   652.02   726.77   755.52
                              810.14   961.37   978.70  1051.72  1069.37
                             1118.11  1207.71  1242.33  1334.10  1351.27
                             1402.40  1407.36  1458.65  1465.92  1582.66
                             1605.19  1644.55  1711.68  1764.04  1883.30
                             1895.16  1956.97  1979.92  2012.66  2111.89
                             2153.37  2198.99  2337.13  2355.47  2415.39
                             2465.56  2539.04  4614.24  4643.79  4663.58
                             4671.91  4962.40  5067.02  5221.14

 Zero-point correction=                           0.147647 (Hartree/Particle)
 Thermal correction to Energy=                    0.159086
 Thermal correction to Enthalpy=                  0.160030
 Thermal correction to Gibbs Free Energy=         0.109165
 Sum of electronic and zero-point Energies=           -660.636635
 Sum of electronic and thermal Energies=              -660.625196
 Sum of electronic and thermal Enthalpies=            -660.624252
 Sum of electronic and thermal Free Energies=         -660.675117

                     E (Thermal)             CV                S
                      KCal/Mol        Cal/Mol-Kelvin    Cal/Mol-Kelvin
 Total                   99.828             41.911            107.055
 Electronic               0.000              0.000              0.000
 Translational            0.889              2.981             41.487
 Rotational               0.889              2.981             31.508
 Vibrational             98.051             35.950             34.059
 Vibration     1          0.595              1.978              4.863
 Vibration     2          0.596              1.974              4.519
 Vibration     3          0.606              1.942              3.277
 Vibration     4          0.607              1.940              3.240
 Vibration     5          0.623              1.888              2.521
 Vibration     6          0.630              1.865              2.312
 Vibration     7          0.649              1.804              1.926
 Vibration     8          0.671              1.738              1.632
 Vibration     9          0.707              1.632              1.302
 Vibration    10          0.716              1.607              1.239
 Vibration    11          0.756              1.496              1.009
 Vibration    12          0.795              1.396              0.846
 Vibration    13          0.812              1.354              0.786
 Vibration    14          0.860              1.239              0.645
 Vibration    15          0.880              1.194              0.598
 Vibration    16          0.919              1.111              0.518

 Optimization completed.
    -- Stationary point found.
 Normal termination of Gaussian 09 at Fri Aug 20 15:39:13 2021.
