 Gaussian 09, Revision E.01,
 Gaussian 09:  ES64L-G09RevE.01 30-Nov-2015

 -------------------------
 #P OPT Freq B3LYP/6-31G**
 -------------------------

 ------
 AFAZUD
 ------
 Symbolic Z-matrix:
 Charge =  0 Multiplicity = 1

 SCF Done:  E(RB3LYP) =  -720.874351155     A.U. after   17 cycles
 SCF Done:  E(RB3LYP) =  -720.972161502     A.U. after   14 cycles
 SCF Done:  E(RB3LYP) =  -721.038527682     A.U. after   14 cycles
 SCF Done:  E(RB3LYP) =  -721.043453901     A.U. after   14 cycles
 SCF Done:  E(RB3LYP) =  -721.039749026     A.U. after   15 cycles
 SCF Done:  E(RB3LYP) =  -721.044759088     A.U. after   11 cycles
 SCF Done:  E(RB3LYP) =  -721.045188169     A.U. after   13 cycles
 SCF Done:  E(RB3LYP) =  -721.045258640     A.U. after   12 cycles
 SCF Done:  E(RB3LYP) =  -721.045274388     A.U. after   10 cycles
 SCF Done:  E(RB3LYP) =  -721.045278244     A.U. after    9 cycles
 SCF Done:  E(RB3LYP) =  -721.045281744     A.U. after   12 cycles
 SCF Done:  E(RB3LYP) =  -721.045283036     A.U. after   12 cycles
 SCF Done:  E(RB3LYP) =  -721.045287614     A.U. after   11 cycles
 SCF Done:  E(RB3LYP) =  -721.045293068     A.U. after   12 cycles
 SCF Done:  E(RB3LYP) =  -721.045295260     A.U. after   10 cycles
 Optimization completed.
    -- Stationary point found.
 Normal termination of Gaussian 09 at Fri Aug 20 15:53:52 2021.

 ----------------------------------------------------------------------
 #P Geom=AllCheck Guess=TCheck SCRF=Check GenChk RB3LYP/6-31G(d,p) Freq
 ----------------------------------------------------------------------

 Structure from the checkpoint file:  "/public/home/users/caep010/.cache/gau_scr/Gau-97543.chk"
 ------
 AFAZUD
 ------
 Charge =  0 Multiplicity = 1

                         Standard orientation:
 ---------------------------------------------------------------------
 Center     Atomic      Atomic             Coordinates (Angstroms)
 Number     Number       Type             X           Y           Z
 ---------------------------------------------------------------------
      1          6           0        0.000051    2.145836   -0.000060
      2          1           0        0.714571    2.785724    0.522280
      3          1           0       -0.714430    2.785736   -0.522440
      4          6           0       -0.000043   -1.144793    0.000043
      5          1           0       -0.066560   -1.768532    0.891796
      6          1           0        0.066439   -1.768589   -0.891672
      7          6           0        1.094853   -0.058637    0.117612
      8          6           0       -1.094877   -0.058579   -0.117594
      9          7           0        2.487547   -0.545482   -0.085122
     10          7           0       -2.487596   -0.545334    0.085174
     11          8           0        3.247179   -0.536321    0.879465
     12          8           0       -3.247160   -0.536410   -0.879469
     13          8           0        2.772566   -0.935351   -1.216262
     14          8           0       -2.772576   -0.935296    1.216290
     15          6           0        0.709317    0.505162    1.492098
     16          6           0       -0.709312    0.505119   -1.492114
     17          1           0        1.374287    1.279591    1.875269
     18          1           0       -1.374236    1.279567   -1.875327
     19          1           0        0.611722   -0.275806    2.247034
     20          1           0       -0.611764   -0.275897   -2.247008
     21          6           0        0.617384    1.084043   -0.941264
     22          6           0       -0.617343    1.084136    0.941211
     23          1           0        1.377439    1.383519   -1.660984
     24          1           0       -1.377382    1.383697    1.660912
 ---------------------------------------------------------------------

 SCF Done:  E(RB3LYP) =  -721.045295260     A.U. after    1 cycles

 The electronic state is 1-A.
 Alpha  occ. eigenvalues --  -19.19560 -19.19559 -19.19294 -19.19294 -14.57925
 Alpha  occ. eigenvalues --  -14.57925 -10.27714 -10.27714 -10.23669 -10.23669
 Alpha  occ. eigenvalues --  -10.23221 -10.21763 -10.21763 -10.21545  -1.23499
 Alpha  occ. eigenvalues --   -1.23484  -1.06373  -1.06370  -0.95712  -0.82637
 Alpha  occ. eigenvalues --   -0.81092  -0.77885  -0.73111  -0.68177  -0.65629
 Alpha  occ. eigenvalues --   -0.62390  -0.57542  -0.57304  -0.56853  -0.55431
 Alpha  occ. eigenvalues --   -0.53384  -0.52680  -0.51764  -0.51386  -0.50196
 Alpha  occ. eigenvalues --   -0.48867  -0.45749  -0.41648  -0.40914  -0.40300
 Alpha  occ. eigenvalues --   -0.40091  -0.37905  -0.36503  -0.36384  -0.35722
 Alpha  occ. eigenvalues --   -0.33428  -0.32131  -0.31949  -0.31654  -0.30698
 Alpha  occ. eigenvalues --   -0.30020  -0.29508
 Alpha virt. eigenvalues --   -0.08409  -0.07415   0.06389   0.07370   0.08276
 Alpha virt. eigenvalues --    0.09158   0.10527   0.10707   0.11387   0.13286
 Alpha virt. eigenvalues --    0.14529   0.15934   0.16940   0.17520   0.17823

 Mulliken charges:
               1
     1  C   -0.152073
     2  H    0.112942
     3  H    0.112941
     4  C   -0.158618
     5  H    0.142579
     6  H    0.142578
     7  C    0.154077
     8  C    0.154078
     9  N    0.398346
    10  N    0.398342
    11  O   -0.376977
    12  O   -0.376978
    13  O   -0.386250
    14  O   -0.386246
    15  C   -0.148957
    16  C   -0.148959
    17  H    0.126953
    18  H    0.126951
    19  H    0.126846
    20  H    0.126847
    21  C   -0.113785
    22  C   -0.113792
    23  H    0.119579
    24  H    0.119575
 Sum of Mulliken charges =  -0.00000

 Dipole moment (field-independent basis, Debye):
    X=             -0.0001    Y=              2.7346    Z=              0.0000  Tot=              2.7346
 Quadrupole moment (field-independent basis, Debye-Ang):
   XX=           -105.8422   YY=            -75.3032   ZZ=            -81.1980
   XY=             -0.0007   XZ=              1.3325   YZ=             -0.0003

  Exact polarizability: 109.560   0.001  87.622   5.876   0.000 103.256
 Approx polarizability: 156.153   0.001 132.094  18.772   0.002 206.852

                      1                      2                      3
                      A                      A                      A
 Frequencies --     27.0110                27.1186               129.0422
 Red. masses --     10.9700                15.6160                 9.8122
 Frc consts  --      0.0047                 0.0068                 0.0963
 IR Inten    --      0.4037                 0.0035                 9.1211

                      4                      5                      6
                      A                      A                      A
 Frequencies --    134.2645               209.1605               219.6869
 Red. masses --      5.6966                 5.2024                 3.6969
 Frc consts  --      0.0605                 0.1341                 0.1051
 IR Inten    --      5.3637                 0.5517                 0.6515

                      7                      8                      9
                      A                      A                      A
 Frequencies --    327.7654               347.6857               403.6451
 Red. masses --     12.0430                 3.0634                 6.0725
 Frc consts  --      0.7623                 0.2182                 0.5829
 IR Inten    --      2.0645                 0.0271                13.8797

                     10                     11                     12
                      A                      A                      A
 Frequencies --    446.0621               477.9883               527.7579
 Red. masses --      4.8350                 3.5191                 2.5198
 Frc consts  --      0.5668                 0.4737                 0.4135
 IR Inten    --      0.3091                 0.9225                 1.5971

                     13                     14                     15
                      A                      A                      A
 Frequencies --    553.8339               568.6255               635.4733
 Red. masses --      2.6405                 3.4008                 2.0057
 Frc consts  --      0.4772                 0.6479                 0.4772
 IR Inten    --      1.4895                 0.0631                 1.9252

                     16                     17                     18
                      A                      A                      A
 Frequencies --    642.3510               716.9784               732.0008
 Red. masses --      5.2435                 6.2414                 8.0006
 Frc consts  --      1.2747                 1.8904                 2.5258
 IR Inten    --      0.0087                 0.3653                 4.2940

                     19                     20                     21
                      A                      A                      A
 Frequencies --    788.7457               804.9015               815.5816
 Red. masses --      4.1556                 5.0993                 6.6527
 Frc consts  --      1.5232                 1.9465                 2.6072
 IR Inten    --     12.6258                 2.0643                51.9767

                     22                     23                     24
                      A                      A                      A
 Frequencies --    829.8225               893.4108               909.4771
 Red. masses --      6.8367                 2.8215                 3.0821
 Frc consts  --      2.7737                 1.3269                 1.5020
 IR Inten    --      5.0779                 3.9905                 9.9882

                     25                     26                     27
                      A                      A                      A
 Frequencies --    914.8445               917.8575               934.3745
 Red. masses --      2.5850                 1.7927                 2.0306
 Frc consts  --      1.2747                 0.8898                 1.0445
 IR Inten    --      0.9627                 1.9141                 0.0038

                     28                     29                     30
                      A                      A                      A
 Frequencies --    968.5082               992.4889              1003.0163
 Red. masses --      1.7228                 2.2243                 1.6361
 Frc consts  --      0.9521                 1.2909                 0.9698
 IR Inten    --      1.1795                 0.5677                 1.0396

                     31                     32                     33
                      A                      A                      A
 Frequencies --   1021.1841              1051.4360              1055.4747
 Red. masses --      1.7626                 1.4015                 1.8861
 Frc consts  --      1.0829                 0.9129                 1.2380
 IR Inten    --      0.1201                 3.5647                 3.8125

                     34                     35                     36
                      A                      A                      A
 Frequencies --   1076.9481              1106.0721              1154.9733
 Red. masses --      1.7467                 1.3198                 1.5917
 Frc consts  --      1.1936                 0.9513                 1.2510
 IR Inten    --      0.2955                 2.3492                 1.2104

                     37                     38                     39
                      A                      A                      A
 Frequencies --   1168.6709              1172.6351              1184.6088
 Red. masses --      1.9958                 2.2296                 2.2117
 Frc consts  --      1.6060                 1.8063                 1.8286
 IR Inten    --      0.3519                 4.2482                 0.9521

                     40                     41                     42
                      A                      A                      A
 Frequencies --   1215.7204              1244.4997              1244.6493
 Red. masses --      2.5648                 1.5125                 1.5219
 Frc consts  --      2.2334                 1.3802                 1.3891
 IR Inten    --      4.9931                 0.8423                 0.0760

                     43                     44                     45
                      A                      A                      A
 Frequencies --   1251.0445              1262.1856              1280.0997
 Red. masses --      1.5205                 1.7038                 1.7184
 Frc consts  --      1.4021                 1.5993                 1.6591
 IR Inten    --      1.1394                 1.3806                 0.0464

                     46                     47                     48
                      A                      A                      A
 Frequencies --   1306.3333              1317.2080              1330.0424
 Red. masses --      1.6136                 1.8078                 1.6007
 Frc consts  --      1.6224                 1.8480                 1.6684
 IR Inten    --      0.6176                 2.1985                 1.5806

                     49                     50                     51
                      A                      A                      A
 Frequencies --   1429.1396              1431.3192              1502.0383
 Red. masses --     11.5598                14.1794                 1.0976
 Frc consts  --     13.9107                17.1152                 1.4591
 IR Inten    --    257.2368                28.1301                 0.2995

                     52                     53                     54
                      A                      A                      A
 Frequencies --   1535.9401              1539.3045              1570.0031
 Red. masses --      1.0976                 1.0953                 1.0919
 Frc consts  --      1.5256                 1.5291                 1.5858
 IR Inten    --     16.0729                 9.9470                 0.0000

                     55                     56                     57
                      A                      A                      A
 Frequencies --   1650.2271              1651.1711              3090.1776
 Red. masses --     14.2932                14.4631                 1.0595
 Frc consts  --     22.9333                23.2325                 5.9609
 IR Inten    --     11.1463               400.5802                19.8487

                     58                     59                     60
                      A                      A                      A
 Frequencies --   3105.5974              3108.4001              3115.2382
 Red. masses --      1.0589                 1.0620                 1.0597
 Frc consts  --      6.0173                 6.0455                 6.0593
 IR Inten    --      4.5676                12.5432                 0.9460

                     61                     62                     63
                      A                      A                      A
 Frequencies --   3136.8383              3160.5066              3163.1347
 Red. masses --      1.1076                 1.1086                 1.1074
 Frc consts  --      6.4215                 6.5244                 6.5279
 IR Inten    --     19.0890                 5.7077                24.9821

                     64                     65                     66
                      A                      A                      A
 Frequencies --   3166.5446              3166.6580              3174.9971
 Red. masses --      1.0898                 1.0924                 1.1100
 Frc consts  --      6.4380                 6.4541                 6.5925
 IR Inten    --     15.1570                 1.0070                 6.8328

 - Thermochemistry -
 -------------------
 Temperature   298.150 Kelvin.  Pressure   1.00000 Atm.
 Atom     1 has atomic number  6 and mass  12.00000

 Molecular mass:   198.06406 amu.
 Principal axes and moments of inertia in atomic units:
                           1         2         3
     Eigenvalues --  1257.713073528.956323556.42273
           X            0.99998   0.00000   0.00609
           Y           -0.00000   1.00000  -0.00003
           Z           -0.00609   0.00003   0.99998
 This molecule is an asymmetric top.
 Rotational symmetry number  1.
 Warning -- assumption of classical behavior for rotation
           may cause significant error
 Rotational temperatures (Kelvin)      0.06887     0.02454     0.02435
 Rotational constants (GHZ):           1.43494     0.51141     0.50746
 Zero-point vibrational energy     496692.5 (Joules/Mol)
                                  118.71236 (Kcal/Mol)
 Warning -- explicit consideration of  14 degrees of freedom as
           vibrations may cause significant error
 Vibrational temperatures:     38.86    39.02   185.66   193.18   300.93
          (Kelvin)            316.08   471.58   500.24   580.75   641.78
                              687.72   759.32   796.84   818.12   914.30
                              924.20  1031.57  1053.18  1134.83  1158.07
                             1173.44  1193.93  1285.42  1308.53  1316.26
                             1320.59  1344.35  1393.47  1427.97  1443.11
                             1469.25  1512.78  1518.59  1549.49  1591.39
                             1661.75  1681.45  1687.16  1704.39  1749.15
                             1790.56  1790.77  1799.97  1816.00  1841.78
                             1879.52  1895.17  1913.63  2056.21  2059.35
                             2161.10  2209.87  2214.71  2258.88  2374.31
                             2375.66  4446.07  4468.26  4472.29  4482.13
                             4513.21  4547.26  4551.04  4555.95  4556.11
                             4568.11

 Zero-point correction=                           0.189180 (Hartree/Particle)
 Thermal correction to Energy=                    0.199875
 Thermal correction to Enthalpy=                  0.200819
 Thermal correction to Gibbs Free Energy=         0.150752
 Sum of electronic and zero-point Energies=           -720.856115
 Sum of electronic and thermal Energies=              -720.845421
 Sum of electronic and thermal Enthalpies=            -720.844476
 Sum of electronic and thermal Free Energies=         -720.894543

                     E (Thermal)             CV                S
                      KCal/Mol        Cal/Mol-Kelvin    Cal/Mol-Kelvin
 Total                  125.423             42.236            105.374
 Electronic               0.000              0.000              0.000
 Translational            0.889              2.981             41.755
 Rotational               0.889              2.981             31.135
 Vibrational            123.646             36.274             32.484
 Vibration     1          0.593              1.984              6.038
 Vibration     2          0.593              1.984              6.030
 Vibration     3          0.612              1.924              2.960
 Vibration     4          0.613              1.919              2.884
 Vibration     5          0.642              1.827              2.051
 Vibration     6          0.647              1.811              1.962
 Vibration     7          0.711              1.620              1.271
 Vibration     8          0.725              1.580              1.177
 Vibration     9          0.769              1.462              0.949
 Vibration    10          0.805              1.370              0.808
 Vibration    11          0.834              1.299              0.716
 Vibration    12          0.883              1.189              0.592
 Vibration    13          0.909              1.131              0.536
 Vibration    14          0.925              1.099              0.507

 Optimization completed.
    -- Stationary point found.
 Normal termination of Gaussian 09 at Fri Aug 20 15:54:47 2021.
