 Gaussian 09, Revision E.01,
 Gaussian 09:  ES64L-G09RevE.01 30-Nov-2015

 -------------------------
 #P OPT Freq B3LYP/6-31G**
 -------------------------

 --------
 KIBSAS01
 --------
 Symbolic Z-matrix:
 Charge =  0 Multiplicity = 1

 SCF Done:  E(RB3LYP) =  -782.733415854     A.U. after   16 cycles
 SCF Done:  E(RB3LYP) =  -782.785462607     A.U. after   14 cycles
 SCF Done:  E(RB3LYP) =  -782.787513745     A.U. after   16 cycles
 SCF Done:  E(RB3LYP) =  -782.780201954     A.U. after   17 cycles
 SCF Done:  E(RB3LYP) =  -782.788936492     A.U. after   13 cycles
 SCF Done:  E(RB3LYP) =  -782.789534153     A.U. after   14 cycles
 SCF Done:  E(RB3LYP) =  -782.789722786     A.U. after   15 cycles
 SCF Done:  E(RB3LYP) =  -782.789859459     A.U. after   14 cycles
 SCF Done:  E(RB3LYP) =  -782.789961331     A.U. after   14 cycles
 SCF Done:  E(RB3LYP) =  -782.790049044     A.U. after   14 cycles
 SCF Done:  E(RB3LYP) =  -782.790223049     A.U. after   13 cycles
 SCF Done:  E(RB3LYP) =  -782.790243771     A.U. after   12 cycles
 SCF Done:  E(RB3LYP) =  -782.790270209     A.U. after   12 cycles
 SCF Done:  E(RB3LYP) =  -782.790324777     A.U. after   14 cycles
 SCF Done:  E(RB3LYP) =  -782.790363027     A.U. after   14 cycles
 SCF Done:  E(RB3LYP) =  -782.790368934     A.U. after   11 cycles
 SCF Done:  E(RB3LYP) =  -782.790370283     A.U. after   10 cycles
 SCF Done:  E(RB3LYP) =  -782.790370539     A.U. after   10 cycles
 SCF Done:  E(RB3LYP) =  -782.790370651     A.U. after    8 cycles
 Optimization completed.
    -- Stationary point found.
 Normal termination of Gaussian 09 at Fri Aug 20 15:58:08 2021.

 ----------------------------------------------------------------------
 #P Geom=AllCheck Guess=TCheck SCRF=Check GenChk RB3LYP/6-31G(d,p) Freq
 ----------------------------------------------------------------------

 Structure from the checkpoint file:  "/public/home/users/caep010/.cache/gau_scr/Gau-137051.chk"
 --------
 KIBSAS01
 --------
 Charge =  0 Multiplicity = 1

                         Standard orientation:
 ---------------------------------------------------------------------
 Center     Atomic      Atomic             Coordinates (Angstroms)
 Number     Number       Type             X           Y           Z
 ---------------------------------------------------------------------
      1          6           0       -0.826585   -0.617344    0.049151
      2          6           0        0.616588   -0.856343   -0.034814
      3          7           0       -1.622290   -1.454210    0.671301
      4          7           0       -1.411677    0.475195   -0.532440
      5          8           0       -2.889957   -0.849689    0.479382
      6          7           0        1.135012   -2.048563   -0.204216
      7          8           0        2.495281   -1.856749   -0.267156
      8          7           0        2.833983   -0.543313   -0.161598
      9          6           0        1.697505    0.076877   -0.017087
     10          7           0        1.664524    1.517805    0.210043
     11          8           0        0.805936    1.906683    0.995527
     12          8           0        2.493577    2.198923   -0.376105
     13          6           0       -2.671839    0.271455   -0.232751
     14          7           0       -3.738794    1.017147   -0.584322
     15          1           0       -3.548579    1.943841   -0.932343
     16          1           0       -4.609429    0.866533   -0.099222
 ---------------------------------------------------------------------

 SCF Done:  E(RB3LYP) =  -782.790370651     A.U. after    1 cycles

 The electronic state is 1-A.
 Alpha  occ. eigenvalues --  -19.31539 -19.26670 -19.21516 -19.21468 -14.61009
 Alpha  occ. eigenvalues --  -14.45524 -14.44703 -14.41119 -14.40507 -14.35877
 Alpha  occ. eigenvalues --  -10.35382 -10.32132 -10.29865 -10.29624  -1.26188
 Alpha  occ. eigenvalues --   -1.23420  -1.18743  -1.08958  -0.98613  -0.97421
 Alpha  occ. eigenvalues --   -0.96054  -0.92993  -0.86947  -0.78715  -0.72855
 Alpha  occ. eigenvalues --   -0.67028  -0.64749  -0.63948  -0.59551  -0.58009
 Alpha  occ. eigenvalues --   -0.56733  -0.55814  -0.53503  -0.53234  -0.51873
 Alpha  occ. eigenvalues --   -0.51081  -0.47636  -0.44452  -0.40176  -0.38764
 Alpha  occ. eigenvalues --   -0.37607  -0.36609  -0.36506  -0.35674  -0.33962
 Alpha  occ. eigenvalues --   -0.33556  -0.33116  -0.32180  -0.31705  -0.27084
 Alpha virt. eigenvalues --   -0.11448  -0.08486  -0.03481   0.00928   0.03562
 Alpha virt. eigenvalues --    0.04660   0.05664   0.08199   0.10321   0.11403
 Alpha virt. eigenvalues --    0.16145   0.19431   0.22031   0.23145   0.24195

 Mulliken charges:
               1
     1  C    0.442743
     2  C    0.287852
     3  N   -0.186158
     4  N   -0.521322
     5  O   -0.370135
     6  N   -0.167274
     7  O   -0.180075
     8  N   -0.113454
     9  C    0.437778
    10  N    0.350651
    11  O   -0.362103
    12  O   -0.341693
    13  C    0.790646
    14  N   -0.674231
    15  H    0.306067
    16  H    0.300708
 Sum of Mulliken charges =  -0.00000

 Dipole moment (field-independent basis, Debye):
    X=             -4.8527    Y=              1.7870    Z=             -0.5885  Tot=              5.2047
 Quadrupole moment (field-independent basis, Debye-Ang):
   XX=            -62.3980   YY=            -84.2164   ZZ=            -76.9309
   XY=            -12.8151   XZ=              3.4065   YZ=             -0.1211

  Exact polarizability: 121.990  -9.035  90.597  -7.669  -6.366  48.781
 Approx polarizability: 202.213 -10.836 163.683 -31.515 -16.273  93.412

                      1                      2                      3
                      A                      A                      A
 Frequencies --     28.3282                58.4132                82.7691
 Red. masses --     11.1142                10.5711                 8.7127
 Frc consts  --      0.0053                 0.0213                 0.0352
 IR Inten    --      1.1135                 1.7319                 2.2062

                      4                      5                      6
                      A                      A                      A
 Frequencies --    117.0777               187.3087               200.1920
 Red. masses --     10.0287                12.0505                10.6312
 Frc consts  --      0.0810                 0.2491                 0.2510
 IR Inten    --      0.3361                 1.0378                 1.0376

                      7                      8                      9
                      A                      A                      A
 Frequencies --    283.0983               325.9272               347.5924
 Red. masses --      7.2271                 5.3492                 3.4861
 Frc consts  --      0.3413                 0.3348                 0.2482
 IR Inten    --     19.2181                11.5532                90.1493

                     10                     11                     12
                      A                      A                      A
 Frequencies --    358.6613               397.5500               409.6794
 Red. masses --      1.6801                 9.8056                 1.3386
 Frc consts  --      0.1273                 0.9131                 0.1324
 IR Inten    --    174.6591                16.0418                39.3673

                     13                     14                     15
                      A                      A                      A
 Frequencies --    441.2342               486.0970               591.3553
 Red. masses --      3.6897                 7.4041                12.0597
 Frc consts  --      0.4232                 1.0308                 2.4848
 IR Inten    --     14.3089                 0.9559                 2.1618

                     16                     17                     18
                      A                      A                      A
 Frequencies --    643.7395               677.3747               724.6397
 Red. masses --     13.8236                11.9549                11.7466
 Frc consts  --      3.3751                 3.2319                 3.6342
 IR Inten    --      3.6168                 1.5460                 1.1399

                     19                     20                     21
                      A                      A                      A
 Frequencies --    758.0014               773.1220               797.8597
 Red. masses --      6.9621                12.3025                12.6924
 Frc consts  --      2.3568                 4.3325                 4.7604
 IR Inten    --      3.5005                18.3276                 1.9016

                     22                     23                     24
                      A                      A                      A
 Frequencies --    837.5571               911.0729               914.3369
 Red. masses --     14.9081                13.8700                11.4621
 Frc consts  --      6.1617                 6.7832                 5.6458
 IR Inten    --     65.8586                33.6181                15.5679

                     25                     26                     27
                      A                      A                      A
 Frequencies --    941.2321               989.1194              1016.9297
 Red. masses --     14.0570                10.5750                 4.1270
 Frc consts  --      7.3373                 6.0958                 2.5146
 IR Inten    --      3.8933                27.5199                 9.4574

                     28                     29                     30
                      A                      A                      A
 Frequencies --   1065.1012              1104.9512              1168.9355
 Red. masses --      8.5631                 2.8902                 8.9463
 Frc consts  --      5.7235                 2.0790                 7.2023
 IR Inten    --     26.2773                 2.1902                33.4324

                     31                     32                     33
                      A                      A                      A
 Frequencies --   1353.6511              1391.2032              1419.8045
 Red. masses --     11.5454                 7.0883                 9.3302
 Frc consts  --     12.4645                 8.0830                11.0815
 IR Inten    --     88.5967                33.7362                44.7052

                     34                     35                     36
                      A                      A                      A
 Frequencies --   1437.4463              1507.4356              1581.2996
 Red. masses --     10.5248                 9.3267                 4.3080
 Frc consts  --     12.8129                12.4870                 6.3468
 IR Inten    --     42.5889               110.6703                23.6147

                     37                     38                     39
                      A                      A                      A
 Frequencies --   1606.7728              1632.3030              1674.7732
 Red. masses --      1.8423                 7.9372                14.3232
 Frc consts  --      2.8023                12.4601                23.6702
 IR Inten    --     32.7512                59.8437               242.2788

                     40                     41                     42
                      A                      A                      A
 Frequencies --   1711.7742              3617.6364              3743.7953
 Red. masses --      4.5123                 1.0459                 1.1045
 Frc consts  --      7.7901                 8.0645                 9.1211
 IR Inten    --    508.7425               118.1111                75.9451

 - Thermochemistry -
 -------------------
 Temperature   298.150 Kelvin.  Pressure   1.00000 Atm.
 Atom     1 has atomic number  6 and mass  12.00000

 Molecular mass:   198.01375 amu.
 Principal axes and moments of inertia in atomic units:
                           1         2         3
     Eigenvalues --  1444.033493502.994824653.40613
           X            0.99981  -0.01884   0.00426
           Y            0.01887   0.99980  -0.00600
           Z           -0.00415   0.00608   0.99997
 This molecule is an asymmetric top.
 Rotational symmetry number  1.
 Warning -- assumption of classical behavior for rotation
           may cause significant error
 Rotational temperatures (Kelvin)      0.05998     0.02473     0.01861
 Rotational constants (GHZ):           1.24979     0.51520     0.38783
 Zero-point vibrational energy     241150.1 (Joules/Mol)
                                   57.63626 (Kcal/Mol)
 Warning -- explicit consideration of  15 degrees of freedom as
           vibrations may cause significant error
 Vibrational temperatures:     40.76    84.04   119.09   168.45   269.50
          (Kelvin)            288.03   407.31   468.94   500.11   516.03
                              571.99   589.44   634.84   699.38   850.83
                              926.20   974.59  1042.59  1090.59  1112.35
                             1147.94  1205.06  1310.83  1315.53  1354.22
                             1423.12  1463.13  1532.44  1589.78  1681.84
                             1947.60  2001.63  2042.78  2068.16  2168.86
                             2275.13  2311.78  2348.52  2409.62  2462.86
                             5204.97  5386.48

 Zero-point correction=                           0.091849 (Hartree/Particle)
 Thermal correction to Energy=                    0.102851
 Thermal correction to Enthalpy=                  0.103796
 Thermal correction to Gibbs Free Energy=         0.053052
 Sum of electronic and zero-point Energies=           -782.698521
 Sum of electronic and thermal Energies=              -782.687519
 Sum of electronic and thermal Enthalpies=            -782.686575
 Sum of electronic and thermal Free Energies=         -782.737319

                     E (Thermal)             CV                S
                      KCal/Mol        Cal/Mol-Kelvin    Cal/Mol-Kelvin
 Total                   64.540             39.576            106.799
 Electronic               0.000              0.000              0.000
 Translational            0.889              2.981             41.754
 Rotational               0.889              2.981             31.532
 Vibrational             62.763             33.614             33.513
 Vibration     1          0.593              1.984              5.943
 Vibration     2          0.596              1.974              4.510
 Vibration     3          0.600              1.961              3.824
 Vibration     4          0.608              1.935              3.148
 Vibration     5          0.632              1.857              2.254
 Vibration     6          0.638              1.840              2.131
 Vibration     7          0.682              1.705              1.515
 Vibration     8          0.710              1.624              1.280
 Vibration     9          0.725              1.580              1.177
 Vibration    10          0.733              1.557              1.128
 Vibration    11          0.764              1.475              0.972
 Vibration    12          0.774              1.449              0.928
 Vibration    13          0.801              1.380              0.823
 Vibration    14          0.842              1.281              0.694
 Vibration    15          0.949              1.050              0.465

 Optimization completed.
    -- Stationary point found.
 Normal termination of Gaussian 09 at Fri Aug 20 15:58:34 2021.
