 Gaussian 09, Revision E.01,
 Gaussian 09:  ES64L-G09RevE.01 30-Nov-2015

 --------------------------------
 #P OPT=calcfc Freq B3LYP/6-31G**
 --------------------------------

 ------
 UGUHEJ
 ------
 Symbolic Z-matrix:
 Charge =  0 Multiplicity = 1

 SCF Done:  E(RB3LYP) =  -644.620102406     A.U. after   16 cycles
 SCF Done:  E(RB3LYP) =  -644.723227720     A.U. after   14 cycles
 SCF Done:  E(RB3LYP) =  -644.778678364     A.U. after   16 cycles
 SCF Done:  E(RB3LYP) =  -644.779530429     A.U. after   15 cycles
 SCF Done:  E(RB3LYP) =  -644.778990427     A.U. after   16 cycles
 SCF Done:  E(RB3LYP) =  -644.779655494     A.U. after   11 cycles
 SCF Done:  E(RB3LYP) =  -644.697613907     A.U. after   15 cycles
 SCF Done:  E(RB3LYP) =  -644.779655863     A.U. after    8 cycles
 SCF Done:  E(RB3LYP) =  -644.779708147     A.U. after   12 cycles
 SCF Done:  E(RB3LYP) =  -644.779711995     A.U. after   11 cycles
 SCF Done:  E(RB3LYP) =  -644.779712231     A.U. after    8 cycles
 Optimization completed.
    -- Stationary point found.
 Normal termination of Gaussian 09 at Sat Aug 21 02:23:28 2021.

 ----------------------------------------------------------------------
 #P Geom=AllCheck Guess=TCheck SCRF=Check GenChk RB3LYP/6-31G(d,p) Freq
 ----------------------------------------------------------------------

 Structure from the checkpoint file:  "/public/home/users/caep010/.cache/gau_scr/Gau-170267.chk"
 ------
 UGUHEJ
 ------
 Charge =  0 Multiplicity = 1

                         Standard orientation:
 ---------------------------------------------------------------------
 Center     Atomic      Atomic             Coordinates (Angstroms)
 Number     Number       Type             X           Y           Z
 ---------------------------------------------------------------------
      1          8           0       -2.275162   -1.678121   -0.005885
      2          6           0       -2.802686   -0.578061   -0.003580
      3          7           0       -2.097257    0.612309   -0.003595
      4          6           0       -0.704688    0.807221   -0.002002
      5          6           0       -0.233693    2.131892   -0.001134
      6          6           0        0.216199   -0.250000   -0.001382
      7          6           0        1.571678    0.064767    0.000208
      8          7           0        2.543193   -1.048639    0.001064
      9          8           0        2.102889   -2.195782    0.000579
     10          8           0        3.739647   -0.757681    0.002314
     11          6           0        2.060372    1.367870    0.001019
     12          6           0        1.130931    2.405570    0.000373
     13          6           0       -4.314577   -0.414404    0.007475
     14          1           0       -4.705978   -0.858294    0.927048
     15          1           0       -4.729749   -0.980667   -0.829751
     16          1           0       -0.945851    2.953623   -0.001602
     17          1           0        1.470639    3.436114    0.001055
     18          1           0        3.127518    1.544371    0.002083
     19          1           0       -0.113782   -1.277548   -0.002155
     20          1           0       -2.647618    1.458332   -0.002559
     21          1           0       -4.656942    0.621918   -0.058348
 ---------------------------------------------------------------------

 SCF Done:  E(RB3LYP) =  -644.779712231     A.U. after    1 cycles

 The electronic state is 1-A.
 Alpha  occ. eigenvalues --  -19.17652 -19.17599 -19.13380 -14.56714 -14.39715
 Alpha  occ. eigenvalues --  -10.31253 -10.26419 -10.25242 -10.22280 -10.21935
 Alpha  occ. eigenvalues --  -10.21488 -10.21203 -10.20998  -1.21940  -1.05505
 Alpha  occ. eigenvalues --   -1.04655  -0.96241  -0.88460  -0.80752  -0.78225
 Alpha  occ. eigenvalues --   -0.74485  -0.70581  -0.65402  -0.61163  -0.59303
 Alpha  occ. eigenvalues --   -0.56135  -0.52655  -0.51536  -0.51239  -0.50624
 Alpha  occ. eigenvalues --   -0.49301  -0.46865  -0.46451  -0.45046  -0.42395
 Alpha  occ. eigenvalues --   -0.41757  -0.41676  -0.39941  -0.38313  -0.37611
 Alpha  occ. eigenvalues --   -0.32658  -0.30457  -0.30253  -0.28593  -0.28131
 Alpha  occ. eigenvalues --   -0.26790  -0.24411
 Alpha virt. eigenvalues --   -0.08490  -0.03233  -0.00283   0.03228   0.04771
 Alpha virt. eigenvalues --    0.08085   0.11326   0.13074   0.14860   0.14964
 Alpha virt. eigenvalues --    0.15428   0.16301   0.18260   0.19081   0.21484

 Mulliken charges:
               1
     1  O   -0.478078
     2  C    0.577396
     3  N   -0.628689
     4  C    0.310900
     5  C   -0.114189
     6  C   -0.102943
     7  C    0.227177
     8  N    0.392312
     9  O   -0.387180
    10  O   -0.398338
    11  C   -0.094581
    12  C   -0.097645
    13  C   -0.397517
    14  H    0.157196
    15  H    0.157659
    16  H    0.089624
    17  H    0.104845
    18  H    0.135567
    19  H    0.182267
    20  H    0.263376
    21  H    0.100843
 Sum of Mulliken charges =  -0.00000

 Dipole moment (field-independent basis, Debye):
    X=             -4.9202    Y=              6.0709    Z=              0.0248  Tot=              7.8144
 Quadrupole moment (field-independent basis, Debye-Ang):
   XX=            -69.8809   YY=            -75.1282   ZZ=            -73.9307
   XY=              1.0057   XZ=             -0.1003   YZ=             -0.0147

  Exact polarizability: 155.750   5.815 124.224  -0.027   0.013  44.206
 Approx polarizability: 234.754  15.894 227.718   0.043   0.077  67.831

                      1                      2                      3
                      A                      A                      A
 Frequencies --     21.4661                41.7268                53.5846
 Red. masses --      1.1572                 9.0814                 4.8591
 Frc consts  --      0.0003                 0.0093                 0.0082
 IR Inten    --      2.5619                 2.7955                 1.9568

                      4                      5                      6
                      A                      A                      A
 Frequencies --     92.5507               118.5728               174.4385
 Red. masses --      3.5166                 7.1042                 5.2654
 Frc consts  --      0.0177                 0.0588                 0.0944
 IR Inten    --      0.4089                 0.6214                 1.5946

                      7                      8                      9
                      A                      A                      A
 Frequencies --    248.0006               263.0233               327.8867
 Red. masses --      7.0360                 4.1341                 4.5021
 Frc consts  --      0.2550                 0.1685                 0.2852
 IR Inten    --      7.4887                 0.1179                 0.1602

                     10                     11                     12
                      A                      A                      A
 Frequencies --    363.3145               408.7802               441.8599
 Red. masses --      6.4819                 7.9007                 3.4402
 Frc consts  --      0.5041                 0.7778                 0.3957
 IR Inten    --      1.6280                 1.0476                 0.5225

                     13                     14                     15
                      A                      A                      A
 Frequencies --    527.5659               532.0189               545.9860
 Red. masses --      1.4978                 4.1511                 6.0832
 Frc consts  --      0.2456                 0.6923                 1.0684
 IR Inten    --     64.5491                18.9861                 2.4939

                     16                     17                     18
                      A                      A                      A
 Frequencies --    555.1447               623.7250               666.5809
 Red. masses --      3.4225                 2.3018                 5.6426
 Frc consts  --      0.6215                 0.5276                 1.4772
 IR Inten    --      3.6964                 3.1479                 2.9456

                     19                     20                     21
                      A                      A                      A
 Frequencies --    689.3601               701.0317               750.8266
 Red. masses --      2.3993                 6.9451                 4.1299
 Frc consts  --      0.6718                 2.0110                 1.3717
 IR Inten    --     10.7488                 9.5152                35.6092

                     22                     23                     24
                      A                      A                      A
 Frequencies --    814.6989               834.8022               915.9747
 Red. masses --      1.7070                 9.3757                 1.4254
 Frc consts  --      0.6675                 3.8496                 0.7046
 IR Inten    --     17.7623                38.9203                 1.5452

                     25                     26                     27
                      A                      A                      A
 Frequencies --    947.0158               963.6651               966.1457
 Red. masses --      3.9826                 1.3783                 5.2919
 Frc consts  --      2.1044                 0.7541                 2.9104
 IR Inten    --      2.2935                15.4853                 2.3633

                     28                     29                     30
                      A                      A                      A
 Frequencies --    984.6424              1015.3358              1025.6223
 Red. masses --      1.2895                 5.9518                 1.6982
 Frc consts  --      0.7366                 3.6151                 1.0525
 IR Inten    --      0.5086                 0.2386                28.8815

                     31                     32                     33
                      A                      A                      A
 Frequencies --   1055.8769              1107.2976              1120.6493
 Red. masses --      1.6889                 1.6818                 1.6452
 Frc consts  --      1.1094                 1.2149                 1.2173
 IR Inten    --      9.8632                44.2282                 1.6659

                     34                     35                     36
                      A                      A                      A
 Frequencies --   1197.5553              1246.1692              1274.9021
 Red. masses --      1.1533                 2.8216                 2.3687
 Frc consts  --      0.9745                 2.5817                 2.2683
 IR Inten    --      2.4496                74.8649                97.9595

                     37                     38                     39
                      A                      A                      A
 Frequencies --   1305.9487              1377.3229              1399.6051
 Red. masses --      1.4913                 5.9475                13.5282
 Frc consts  --      1.4985                 6.6475                15.6135
 IR Inten    --     18.3724               111.2820               260.4103

                     40                     41                     42
                      A                      A                      A
 Frequencies --   1413.9120              1468.0590              1482.5893
 Red. masses --      1.2533                 2.7858                 1.0493
 Frc consts  --      1.4762                 3.5374                 1.3589
 IR Inten    --     32.7595               100.0576                 5.7891

                     43                     44                     45
                      A                      A                      A
 Frequencies --   1503.6038              1523.5934              1563.5340
 Red. masses --      1.0957                 2.5110                 2.1258
 Frc consts  --      1.4595                 3.4342                 3.0619
 IR Inten    --      9.6770                25.4233               321.0304

                     46                     47                     48
                      A                      A                      A
 Frequencies --   1631.7621              1645.2365              1680.8137
 Red. masses --      8.4251                 5.4882                 8.1274
 Frc consts  --     13.2171                 8.7526                13.5283
 IR Inten    --    328.7333                13.5114                 1.4493

                     49                     50                     51
                      A                      A                      A
 Frequencies --   1797.5172              3061.2646              3139.2778
 Red. masses --      9.1416                 1.0361                 1.1029
 Frc consts  --     17.4027                 5.7207                 6.4042
 IR Inten    --    176.0576                 7.0770                11.2100

                     52                     53                     54
                      A                      A                      A
 Frequencies --   3146.8314              3175.8633              3208.5349
 Red. masses --      1.1020                 1.0892                 1.0929
 Frc consts  --      6.4297                 6.4729                 6.6292
 IR Inten    --      6.8663                11.2899                10.8329

                     55                     56                     57
                      A                      A                      A
 Frequencies --   3255.6521              3286.8547              3636.4530
 Red. masses --      1.0931                 1.0915                 1.0771
 Frc consts  --      6.8265                 6.9474                 8.3918
 IR Inten    --      3.0599                26.1207                20.0668

 - Thermochemistry -
 -------------------
 Temperature   298.150 Kelvin.  Pressure   1.00000 Atm.
 Atom     1 has atomic number  8 and mass  15.99491

 Molecular mass:   180.05349 amu.
 Principal axes and moments of inertia in atomic units:
                           1         2         3
     Eigenvalues --  1225.954213705.307154920.08246
           X            0.99992   0.01236  -0.00015
           Y           -0.01236   0.99992  -0.00005
           Z            0.00015   0.00005   1.00000
 This molecule is an asymmetric top.
 Rotational symmetry number  1.
 Warning -- assumption of classical behavior for rotation
           may cause significant error
 Rotational temperatures (Kelvin)      0.07065     0.02338     0.01760
 Rotational constants (GHZ):           1.47211     0.48707     0.36681
 Zero-point vibrational energy     414637.8 (Joules/Mol)
                                   99.10081 (Kcal/Mol)
 Warning -- explicit consideration of  16 degrees of freedom as
           vibrations may cause significant error
 Vibrational temperatures:     30.88    60.04    77.10   133.16   170.60
          (Kelvin)            250.98   356.82   378.43   471.76   522.73
                              588.14   635.74   759.05   765.46   785.55
                              798.73   897.40   959.06   991.83  1008.63
                             1080.27  1172.17  1201.09  1317.88  1362.54
                             1386.50  1390.07  1416.68  1460.84  1475.64
                             1519.17  1593.15  1612.36  1723.01  1792.96
                             1834.30  1878.97  1981.66  2013.72  2034.30
                             2112.21  2133.11  2163.35  2192.11  2249.57
                             2347.74  2367.13  2418.31  2586.22  4404.47
                             4516.71  4527.58  4569.35  4616.36  4684.15
                             4729.04  5232.04

 Zero-point correction=                           0.157927 (Hartree/Particle)
 Thermal correction to Energy=                    0.169648
 Thermal correction to Enthalpy=                  0.170592
 Thermal correction to Gibbs Free Energy=         0.117663
 Sum of electronic and zero-point Energies=           -644.621785
 Sum of electronic and thermal Energies=              -644.610064
 Sum of electronic and thermal Enthalpies=            -644.609120
 Sum of electronic and thermal Free Energies=         -644.662049

                     E (Thermal)             CV                S
                      KCal/Mol        Cal/Mol-Kelvin    Cal/Mol-Kelvin
 Total                  106.456             42.573            111.399
 Electronic               0.000              0.000              0.000
 Translational            0.889              2.981             41.471
 Rotational               0.889              2.981             31.481
 Vibrational            104.678             36.611             38.447
 Vibration     1          0.593              1.985              6.494
 Vibration     2          0.594              1.981              5.175
 Vibration     3          0.596              1.976              4.681
 Vibration     4          0.602              1.955              3.605
 Vibration     5          0.609              1.934              3.124
 Vibration     6          0.627              1.874              2.387
 Vibration     7          0.662              1.766              1.745
 Vibration     8          0.670              1.741              1.642
 Vibration     9          0.711              1.620              1.270
 Vibration    10          0.737              1.548              1.108
 Vibration    11          0.773              1.451              0.931
 Vibration    12          0.802              1.379              0.821
 Vibration    13          0.883              1.189              0.593
 Vibration    14          0.887              1.179              0.583
 Vibration    15          0.901              1.148              0.553
 Vibration    16          0.911              1.128              0.534

 Normal termination of Gaussian 09 at Sat Aug 21 02:24:01 2021.
