 Gaussian 09, Revision E.01,
 Gaussian 09:  ES64L-G09RevE.01 30-Nov-2015

 -------------------------
 #P OPT Freq B3LYP/6-31G**
 -------------------------

 ------
 VOQJER
 ------
 Symbolic Z-matrix:
 Charge =  0 Multiplicity = 1

 SCF Done:  E(RB3LYP) =  -570.566473273     A.U. after   15 cycles
 SCF Done:  E(RB3LYP) =  -570.682790040     A.U. after   13 cycles
 SCF Done:  E(RB3LYP) =  -570.751173098     A.U. after   14 cycles
 SCF Done:  E(RB3LYP) =  -570.752597684     A.U. after   14 cycles
 SCF Done:  E(RB3LYP) =  -570.745190057     A.U. after   16 cycles
 SCF Done:  E(RB3LYP) =  -570.752748713     A.U. after   11 cycles
 SCF Done:  E(RB3LYP) =  -570.752915359     A.U. after   13 cycles
 SCF Done:  E(RB3LYP) =  -570.752943803     A.U. after   12 cycles
 SCF Done:  E(RB3LYP) =  -570.752960467     A.U. after   12 cycles
 SCF Done:  E(RB3LYP) =  -570.752997956     A.U. after   14 cycles
 SCF Done:  E(RB3LYP) =  -570.753230199     A.U. after   16 cycles
 SCF Done:  E(RB3LYP) =  -570.753632986     A.U. after   11 cycles
 SCF Done:  E(RB3LYP) =  -570.754029957     A.U. after   13 cycles
 SCF Done:  E(RB3LYP) =  -570.754038264     A.U. after   14 cycles
 SCF Done:  E(RB3LYP) =  -570.754170016     A.U. after   12 cycles
 SCF Done:  E(RB3LYP) =  -570.754186854     A.U. after   11 cycles
 SCF Done:  E(RB3LYP) =  -570.754187628     A.U. after    8 cycles
 SCF Done:  E(RB3LYP) =  -570.754187824     A.U. after    8 cycles
 SCF Done:  E(RB3LYP) =  -570.754187885     A.U. after    8 cycles
 Optimization completed.
    -- Stationary point found.
 Normal termination of Gaussian 09 at Fri Aug 20 15:46:53 2021.

 ----------------------------------------------------------------------
 #P Geom=AllCheck Guess=TCheck SCRF=Check GenChk RB3LYP/6-31G(d,p) Freq
 ----------------------------------------------------------------------

 Structure from the checkpoint file:  "/public/home/users/caep010/.cache/gau_scr/Gau-124264.chk"
 ------
 VOQJER
 ------
 Charge =  0 Multiplicity = 1

                         Standard orientation:
 ---------------------------------------------------------------------
 Center     Atomic      Atomic             Coordinates (Angstroms)
 Number     Number       Type             X           Y           Z
 ---------------------------------------------------------------------
      1          8           0       -3.382247    0.870571    0.019685
      2          7           0       -2.775426   -0.201938    0.007193
      3          8           0       -3.318234   -1.307160   -0.000047
      4          6           0       -1.305915   -0.159938   -0.000731
      5          6           0       -0.677913    1.080906    0.006231
      6          1           0       -1.282406    1.979956    0.020702
      7          6           0        0.719876    1.143731   -0.002772
      8          7           0        1.360676    2.379341    0.069125
      9          1           0        2.269158    2.436709   -0.368021
     10          1           0        0.780225    3.175649   -0.154667
     11          6           0        1.478496   -0.057291   -0.019952
     12          6           0        2.990489    0.036886   -0.010672
     13          1           0        3.288064    0.666447    0.840176
     14          6           0        3.758043   -1.285365    0.046384
     15          1           0        3.509303   -1.856106    0.946559
     16          1           0        4.834728   -1.094128    0.061988
     17          1           0        3.546777   -1.915277   -0.823404
     18          1           0        3.317149    0.590067   -0.906438
     19          6           0        0.797506   -1.277441   -0.033444
     20          1           0        1.366535   -2.200168   -0.047787
     21          6           0       -0.594342   -1.353701   -0.023268
     22          1           0       -1.119871   -2.298989   -0.031098
 ---------------------------------------------------------------------

 SCF Done:  E(RB3LYP) =  -570.754187885     A.U. after    1 cycles

 The electronic state is 1-A.
 Alpha  occ. eigenvalues --  -19.17072 -19.17068 -14.56170 -14.35864 -10.24718
 Alpha  occ. eigenvalues --  -10.24193 -10.21342 -10.20948 -10.20461 -10.20391
 Alpha  occ. eigenvalues --  -10.20107 -10.19305  -1.21324  -1.04003  -0.93869
 Alpha  occ. eigenvalues --   -0.86869  -0.81635  -0.76408  -0.74879  -0.69579
 Alpha  occ. eigenvalues --   -0.63890  -0.61877  -0.58205  -0.55094  -0.53303
 Alpha  occ. eigenvalues --   -0.52099  -0.49707  -0.48692  -0.48382  -0.46766
 Alpha  occ. eigenvalues --   -0.45098  -0.44243  -0.40841  -0.39897  -0.39408
 Alpha  occ. eigenvalues --   -0.36359  -0.35834  -0.35642  -0.32798  -0.29968
 Alpha  occ. eigenvalues --   -0.29780  -0.28061  -0.26502  -0.22189
 Alpha virt. eigenvalues --   -0.07806  -0.00607   0.01724   0.06259   0.08835
 Alpha virt. eigenvalues --    0.09192   0.11906   0.13813   0.14102   0.15667
 Alpha virt. eigenvalues --    0.16244   0.17425   0.18802   0.19695   0.20293

 Mulliken charges:
               1
     1  O   -0.404474
     2  N    0.381303
     3  O   -0.399502
     4  C    0.240876
     5  C   -0.123603
     6  H    0.122207
     7  C    0.228174
     8  N   -0.663110
     9  H    0.261978
    10  H    0.264327
    11  C    0.141390
    12  C   -0.262548
    13  H    0.128386
    14  C   -0.331314
    15  H    0.119593
    16  H    0.108297
    17  H    0.116291
    18  H    0.106952
    19  C   -0.149060
    20  H    0.092995
    21  C   -0.105857
    22  H    0.126698
 Sum of Mulliken charges =  -0.00000

 Dipole moment (field-independent basis, Debye):
    X=              5.9391    Y=              1.4753    Z=             -0.9696  Tot=              6.1959
 Quadrupole moment (field-independent basis, Debye-Ang):
   XX=            -79.8380   YY=            -62.1168   ZZ=            -70.9612
   XY=              0.2179   XZ=             -1.7496   YZ=             -2.8738

  Exact polarizability: 151.617   3.020 119.992  -0.881   0.120  48.800
 Approx polarizability: 222.596   8.590 227.649  -1.307   2.127  75.313

                      1                      2                      3
                      A                      A                      A
 Frequencies --     53.5133                74.6087               121.4756
 Red. masses --      7.8951                 4.1727                 2.3349
 Frc consts  --      0.0133                 0.0137                 0.0203
 IR Inten    --      0.2950                 0.5284                 0.4446

                      4                      5                      6
                      A                      A                      A
 Frequencies --    171.9330               207.5231               243.7504
 Red. masses --      4.4297                 3.4177                 4.6747
 Frc consts  --      0.0772                 0.0867                 0.1636
 IR Inten    --      0.6687                 0.9440                 0.4041

                      7                      8                      9
                      A                      A                      A
 Frequencies --    257.9180               313.8192               326.1000
 Red. masses --      1.4986                 1.6042                 3.0290
 Frc consts  --      0.0587                 0.0931                 0.1898
 IR Inten    --      3.1270                11.1658                 1.2823

                     10                     11                     12
                      A                      A                      A
 Frequencies --    346.0550               378.8197               451.0742
 Red. masses --      1.4303                 4.7405                 2.9597
 Frc consts  --      0.1009                 0.4008                 0.3548
 IR Inten    --     23.3674                 2.5853                 7.4576

                     13                     14                     15
                      A                      A                      A
 Frequencies --    465.5791               543.3043               557.1963
 Red. masses --      4.8071                 4.4139                 2.3811
 Frc consts  --      0.6139                 0.7676                 0.4356
 IR Inten    --      0.6921                47.6138                85.4820

                     16                     17                     18
                      A                      A                      A
 Frequencies --    575.9386               599.0969               644.1169
 Red. masses --      3.7947                 2.1445                 5.4971
 Frc consts  --      0.7416                 0.4535                 1.3437
 IR Inten    --     10.4305               156.8214                 4.9331

                     19                     20                     21
                      A                      A                      A
 Frequencies --    707.0527               749.8639               754.3016
 Red. masses --      2.7963                 4.0717                 3.9748
 Frc consts  --      0.8236                 1.3489                 1.3325
 IR Inten    --      3.9216                33.9102                 0.5874

                     22                     23                     24
                      A                      A                      A
 Frequencies --    804.1324               827.0504               846.7957
 Red. masses --      1.3837                 9.3634                 1.4331
 Frc consts  --      0.5272                 3.7735                 0.6054
 IR Inten    --      0.7693                37.9219                 5.4481

                     25                     26                     27
                      A                      A                      A
 Frequencies --    893.4810               963.5263               968.0819
 Red. masses --      1.5260                 1.2902                 4.8342
 Frc consts  --      0.7178                 0.7057                 2.6693
 IR Inten    --     26.5351                 0.0041                 8.3746

                     28                     29                     30
                      A                      A                      A
 Frequencies --    997.8494              1071.6311              1089.9527
 Red. masses --      1.9071                 1.9723                 1.9495
 Frc consts  --      1.1188                 1.3345                 1.3646
 IR Inten    --      1.3852                 2.7172                 4.0722

                     31                     32                     33
                      A                      A                      A
 Frequencies --   1107.1511              1124.7578              1171.5379
 Red. masses --      1.5386                 1.5254                 1.4458
 Frc consts  --      1.1112                 1.1370                 1.1691
 IR Inten    --      0.8002                40.1000                 3.1979

                     34                     35                     36
                      A                      A                      A
 Frequencies --   1198.2389              1302.6973              1304.0952
 Red. masses --      2.2832                 2.3984                 1.1733
 Frc consts  --      1.9315                 2.3980                 1.1757
 IR Inten    --      1.2108                34.8691                 0.4954

                     37                     38                     39
                      A                      A                      A
 Frequencies --   1314.7187              1366.4376              1395.8451
 Red. masses --      1.6016                 2.3388                 9.5178
 Frc consts  --      1.6311                 2.5729                10.9260
 IR Inten    --      4.9406                71.7977               292.5828

                     40                     41                     42
                      A                      A                      A
 Frequencies --   1404.9558              1430.8889              1471.5154
 Red. masses --      2.9913                 1.2779                 3.7046
 Frc consts  --      3.4789                 1.5415                 4.7263
 IR Inten    --     58.6371                 1.0497                24.5150

                     43                     44                     45
                      A                      A                      A
 Frequencies --   1496.1375              1515.7571              1521.8340
 Red. masses --      1.1242                 1.0392                 1.0650
 Frc consts  --      1.4827                 1.4067                 1.4532
 IR Inten    --      7.0222                 6.1642                 6.3343

                     46                     47                     48
                      A                      A                      A
 Frequencies --   1539.7895              1614.7803              1645.8999
 Red. masses --      2.6891                 9.9846                 4.2895
 Frc consts  --      3.7564                15.3393                 6.8465
 IR Inten    --     41.2452               192.6643                26.3938

                     49                     50                     51
                      A                      A                      A
 Frequencies --   1664.0735              1683.1704              2985.8648
 Red. masses --      2.0924                 2.4095                 1.0692
 Frc consts  --      3.4139                 4.0220                 5.6163
 IR Inten    --    104.0186                49.0933                28.1836

                     52                     53                     54
                      A                      A                      A
 Frequencies --   3031.3490              3050.9501              3121.7512
 Red. masses --      1.0913                 1.0359                 1.1031
 Frc consts  --      5.9081                 5.6811                 6.3335
 IR Inten    --     12.2272                20.0140                26.7332

                     55                     56                     57
                      A                      A                      A
 Frequencies --   3124.8711              3213.6252              3228.5011
 Red. masses --      1.1023                 1.0890                 1.0909
 Frc consts  --      6.3416                 6.6264                 6.6997
 IR Inten    --     28.7953                 8.4080                 2.7395

                     58                     59                     60
                      A                      A                      A
 Frequencies --   3254.1023              3580.0216              3686.6678
 Red. masses --      1.0931                 1.0476                 1.0989
 Frc consts  --      6.8198                 7.9110                 8.8001
 IR Inten    --      1.5182                17.6605                15.2871

 - Thermochemistry -
 -------------------
 Temperature   298.150 Kelvin.  Pressure   1.00000 Atm.
 Atom     1 has atomic number  8 and mass  15.99491

 Molecular mass:   166.07423 amu.
 Principal axes and moments of inertia in atomic units:
                           1         2         3
     Eigenvalues --   905.407213293.485684174.53179
           X            0.99990  -0.01407  -0.00061
           Y            0.01407   0.99989  -0.00557
           Z            0.00069   0.00556   0.99998
 This molecule is an asymmetric top.
 Rotational symmetry number  1.
 Warning -- assumption of classical behavior for rotation
           may cause significant error
 Rotational temperatures (Kelvin)      0.09566     0.02630     0.02075
 Rotational constants (GHZ):           1.99329     0.54797     0.43232
 Zero-point vibrational energy     463897.0 (Joules/Mol)
                                  110.87405 (Kcal/Mol)
 Warning -- explicit consideration of  17 degrees of freedom as
           vibrations may cause significant error
 Vibrational temperatures:     76.99   107.35   174.78   247.37   298.58
          (Kelvin)            350.70   371.09   451.52   469.18   497.90
                              545.04   648.99   669.86   781.69   801.68
                              828.65   861.97   926.74  1017.29  1078.89
                             1085.27  1156.97  1189.94  1218.35  1285.52
                             1386.30  1392.85  1435.68  1541.84  1568.20
                             1592.94  1618.27  1685.58  1724.00  1874.29
                             1876.30  1891.58  1966.00  2008.31  2021.42
                             2058.73  2117.18  2152.61  2180.83  2189.58
                             2215.41  2323.31  2368.08  2394.23  2421.70
                             4295.99  4361.43  4389.63  4491.50  4495.99
                             4623.68  4645.09  4681.92  5150.85  5304.29

 Zero-point correction=                           0.176689 (Hartree/Particle)
 Thermal correction to Energy=                    0.187726
 Thermal correction to Enthalpy=                  0.188670
 Thermal correction to Gibbs Free Energy=         0.139714
 Sum of electronic and zero-point Energies=           -570.577499
 Sum of electronic and thermal Energies=              -570.566462
 Sum of electronic and thermal Enthalpies=            -570.565517
 Sum of electronic and thermal Free Energies=         -570.614474

                     E (Thermal)             CV                S
                      KCal/Mol        Cal/Mol-Kelvin    Cal/Mol-Kelvin
 Total                  117.800             42.240            103.038
 Electronic               0.000              0.000              0.000
 Translational            0.889              2.981             41.230
 Rotational               0.889              2.981             30.899
 Vibrational            116.023             36.278             30.909
 Vibration     1          0.596              1.976              4.683
 Vibration     2          0.599              1.966              4.028
 Vibration     3          0.609              1.931              3.077
 Vibration     4          0.626              1.877              2.414
 Vibration     5          0.641              1.829              2.065
 Vibration     6          0.659              1.773              1.775
 Vibration     7          0.667              1.749              1.676
 Vibration     8          0.702              1.647              1.342
 Vibration     9          0.710              1.623              1.279
 Vibration    10          0.724              1.583              1.184
 Vibration    11          0.749              1.515              1.044
 Vibration    12          0.810              1.359              0.793
 Vibration    13          0.823              1.326              0.750
 Vibration    14          0.898              1.154              0.558
 Vibration    15          0.913              1.124              0.529
 Vibration    16          0.932              1.083              0.493
 Vibration    17          0.957              1.034              0.451

 Optimization completed.
    -- Stationary point found.
 Normal termination of Gaussian 09 at Fri Aug 20 15:47:27 2021.
