 Gaussian 09, Revision E.01,
 Gaussian 09:  ES64L-G09RevE.01 30-Nov-2015

 -------------------------
 #P OPT Freq B3LYP/6-31G**
 -------------------------

 ------
 IDEHAD
 ------
 Symbolic Z-matrix:
 Charge =  0 Multiplicity = 1

 SCF Done:  E(RB3LYP) =  -567.241976465     A.U. after   17 cycles
 SCF Done:  E(RB3LYP) =  -567.313090797     A.U. after   14 cycles
 SCF Done:  E(RB3LYP) =  -567.335454419     A.U. after   16 cycles
 SCF Done:  E(RB3LYP) =  -567.322543031     A.U. after   17 cycles
 SCF Done:  E(RB3LYP) =  -567.336039991     A.U. after   12 cycles
 SCF Done:  E(RB3LYP) =  -567.336301933     A.U. after   13 cycles
 SCF Done:  E(RB3LYP) =  -567.336350879     A.U. after   12 cycles
 SCF Done:  E(RB3LYP) =  -567.336412857     A.U. after   13 cycles
 SCF Done:  E(RB3LYP) =  -567.336450671     A.U. after   12 cycles
 SCF Done:  E(RB3LYP) =  -567.336473342     A.U. after   12 cycles
 SCF Done:  E(RB3LYP) =  -567.336485501     A.U. after   12 cycles
 SCF Done:  E(RB3LYP) =  -567.336488706     A.U. after   10 cycles
 SCF Done:  E(RB3LYP) =  -567.336489692     A.U. after   10 cycles
 SCF Done:  E(RB3LYP) =  -567.336489871     A.U. after    8 cycles
 Optimization completed.
    -- Stationary point found.
 Normal termination of Gaussian 09 at Fri Aug 20 15:37:01 2021.

 ----------------------------------------------------------------------
 #P Geom=AllCheck Guess=TCheck SCRF=Check GenChk RB3LYP/6-31G(d,p) Freq
 ----------------------------------------------------------------------

 Structure from the checkpoint file:  "/public/home/users/caep010/.cache/gau_scr/Gau-113267.chk"
 ------
 IDEHAD
 ------
 Charge =  0 Multiplicity = 1

                         Standard orientation:
 ---------------------------------------------------------------------
 Center     Atomic      Atomic             Coordinates (Angstroms)
 Number     Number       Type             X           Y           Z
 ---------------------------------------------------------------------
      1          8           0        0.246311   -2.415753    0.211640
      2          6           0        0.606592   -1.256834    0.090369
      3          6           0       -0.224192   -0.055784    0.006313
      4          6           0        0.276799    1.226809   -0.059887
      5          7           0        1.984365   -0.946362    0.058988
      6          6           0        1.695378    1.393472   -0.088324
      7          6           0        2.510283    0.301518   -0.028792
      8          6           0       -0.589362    2.460193   -0.111274
      9          1           0       -0.925393    2.722478    0.896550
     10          1           0        2.583357   -1.761250    0.114390
     11          7           0       -1.669429   -0.283586   -0.014534
     12          8           0       -2.367848    0.419979    0.722078
     13          1           0        2.123037    2.385100   -0.161781
     14          1           0        3.592160    0.369048   -0.050466
     15          8           0       -2.093281   -1.146005   -0.775023
     16          1           0       -1.489144    2.311921   -0.710353
     17          1           0       -0.023009    3.300314   -0.519507
 ---------------------------------------------------------------------

 SCF Done:  E(RB3LYP) =  -567.336489871     A.U. after    1 cycles

 The electronic state is 1-A.
 Alpha  occ. eigenvalues --  -19.17738 -19.17554 -19.12523 -14.56706 -14.41760
 Alpha  occ. eigenvalues --  -10.31410 -10.27819 -10.25559 -10.25414 -10.22109
 Alpha  occ. eigenvalues --  -10.20738  -1.21943  -1.05603  -1.04523  -0.97987
 Alpha  occ. eigenvalues --   -0.87041  -0.80334  -0.75636  -0.71255  -0.64162
 Alpha  occ. eigenvalues --   -0.63327  -0.57105  -0.55698  -0.53506  -0.51222
 Alpha  occ. eigenvalues --   -0.49539  -0.48541  -0.46211  -0.44697  -0.43431
 Alpha  occ. eigenvalues --   -0.43286  -0.40556  -0.39996  -0.36326  -0.32252
 Alpha  occ. eigenvalues --   -0.30531  -0.30096  -0.28531  -0.26695  -0.24015
 Alpha virt. eigenvalues --   -0.08420  -0.04141  -0.00563   0.04892   0.09931
 Alpha virt. eigenvalues --    0.10650   0.11315   0.12813   0.13607   0.16743
 Alpha virt. eigenvalues --    0.17804   0.19774   0.22117   0.26326   0.28217

 Mulliken charges:
               1
     1  O   -0.495166
     2  C    0.606864
     3  C    0.090038
     4  C    0.173658
     5  N   -0.567587
     6  C   -0.186186
     7  C    0.172121
     8  C   -0.365004
     9  H    0.163624
    10  H    0.287604
    11  N    0.360721
    12  O   -0.393336
    13  H    0.106976
    14  H    0.138872
    15  O   -0.352324
    16  H    0.146319
    17  H    0.112809
 Sum of Mulliken charges =  -0.00000

 Dipole moment (field-independent basis, Debye):
    X=              6.4555    Y=              3.9767    Z=             -0.2718  Tot=              7.5869
 Quadrupole moment (field-independent basis, Debye-Ang):
   XX=            -56.2295   YY=            -63.9490   ZZ=            -63.4558
   XY=             -4.6157   XZ=              0.5376   YZ=             -1.5075

  Exact polarizability: 106.193   2.165 104.304  -1.175   2.483  44.017
 Approx polarizability: 167.906   9.509 191.351  -4.692  16.139  79.965

                      1                      2                      3
                      A                      A                      A
 Frequencies --     69.5246                90.7286               133.0155
 Red. masses --     11.4542                 6.0791                 1.0599
 Frc consts  --      0.0326                 0.0295                 0.0110
 IR Inten    --      0.9556                 1.0950                 0.6539

                      4                      5                      6
                      A                      A                      A
 Frequencies --    189.2380               207.8950               222.8496
 Red. masses --      3.6172                 6.3769                 8.6143
 Frc consts  --      0.0763                 0.1624                 0.2521
 IR Inten    --      2.4294                 0.2820                 0.8871

                      7                      8                      9
                      A                      A                      A
 Frequencies --    314.0460               395.0671               411.8448
 Red. masses --      5.2183                 4.3122                 5.4392
 Frc consts  --      0.3032                 0.3965                 0.5436
 IR Inten    --      1.2721                 4.4682                 7.5143

                     10                     11                     12
                      A                      A                      A
 Frequencies --    482.7927               515.9267               580.4690
 Red. masses --      5.8004                 5.5808                 2.6202
 Frc consts  --      0.7966                 0.8752                 0.5202
 IR Inten    --      8.9883                 0.9517                 7.6314

                     13                     14                     15
                      A                      A                      A
 Frequencies --    585.1515               608.7950               703.8026
 Red. masses --      5.0924                 6.9684                 1.9717
 Frc consts  --      1.0273                 1.5217                 0.5754
 IR Inten    --      8.1040                10.9321                36.6855

                     16                     17                     18
                      A                      A                      A
 Frequencies --    738.2664               774.3849               778.9310
 Red. masses --      3.1133                 5.9272                 1.5608
 Frc consts  --      0.9998                 2.0942                 0.5579
 IR Inten    --     35.8996                31.6285                36.2884

                     19                     20                     21
                      A                      A                      A
 Frequencies --    793.5220               869.0651               947.3454
 Red. masses --      4.5309                 7.8569                 1.2758
 Frc consts  --      1.6809                 3.4963                 0.6746
 IR Inten    --      4.1510                19.4621                 0.1281

                     22                     23                     24
                      A                      A                      A
 Frequencies --    982.5562              1052.8692              1064.7335
 Red. masses --      2.3208                 1.7288                 2.6791
 Frc consts  --      1.3201                 1.1292                 1.7894
 IR Inten    --      1.4843                 5.4138                 9.2677

                     25                     26                     27
                      A                      A                      A
 Frequencies --   1113.8578              1150.4521              1190.4656
 Red. masses --      2.9812                 1.9596                 3.8197
 Frc consts  --      2.1792                 1.5281                 3.1894
 IR Inten    --      2.4890                18.7211                 0.7700

                     28                     29                     30
                      A                      A                      A
 Frequencies --   1243.0023              1319.1527              1404.7113
 Red. masses --      1.1965                 2.9538                11.9351
 Frc consts  --      1.0892                 3.0285                13.8756
 IR Inten    --     31.5302                 2.3702               220.7272

                     31                     32                     33
                      A                      A                      A
 Frequencies --   1426.1316              1439.0030              1487.3159
 Red. masses --      1.2069                 1.8519                 1.1544
 Frc consts  --      1.4462                 2.2594                 1.5046
 IR Inten    --      6.2912                37.7332                21.0124

                     34                     35                     36
                      A                      A                      A
 Frequencies --   1504.3082              1515.5087              1573.4103
 Red. masses --      1.1175                 2.7796                 4.5186
 Frc consts  --      1.4900                 3.7614                 6.5908
 IR Inten    --      6.1767                 6.8893                72.7672

                     37                     38                     39
                      A                      A                      A
 Frequencies --   1636.5810              1677.1462              1804.3434
 Red. masses --     12.4051                 5.5608                 9.5837
 Frc consts  --     19.5761                 9.2158                18.3833
 IR Inten    --    168.1731                92.6342               516.0195

                     40                     41                     42
                      A                      A                      A
 Frequencies --   3066.2070              3133.4747              3156.5710
 Red. masses --      1.0368                 1.1006                 1.1031
 Frc consts  --      5.7433                 6.3669                 6.4756
 IR Inten    --      6.7026                 9.5390                 8.5828

                     43                     44                     45
                      A                      A                      A
 Frequencies --   3219.9549              3239.4637              3609.7594
 Red. masses --      1.0897                 1.0971                 1.0783
 Frc consts  --      6.6564                 6.7836                 8.2786
 IR Inten    --      0.4581                 3.3685                84.4784

 - Thermochemistry -
 -------------------
 Temperature   298.150 Kelvin.  Pressure   1.00000 Atm.
 Atom     1 has atomic number  8 and mass  15.99491

 Molecular mass:   154.03784 amu.
 Principal axes and moments of inertia in atomic units:
                           1         2         3
     Eigenvalues --  1134.864371511.069072497.86217
           X            0.99935  -0.03619   0.00004
           Y            0.03619   0.99933  -0.00554
           Z            0.00016   0.00554   0.99998
 This molecule is an asymmetric top.
 Rotational symmetry number  1.
 Warning -- assumption of classical behavior for rotation
           may cause significant error
 Rotational temperatures (Kelvin)      0.07632     0.05732     0.03468
 Rotational constants (GHZ):           1.59027     1.19435     0.72251
 Zero-point vibrational energy     325525.7 (Joules/Mol)
                                   77.80250 (Kcal/Mol)
 Warning -- explicit consideration of  14 degrees of freedom as
           vibrations may cause significant error
 Vibrational temperatures:    100.03   130.54   191.38   272.27   299.11
          (Kelvin)            320.63   451.84   568.41   592.55   694.63
                              742.30   835.16   841.90   875.92  1012.61
                             1062.20  1114.17  1120.71  1141.70  1250.39
                             1363.02  1413.68  1514.84  1531.91  1602.59
                             1655.24  1712.81  1788.40  1897.96  2021.06
                             2051.88  2070.40  2139.91  2164.36  2180.48
                             2263.78  2354.67  2413.04  2596.04  4411.58
                             4508.37  4541.60  4632.79  4660.86  5193.63

 Zero-point correction=                           0.123986 (Hartree/Particle)
 Thermal correction to Energy=                    0.133446
 Thermal correction to Enthalpy=                  0.134390
 Thermal correction to Gibbs Free Energy=         0.088861
 Sum of electronic and zero-point Energies=           -567.212504
 Sum of electronic and thermal Energies=              -567.203044
 Sum of electronic and thermal Enthalpies=            -567.202100
 Sum of electronic and thermal Free Energies=         -567.247629

                     E (Thermal)             CV                S
                      KCal/Mol        Cal/Mol-Kelvin    Cal/Mol-Kelvin
 Total                   83.739             34.878             95.825
 Electronic               0.000              0.000              0.000
 Translational            0.889              2.981             41.006
 Rotational               0.889              2.981             29.839
 Vibrational             81.961             28.916             24.980
 Vibration     1          0.598              1.969              4.167
 Vibration     2          0.602              1.956              3.644
 Vibration     3          0.613              1.920              2.902
 Vibration     4          0.633              1.855              2.235
 Vibration     5          0.641              1.829              2.062
 Vibration     6          0.649              1.806              1.936
 Vibration     7          0.702              1.647              1.341
 Vibration     8          0.762              1.481              0.981
 Vibration     9          0.776              1.445              0.920
 Vibration    10          0.839              1.288              0.703
 Vibration    11          0.871              1.215              0.619
 Vibration    12          0.937              1.074              0.484
 Vibration    13          0.942              1.063              0.476
 Vibration    14          0.968              1.013              0.435

 Optimization completed.
    -- Stationary point found.
 Normal termination of Gaussian 09 at Fri Aug 20 15:37:24 2021.
