 Gaussian 09, Revision E.01,
 Gaussian 09:  ES64L-G09RevE.01 30-Nov-2015

 -------------------------
 #P OPT Freq B3LYP/6-31G**
 -------------------------

 ------
 CIFROY
 ------
 Symbolic Z-matrix:
 Charge =  0 Multiplicity = 1

 SCF Done:  E(RB3LYP) =  -446.736210912     A.U. after   16 cycles
 SCF Done:  E(RB3LYP) =  -446.740481707     A.U. after   14 cycles
 SCF Done:  E(RB3LYP) =  -446.732365647     A.U. after   17 cycles
 SCF Done:  E(RB3LYP) =  -446.740775889     A.U. after   11 cycles
 SCF Done:  E(RB3LYP) =  -446.740964931     A.U. after   12 cycles
 SCF Done:  E(RB3LYP) =  -446.741066743     A.U. after   12 cycles
 SCF Done:  E(RB3LYP) =  -446.741096013     A.U. after   11 cycles
 SCF Done:  E(RB3LYP) =  -446.741102716     A.U. after   10 cycles
 SCF Done:  E(RB3LYP) =  -446.741104689     A.U. after   10 cycles
 SCF Done:  E(RB3LYP) =  -446.741105494     A.U. after    9 cycles
 SCF Done:  E(RB3LYP) =  -446.741105957     A.U. after    9 cycles
 SCF Done:  E(RB3LYP) =  -446.741106347     A.U. after    9 cycles
 SCF Done:  E(RB3LYP) =  -446.741106603     A.U. after    9 cycles
 Optimization completed.
    -- Stationary point found.
 Normal termination of Gaussian 09 at Fri Aug 20 15:36:25 2021.

 ----------------------------------------------------------------------
 #P Geom=AllCheck Guess=TCheck SCRF=Check GenChk RB3LYP/6-31G(d,p) Freq
 ----------------------------------------------------------------------

 Structure from the checkpoint file:  "/public/home/users/caep010/.cache/gau_scr/Gau-44689.chk"
 ------
 CIFROY
 ------
 Charge =  0 Multiplicity = 1

                         Standard orientation:
 ---------------------------------------------------------------------
 Center     Atomic      Atomic             Coordinates (Angstroms)
 Number     Number       Type             X           Y           Z
 ---------------------------------------------------------------------
      1          7           0        1.976092   -0.650691    0.000502
      2          7           0        0.713826   -1.120603    0.000668
      3          6           0        1.984691    0.706061   -0.000452
      4          1           0        2.887960    1.299511   -0.000630
      5          6           0        0.030230    0.012314   -0.000067
      6          7           0       -1.433034    0.001548   -0.000050
      7          7           0        0.746217    1.159888   -0.000744
      8          8           0       -1.990489    1.092512    0.001006
      9          1           0        2.750033   -1.300825    0.000553
     10          8           0       -1.978164   -1.097504   -0.000937
 ---------------------------------------------------------------------

 SCF Done:  E(RB3LYP) =  -446.741106603     A.U. after    1 cycles

 The electronic state is 1-A.
 Alpha  occ. eigenvalues --  -19.18651 -19.18532 -14.58132 -14.46874 -14.40944
 Alpha  occ. eigenvalues --  -14.37175 -10.30815 -10.30104  -1.23313  -1.12737
 Alpha  occ. eigenvalues --   -1.06028  -0.94658  -0.88409  -0.76593  -0.68692
 Alpha  occ. eigenvalues --   -0.61443  -0.59367  -0.54652  -0.54236  -0.51427
 Alpha  occ. eigenvalues --   -0.49619  -0.48938  -0.37343  -0.34331  -0.32414
 Alpha  occ. eigenvalues --   -0.31427  -0.31138  -0.30868  -0.29335
 Alpha virt. eigenvalues --   -0.08998  -0.02727   0.04235   0.04608   0.09969
 Alpha virt. eigenvalues --    0.12889   0.19392   0.21405   0.24544   0.29293
 Alpha virt. eigenvalues --    0.29967   0.36649   0.45550   0.49528   0.49772

 Mulliken charges:
               1
     1  N   -0.304885
     2  N   -0.268193
     3  C    0.302866
     4  H    0.153295
     5  C    0.612026
     6  N    0.376919
     7  N   -0.436778
     8  O   -0.365178
     9  H    0.303942
    10  O   -0.374015
 Sum of Mulliken charges =  -0.00000

 Dipole moment (field-independent basis, Debye):
    X=              6.8000    Y=             -0.7423    Z=             -0.0000  Tot=              6.8404
 Quadrupole moment (field-independent basis, Debye-Ang):
   XX=            -34.5143   YY=            -48.9320   ZZ=            -42.5921
   XY=             -1.9260   XZ=              0.0005   YZ=             -0.0017

  Exact polarizability:  68.957  -0.067  55.905  -0.000   0.001  21.799
 Approx polarizability: 103.612  -4.102 125.828   0.002   0.014  33.822

                      1                      2                      3
                      A                      A                      A
 Frequencies --     42.0002               225.8157               248.0618
 Red. masses --     10.4708                 6.4130                 9.1498
 Frc consts  --      0.0109                 0.1927                 0.3317
 IR Inten    --      0.2745                 2.3156                 1.4308

                      4                      5                      6
                      A                      A                      A
 Frequencies --    442.6371               540.4893               597.1251
 Red. masses --     12.3953                11.4370                 2.2204
 Frc consts  --      1.4309                 1.9685                 0.4665
 IR Inten    --      0.8242                 2.6356                57.5535

                      7                      8                      9
                      A                      A                      A
 Frequencies --    669.9867               689.3887               787.7830
 Red. masses --      8.3081                 1.5978                12.9223
 Frc consts  --      2.1973                 0.4474                 4.7250
 IR Inten    --     28.2390                38.8372                 0.0789

                     10                     11                     12
                      A                      A                      A
 Frequencies --    844.1067               860.1990               988.3172
 Red. masses --     14.5910                 1.3840                 8.3385
 Frc consts  --      6.1253                 0.6034                 4.7988
 IR Inten    --     66.2717                14.3981                11.8556

                     13                     14                     15
                      A                      A                      A
 Frequencies --   1011.3164              1119.0007              1181.8003
 Red. masses --      4.8774                 2.1377                 2.6514
 Frc consts  --      2.9391                 1.5771                 2.1818
 IR Inten    --      3.4925                19.6451                18.2724

                     16                     17                     18
                      A                      A                      A
 Frequencies --   1299.2347              1360.7899              1415.6332
 Red. masses --      2.4083                 8.8977                 9.4591
 Frc consts  --      2.3951                 9.7075                11.1687
 IR Inten    --     15.4452                55.6088                62.7065

                     19                     20                     21
                      A                      A                      A
 Frequencies --   1444.7424              1473.1654              1557.5535
 Red. masses --      7.5492                 2.4586                 4.1893
 Frc consts  --      9.2839                 3.1437                 5.9879
 IR Inten    --     99.3938                19.1503                28.6736

                     22                     23                     24
                      A                      A                      A
 Frequencies --   1669.9355              3277.6662              3647.4020
 Red. masses --     14.2824                 1.0994                 1.0830
 Frc consts  --     23.4667                 6.9591                 8.4888
 IR Inten    --    208.4247                 0.5758                97.5583

 - Thermochemistry -
 -------------------
 Temperature   298.150 Kelvin.  Pressure   1.00000 Atm.
 Atom     1 has atomic number  7 and mass  14.00307

 Molecular mass:   114.01778 amu.
 Principal axes and moments of inertia in atomic units:
                           1         2         3
     Eigenvalues --   321.756061026.209501347.96519
           X            1.00000   0.00090  -0.00000
           Y           -0.00090   1.00000  -0.00002
           Z            0.00000   0.00002   1.00000
 This molecule is an asymmetric top.
 Rotational symmetry number  1.
 Rotational temperatures (Kelvin)      0.26919     0.08440     0.06426
 Rotational constants (GHZ):           5.60904     1.75865     1.33886
 Zero-point vibrational energy     163853.4 (Joules/Mol)
                                   39.16190 (Kcal/Mol)
 Warning -- explicit consideration of   6 degrees of freedom as
           vibrations may cause significant error
 Vibrational temperatures:     60.43   324.90   356.91   636.86   777.64
          (Kelvin)            859.13   963.96   991.88  1133.44  1214.48
                             1237.63  1421.97  1455.06  1609.99  1700.34
                             1869.31  1957.87  2036.78  2078.66  2119.55
                             2240.97  2402.66  4715.82  5247.79

 Zero-point correction=                           0.062408 (Hartree/Particle)
 Thermal correction to Energy=                    0.068344
 Thermal correction to Enthalpy=                  0.069289
 Thermal correction to Gibbs Free Energy=         0.031292
 Sum of electronic and zero-point Energies=           -446.678698
 Sum of electronic and thermal Energies=              -446.672762
 Sum of electronic and thermal Enthalpies=            -446.671818
 Sum of electronic and thermal Free Energies=         -446.709815

                     E (Thermal)             CV                S
                      KCal/Mol        Cal/Mol-Kelvin    Cal/Mol-Kelvin
 Total                   42.887             20.512             79.970
 Electronic               0.000              0.000              0.000
 Translational            0.889              2.981             40.109
 Rotational               0.889              2.981             27.589
 Vibrational             41.109             14.551             12.272
 Vibration     1          0.595              1.980              5.162
 Vibration     2          0.650              1.802              1.912
 Vibration     3          0.662              1.766              1.744
 Vibration     4          0.802              1.377              0.818
 Vibration     5          0.896              1.161              0.564
 Vibration     6          0.955              1.038              0.455

 Optimization completed.
    -- Stationary point found.
 Normal termination of Gaussian 09 at Fri Aug 20 15:36:35 2021.
