 Gaussian 09, Revision E.01,
 Gaussian 09:  ES64L-G09RevE.01 30-Nov-2015

 --------------------------------
 #P OPT=calcfc Freq B3LYP/6-31G**
 --------------------------------

 ------
 IMIVOP
 ------
 Symbolic Z-matrix:
 Charge =  0 Multiplicity = 1

 SCF Done:  E(RB3LYP) =  -706.271922590     A.U. after   15 cycles
 SCF Done:  E(RB3LYP) =  -706.297326365     A.U. after   17 cycles
 SCF Done:  E(RB3LYP) =  -706.283726237     A.U. after   17 cycles
 SCF Done:  E(RB3LYP) =  -706.301979923     A.U. after   13 cycles
 SCF Done:  E(RB3LYP) =  -706.302100141     A.U. after   14 cycles
 SCF Done:  E(RB3LYP) =  -706.301972536     A.U. after   14 cycles
 SCF Done:  E(RB3LYP) =  -706.302815551     A.U. after   12 cycles
 SCF Done:  E(RB3LYP) =  -706.302977855     A.U. after   13 cycles
 SCF Done:  E(RB3LYP) =  -706.303190817     A.U. after   12 cycles
 SCF Done:  E(RB3LYP) =  -706.303306882     A.U. after   12 cycles
 SCF Done:  E(RB3LYP) =  -706.303521200     A.U. after   13 cycles
 SCF Done:  E(RB3LYP) =  -706.303664093     A.U. after   14 cycles
 SCF Done:  E(RB3LYP) =  -706.303751221     A.U. after   11 cycles
 SCF Done:  E(RB3LYP) =  -706.303809631     A.U. after   12 cycles
 SCF Done:  E(RB3LYP) =  -706.303823013     A.U. after   10 cycles
 SCF Done:  E(RB3LYP) =  -706.303823939     A.U. after    9 cycles
 SCF Done:  E(RB3LYP) =  -706.303824529     A.U. after    8 cycles
 SCF Done:  E(RB3LYP) =  -706.303824586     A.U. after    8 cycles
 Optimization completed.
    -- Stationary point found.
 Normal termination of Gaussian 09 at Mon Aug 23 16:07:30 2021.

 ----------------------------------------------------------------------
 #P Geom=AllCheck Guess=TCheck SCRF=Check GenChk RB3LYP/6-31G(d,p) Freq
 ----------------------------------------------------------------------

 Structure from the checkpoint file:  "/public/home/users/caep010/.cache/gau_scr/Gau-103488.chk"
 ------
 IMIVOP
 ------
 Charge =  0 Multiplicity = 1

                         Standard orientation:
 ---------------------------------------------------------------------
 Center     Atomic      Atomic             Coordinates (Angstroms)
 Number     Number       Type             X           Y           Z
 ---------------------------------------------------------------------
      1          7           0        0.651507   -0.134126   -0.015188
      2          6           0       -0.657616   -0.570961   -0.007193
      3          6           0        1.188921    1.149628   -0.003851
      4          7           0       -0.813443   -1.893025    0.000308
      5          1           0       -1.764083   -2.240347    0.007472
      6          7           0        1.698427   -1.065504   -0.011695
      7          6           0        2.753704   -0.268300    0.011159
      8          1           0        0.025152   -2.458208    0.010103
      9          7           0        0.446334    2.264947   -0.020417
     10          7           0        2.507090    1.081843    0.012684
     11          1           0        0.922449    3.148883    0.045924
     12          1           0       -0.562887    2.175645    0.005822
     13          7           0        4.035683   -0.737523    0.076602
     14          1           0        4.741492   -0.084697   -0.228830
     15          7           0       -1.565113    0.404071   -0.008073
     16          1           0        4.173705   -1.694943   -0.209804
     17          7           0       -2.903867    0.073670    0.002772
     18          8           0       -3.666611    1.031357    0.011567
     19          8           0       -3.288665   -1.114984    0.002142
 ---------------------------------------------------------------------

 SCF Done:  E(RB3LYP) =  -706.303824586     A.U. after    1 cycles

 The electronic state is 1-A.
 Alpha  occ. eigenvalues --  -19.17082 -19.16741 -14.58827 -14.43834 -14.38726
 Alpha  occ. eigenvalues --  -14.37351 -14.37125 -14.36307 -14.35406 -14.32770
 Alpha  occ. eigenvalues --  -10.34699 -10.31970 -10.29067  -1.22549  -1.09757
 Alpha  occ. eigenvalues --   -1.04301  -1.00693  -0.96029  -0.93988  -0.92225
 Alpha  occ. eigenvalues --   -0.88861  -0.82936  -0.72230  -0.67558  -0.63145
 Alpha  occ. eigenvalues --   -0.60716  -0.58361  -0.56174  -0.54869  -0.54251
 Alpha  occ. eigenvalues --   -0.53731  -0.52300  -0.50032  -0.49948  -0.48308
 Alpha  occ. eigenvalues --   -0.46548  -0.42036  -0.37545  -0.35944  -0.34745
 Alpha  occ. eigenvalues --   -0.32880  -0.30647  -0.30301  -0.29263  -0.28520
 Alpha  occ. eigenvalues --   -0.27286  -0.26361  -0.22391
 Alpha virt. eigenvalues --   -0.06831  -0.00065   0.05732   0.07032   0.08204
 Alpha virt. eigenvalues --    0.08685   0.09719   0.11600   0.12625   0.13826
 Alpha virt. eigenvalues --    0.15449   0.19649   0.21696   0.24057   0.26537

 Mulliken charges:
               1
     1  N   -0.443680
     2  C    0.859782
     3  C    0.782224
     4  N   -0.619173
     5  H    0.323598
     6  N   -0.404416
     7  C    0.647758
     8  H    0.312517
     9  N   -0.672779
    10  N   -0.564780
    11  H    0.291053
    12  H    0.322083
    13  N   -0.655980
    14  H    0.282299
    15  N   -0.492434
    16  H    0.275919
    17  N    0.611502
    18  O   -0.394776
    19  O   -0.460715
 Sum of Mulliken charges =  -0.00000

 Dipole moment (field-independent basis, Debye):
    X=              5.0147    Y=             -1.1842    Z=             -0.7728  Tot=              5.2102
 Quadrupole moment (field-independent basis, Debye-Ang):
   XX=            -81.4648   YY=            -61.2307   ZZ=            -74.1413
   XY=             -0.9488   XZ=             -4.3444   YZ=              1.1775

  Exact polarizability: 158.104  -6.835 104.134  -0.087   0.184  35.634
 Approx polarizability: 228.225 -15.650 193.367   1.412   0.139  55.405

                      1                      2                      3
                      A                      A                      A
 Frequencies --     46.3962                67.3369                97.8646
 Red. masses --      8.5796                12.0553                 6.7321
 Frc consts  --      0.0109                 0.0322                 0.0380
 IR Inten    --      3.6351                 0.6202                 5.9260

                      4                      5                      6
                      A                      A                      A
 Frequencies --    140.5285               160.0787               205.7904
 Red. masses --      7.0686                 5.2506                 5.5942
 Frc consts  --      0.0822                 0.0793                 0.1396
 IR Inten    --      4.4187                31.8091                 5.4981

                      7                      8                      9
                      A                      A                      A
 Frequencies --    275.9658               285.4175               329.4784
 Red. masses --      1.2673                 4.1699                 6.8108
 Frc consts  --      0.0569                 0.2001                 0.4356
 IR Inten    --    172.7906                 5.4990                 2.1087

                     10                     11                     12
                      A                      A                      A
 Frequencies --    348.0007               363.5701               394.6975
 Red. masses --      2.8474                 3.9021                 1.8656
 Frc consts  --      0.2032                 0.3039                 0.1712
 IR Inten    --     21.9029                 1.9558                33.0736

                     13                     14                     15
                      A                      A                      A
 Frequencies --    419.6405               457.7413               495.5520
 Red. masses --      2.1903                 1.1734                 1.5122
 Frc consts  --      0.2273                 0.1449                 0.2188
 IR Inten    --      6.8583               212.2158               377.6496

                     16                     17                     18
                      A                      A                      A
 Frequencies --    518.4389               603.6566               615.8475
 Red. masses --      3.5021                 1.4606                 2.6614
 Frc consts  --      0.5546                 0.3136                 0.5947
 IR Inten    --     44.2945                 2.4570                 2.8029

                     19                     20                     21
                      A                      A                      A
 Frequencies --    670.2738               690.9575               692.9220
 Red. masses --      5.1141                 3.7446                 4.4311
 Frc consts  --      1.3537                 1.0533                 1.2535
 IR Inten    --      1.8009                 5.1469                15.8499

                     22                     23                     24
                      A                      A                      A
 Frequencies --    703.7429               718.8831               760.8469
 Red. masses --      7.3966                 1.3495                 9.0666
 Frc consts  --      2.1583                 0.4109                 3.0924
 IR Inten    --     18.5246                 1.1643                44.1464

                     25                     26                     27
                      A                      A                      A
 Frequencies --    780.6821               818.6594               869.4476
 Red. masses --     10.9535                 7.6272                 3.6603
 Frc consts  --      3.9332                 3.0118                 1.6302
 IR Inten    --     18.6819                 5.4991                 2.2876

                     28                     29                     30
                      A                      A                      A
 Frequencies --    966.2997              1043.3487              1096.1357
 Red. masses --      9.9628                 2.6948                 2.5221
 Frc consts  --      5.4810                 1.7283                 1.7854
 IR Inten    --     69.6783                 5.6732                52.9937

                     31                     32                     33
                      A                      A                      A
 Frequencies --   1133.6489              1141.9286              1185.4877
 Red. masses --      2.5222                 2.0338                 5.6643
 Frc consts  --      1.9098                 1.5625                 4.6902
 IR Inten    --      6.2080                35.6916                61.1787

                     34                     35                     36
                      A                      A                      A
 Frequencies --   1243.1853              1316.7675              1418.2104
 Red. masses --      5.6978                 6.7304                 4.3963
 Frc consts  --      5.1883                 6.8756                 5.2098
 IR Inten    --     23.4433               921.5911                36.8205

                     37                     38                     39
                      A                      A                      A
 Frequencies --   1466.4740              1486.8454              1531.2788
 Red. masses --      1.8525                 3.2245                 2.8987
 Frc consts  --      2.3472                 4.1999                 4.0047
 IR Inten    --    219.5845               136.1743               403.1153

                     40                     41                     42
                      A                      A                      A
 Frequencies --   1572.5092              1607.9839              1641.4781
 Red. masses --      1.6046                 1.9407                 6.3746
 Frc consts  --      2.3377                 2.9564                10.1198
 IR Inten    --    267.0612               114.9454               315.0275

                     43                     44                     45
                      A                      A                      A
 Frequencies --   1661.4300              1676.5851              1719.6425
 Red. masses --      3.7284                 2.9695                 6.3215
 Frc consts  --      6.0637                 4.9180                11.0141
 IR Inten    --    141.3151               690.4511               468.8561

                     46                     47                     48
                      A                      A                      A
 Frequencies --   3535.7929              3537.4149              3602.7372
 Red. masses --      1.0436                 1.0510                 1.0464
 Frc consts  --      7.6873                 7.7484                 8.0021
 IR Inten    --     82.5612               139.6460                68.5181

                     49                     50                     51
                      A                      A                      A
 Frequencies --   3685.3944              3724.3321              3733.2122
 Red. masses --      1.1091                 1.1016                 1.0999
 Frc consts  --      8.8758                 9.0029                 9.0313
 IR Inten    --    208.5723                37.8789               141.2077

 - Thermochemistry -
 -------------------
 Temperature   298.150 Kelvin.  Pressure   1.00000 Atm.
 Atom     1 has atomic number  7 and mass  14.00307

 Molecular mass:   186.06137 amu.
 Principal axes and moments of inertia in atomic units:
                           1         2         3
     Eigenvalues --   896.576623829.833994725.01645
           X            1.00000  -0.00235  -0.00181
           Y            0.00236   1.00000   0.00197
           Z            0.00180  -0.00197   1.00000
 This molecule is an asymmetric top.
 Rotational symmetry number  1.
 Warning -- assumption of classical behavior for rotation
           may cause significant error
 Rotational temperatures (Kelvin)      0.09661     0.02262     0.01833
 Rotational constants (GHZ):           2.01292     0.47123     0.38195
 Zero-point vibrational energy     354456.7 (Joules/Mol)
                                   84.71719 (Kcal/Mol)
 Warning -- explicit consideration of  18 degrees of freedom as
           vibrations may cause significant error
 Vibrational temperatures:     66.75    96.88   140.81   202.19   230.32
          (Kelvin)            296.09   397.05   410.65   474.05   500.69
                              523.10   567.88   603.77   658.59   712.99
                              745.92   868.53   886.07   964.37   994.13
                              996.96  1012.53  1034.31  1094.69  1123.23
                             1177.87  1250.94  1390.29  1501.14  1577.09
                             1631.07  1642.98  1705.65  1788.66  1894.53
                             2040.49  2109.93  2139.24  2203.17  2262.49
                             2313.53  2361.72  2390.42  2412.23  2474.18
                             5087.21  5089.54  5183.53  5302.45  5358.48
                             5371.25

 Zero-point correction=                           0.135005 (Hartree/Particle)
 Thermal correction to Energy=                    0.146754
 Thermal correction to Enthalpy=                  0.147699
 Thermal correction to Gibbs Free Energy=         0.096774
 Sum of electronic and zero-point Energies=           -706.168819
 Sum of electronic and thermal Energies=              -706.157070
 Sum of electronic and thermal Enthalpies=            -706.156126
 Sum of electronic and thermal Free Energies=         -706.207050

                     E (Thermal)             CV                S
                      KCal/Mol        Cal/Mol-Kelvin    Cal/Mol-Kelvin
 Total                   92.090             43.821            107.179
 Electronic               0.000              0.000              0.000
 Translational            0.889              2.981             41.569
 Rotational               0.889              2.981             31.162
 Vibrational             90.312             37.860             34.448
 Vibration     1          0.595              1.979              4.965
 Vibration     2          0.598              1.970              4.230
 Vibration     3          0.603              1.951              3.496
 Vibration     4          0.615              1.913              2.797
 Vibration     5          0.622              1.891              2.549
 Vibration     6          0.640              1.832              2.081
 Vibration     7          0.678              1.718              1.559
 Vibration     8          0.683              1.701              1.501
 Vibration     9          0.712              1.617              1.263
 Vibration    10          0.726              1.579              1.175
 Vibration    11          0.737              1.547              1.107
 Vibration    12          0.762              1.482              0.982
 Vibration    13          0.782              1.428              0.893
 Vibration    14          0.816              1.344              0.773
 Vibration    15          0.851              1.260              0.669
 Vibration    16          0.873              1.209              0.614
 Vibration    17          0.962              1.024              0.443
 Vibration    18          0.975              0.998              0.423

 Optimization completed.
    -- Stationary point found.
 Normal termination of Gaussian 09 at Mon Aug 23 16:08:00 2021.
