 Gaussian 09, Revision E.01,
 Gaussian 09:  ES64L-G09RevE.01 30-Nov-2015

 -------------------------
 #P OPT Freq B3LYP/6-31G**
 -------------------------

 ------
 EVIXEM
 ------
 Symbolic Z-matrix:
 Charge =  0 Multiplicity = 1

 SCF Done:  E(RB3LYP) =  -654.652280311     A.U. after   16 cycles
 SCF Done:  E(RB3LYP) =  -654.742596586     A.U. after   13 cycles
 SCF Done:  E(RB3LYP) =  -654.771783155     A.U. after   15 cycles
 SCF Done:  E(RB3LYP) =  -654.775613138     A.U. after   15 cycles
 SCF Done:  E(RB3LYP) =  -654.768332596     A.U. after   17 cycles
 SCF Done:  E(RB3LYP) =  -654.776112439     A.U. after   11 cycles
 SCF Done:  E(RB3LYP) =  -654.776265457     A.U. after   13 cycles
 SCF Done:  E(RB3LYP) =  -654.776630132     A.U. after   13 cycles
 SCF Done:  E(RB3LYP) =  -654.776674609     A.U. after   12 cycles
 SCF Done:  E(RB3LYP) =  -654.776710501     A.U. after   13 cycles
 SCF Done:  E(RB3LYP) =  -654.776725528     A.U. after   12 cycles
 SCF Done:  E(RB3LYP) =  -654.776732770     A.U. after   12 cycles
 SCF Done:  E(RB3LYP) =  -654.776735083     A.U. after    9 cycles
 SCF Done:  E(RB3LYP) =  -654.776735721     A.U. after    8 cycles
 SCF Done:  E(RB3LYP) =  -654.776736048     A.U. after    9 cycles
 SCF Done:  E(RB3LYP) =  -654.776736248     A.U. after    9 cycles
 Optimization completed.
    -- Stationary point found.
 Normal termination of Gaussian 09 at Fri Aug 20 15:30:23 2021.

 ----------------------------------------------------------------------
 #P Geom=AllCheck Guess=TCheck SCRF=Check GenChk RB3LYP/6-31G(d,p) Freq
 ----------------------------------------------------------------------

 Structure from the checkpoint file:  "/public/home/users/caep010/.cache/gau_scr/Gau-50972.chk"
 ------
 EVIXEM
 ------
 Charge =  0 Multiplicity = 1

                         Standard orientation:
 ---------------------------------------------------------------------
 Center     Atomic      Atomic             Coordinates (Angstroms)
 Number     Number       Type             X           Y           Z
 ---------------------------------------------------------------------
      1          7           0        0.212601    1.124272    0.001017
      2          7           0       -1.126737    1.315429   -0.002682
      3          6           0       -1.558699    0.067776   -0.000075
      4          7           0       -2.989493   -0.228874   -0.002477
      5          8           0       -3.756469    0.728605   -0.007048
      6          7           0       -0.624315   -0.912826    0.005023
      7          8           0       -3.305138   -1.414183    0.000483
      8          6           0        0.489546   -0.201897    0.005398
      9          7           0        1.761685   -0.744061    0.010575
     10          1           0        0.892182    1.876128    0.000429
     11          6           0        2.923829    0.006143    0.007344
     12          6           0        4.211639   -0.784963   -0.013609
     13          1           0        4.889101   -0.365984    0.733384
     14          8           0        2.891045    1.230036    0.005590
     15          1           0        1.791785   -1.754175    0.013632
     16          1           0        4.072847   -1.851253    0.178398
     17          1           0        4.684503   -0.660314   -0.992586
 ---------------------------------------------------------------------

 SCF Done:  E(RB3LYP) =  -654.776736248     A.U. after    1 cycles

 The electronic state is 1-A.
 Alpha  occ. eigenvalues --  -19.18094 -19.17998 -19.16876 -14.57561 -14.44974
 Alpha  occ. eigenvalues --  -14.42886 -14.39741 -14.36330 -10.34520 -10.33340
 Alpha  occ. eigenvalues --  -10.30201 -10.23162  -1.22740  -1.12311  -1.08707
 Alpha  occ. eigenvalues --   -1.05439  -0.99229  -0.93626  -0.86947  -0.78693
 Alpha  occ. eigenvalues --   -0.76002  -0.68608  -0.66176  -0.59572  -0.58568
 Alpha  occ. eigenvalues --   -0.54462  -0.54217  -0.53930  -0.51246  -0.50953
 Alpha  occ. eigenvalues --   -0.49673  -0.48021  -0.45483  -0.44125  -0.41718
 Alpha  occ. eigenvalues --   -0.36919  -0.36256  -0.32946  -0.32101  -0.30741
 Alpha  occ. eigenvalues --   -0.30666  -0.30556  -0.28789  -0.27387
 Alpha virt. eigenvalues --   -0.08429  -0.04578   0.02613   0.03961   0.05769
 Alpha virt. eigenvalues --    0.09255   0.09808   0.12581   0.14047   0.14385
 Alpha virt. eigenvalues --    0.16308   0.18629   0.21840   0.24551   0.25845

 Mulliken charges:
               1
     1  N   -0.354461
     2  N   -0.268551
     3  C    0.629918
     4  N    0.360536
     5  O   -0.375220
     6  N   -0.514759
     7  O   -0.372966
     8  C    0.769523
     9  N   -0.625567
    10  H    0.318877
    11  C    0.581229
    12  C   -0.399892
    13  H    0.166749
    14  O   -0.499309
    15  H    0.297906
    16  H    0.119167
    17  H    0.166819
 Sum of Mulliken charges =  -0.00000

 Dipole moment (field-independent basis, Debye):
    X=              7.7628    Y=             -1.7437    Z=             -0.0427  Tot=              7.9564
 Quadrupole moment (field-independent basis, Debye-Ang):
   XX=            -72.6553   YY=            -69.8514   ZZ=            -64.7006
   XY=             -9.3070   XZ=             -0.2262   YZ=              0.0495

  Exact polarizability: 129.597  -0.416  83.338  -0.136  -0.028  38.896
 Approx polarizability: 166.613   2.470 178.792  -0.101  -0.179  59.403

                      1                      2                      3
                      A                      A                      A
 Frequencies --     37.3663                42.7702                67.2330
 Red. masses --      1.2395                 4.8997                 6.4186
 Frc consts  --      0.0010                 0.0053                 0.0171
 IR Inten    --      0.8255                 0.2989                 3.1745

                      4                      5                      6
                      A                      A                      A
 Frequencies --    110.2985               129.4643               200.6221
 Red. masses --      4.7869                 6.4386                 8.9322
 Frc consts  --      0.0343                 0.0636                 0.2118
 IR Inten    --      6.2955                 6.0566                 0.1220

                      7                      8                      9
                      A                      A                      A
 Frequencies --    232.8829               321.4625               369.6057
 Red. masses --      9.4798                 5.1572                 7.9629
 Frc consts  --      0.3029                 0.3140                 0.6409
 IR Inten    --      3.6762                 0.4345                 1.8639

                     10                     11                     12
                      A                      A                      A
 Frequencies --    378.4442               470.5739               538.4608
 Red. masses --      5.9831                 8.3514                 1.5611
 Frc consts  --      0.5049                 1.0896                 0.2667
 IR Inten    --      1.7311                 7.6020                64.3763

                     13                     14                     15
                      A                      A                      A
 Frequencies --    544.0862               619.1915               626.6428
 Red. masses --      5.4278                 2.7888                 2.7165
 Frc consts  --      0.9467                 0.6300                 0.6285
 IR Inten    --     10.1500                22.2810                23.5081

                     16                     17                     18
                      A                      A                      A
 Frequencies --    632.2136               711.0091               753.0254
 Red. masses --      5.1092                 3.2212                 1.7754
 Frc consts  --      1.2032                 0.9595                 0.5932
 IR Inten    --      1.4026                83.4906                25.4517

                     19                     20                     21
                      A                      A                      A
 Frequencies --    781.1715               804.2679               850.5967
 Red. masses --     11.8839                 5.6106                12.6552
 Frc consts  --      4.2727                 2.1382                 5.3947
 IR Inten    --      0.0157                16.0696                73.2479

                     22                     23                     24
                      A                      A                      A
 Frequencies --    968.3241              1018.2810              1026.3807
 Red. masses --      4.3486                 2.1006                 4.5457
 Frc consts  --      2.4024                 1.2833                 2.8214
 IR Inten    --      3.4530                18.3127                 9.8397

                     25                     26                     27
                      A                      A                      A
 Frequencies --   1059.3530              1090.6102              1166.2266
 Red. masses --      1.7000                 3.8174                 3.3615
 Frc consts  --      1.1240                 2.6752                 2.6937
 IR Inten    --     11.4280                22.0673                32.8039

                     28                     29                     30
                      A                      A                      A
 Frequencies --   1236.1276              1301.9867              1357.0140
 Red. masses --      1.9691                 2.4872                11.3720
 Frc consts  --      1.7728                 2.4841                12.3383
 IR Inten    --    115.5002                 9.1395               140.0666

                     31                     32                     33
                      A                      A                      A
 Frequencies --   1408.3687              1417.8134              1440.9810
 Red. masses --      2.5851                 1.8385                 5.3196
 Frc consts  --      3.0211                 2.1775                 6.5080
 IR Inten    --    102.9911               162.6778                 4.0348

                     34                     35                     36
                      A                      A                      A
 Frequencies --   1481.0592              1499.1695              1508.7952
 Red. masses --      1.0781                 1.3831                 2.3553
 Frc consts  --      1.3934                 1.8315                 3.1590
 IR Inten    --      9.9799                22.3729               100.0597

                     37                     38                     39
                      A                      A                      A
 Frequencies --   1550.1632              1645.5764              1666.7719
 Red. masses --      4.2593                 5.3105                13.5243
 Frc consts  --      6.0304                 8.4726                22.1369
 IR Inten    --     71.5686               490.7372               233.2516

                     40                     41                     42
                      A                      A                      A
 Frequencies --   1781.0410              3066.0940              3140.3924
 Red. masses --      9.5337                 1.0361                 1.1013
 Frc consts  --     17.8180                 5.7389                 6.3992
 IR Inten    --    169.1431                 2.1965                 5.1249

                     43                     44                     45
                      A                      A                      A
 Frequencies --   3159.3275              3614.3634              3639.9096
 Red. masses --      1.1041                 1.0837                 1.0783
 Frc consts  --      6.4931                 8.3409                 8.4173
 IR Inten    --      6.0094               165.5097                61.5485

 - Thermochemistry -
 -------------------
 Temperature   298.150 Kelvin.  Pressure   1.00000 Atm.
 Atom     1 has atomic number  7 and mass  14.00307

 Molecular mass:   171.03924 amu.
 Principal axes and moments of inertia in atomic units:
                           1         2         3
     Eigenvalues --   523.918964075.534364588.21322
           X            0.99990  -0.01409  -0.00028
           Y            0.01409   0.99990   0.00027
           Z            0.00028  -0.00027   1.00000
 This molecule is an asymmetric top.
 Rotational symmetry number  1.
 Warning -- assumption of classical behavior for rotation
           may cause significant error
 Rotational temperatures (Kelvin)      0.16532     0.02125     0.01888
 Rotational constants (GHZ):           3.44470     0.44282     0.39334
 Zero-point vibrational energy     307832.2 (Joules/Mol)
                                   73.57365 (Kcal/Mol)
 Warning -- explicit consideration of  14 degrees of freedom as
           vibrations may cause significant error
 Vibrational temperatures:     53.76    61.54    96.73   158.69   186.27
          (Kelvin)            288.65   335.07   462.51   531.78   544.50
                              677.05   774.72   782.82   890.88   901.60
                              909.61  1022.98  1083.43  1123.93  1157.16
                             1223.82  1393.20  1465.08  1476.73  1524.17
                             1569.14  1677.94  1778.51  1873.27  1952.44
                             2026.33  2039.91  2073.25  2130.91  2156.97
                             2170.82  2230.34  2367.61  2398.11  2562.52
                             4411.42  4518.32  4545.56  5200.26  5237.01

 Zero-point correction=                           0.117247 (Hartree/Particle)
 Thermal correction to Energy=                    0.127889
 Thermal correction to Enthalpy=                  0.128833
 Thermal correction to Gibbs Free Energy=         0.078829
 Sum of electronic and zero-point Energies=           -654.659489
 Sum of electronic and thermal Energies=              -654.648847
 Sum of electronic and thermal Enthalpies=            -654.647903
 Sum of electronic and thermal Free Energies=         -654.697907

                     E (Thermal)             CV                S
                      KCal/Mol        Cal/Mol-Kelvin    Cal/Mol-Kelvin
 Total                   80.252             37.175            105.243
 Electronic               0.000              0.000              0.000
 Translational            0.889              2.981             41.318
 Rotational               0.889              2.981             30.661
 Vibrational             78.474             31.214             33.264
 Vibration     1          0.594              1.982              5.394
 Vibration     2          0.595              1.980              5.126
 Vibration     3          0.598              1.970              4.233
 Vibration     4          0.606              1.941              3.264
 Vibration     5          0.612              1.924              2.954
 Vibration     6          0.638              1.839              2.127
 Vibration     7          0.654              1.791              1.857
 Vibration     8          0.707              1.632              1.303
 Vibration     9          0.742              1.535              1.081
 Vibration    10          0.749              1.516              1.045
 Vibration    11          0.828              1.315              0.736
 Vibration    12          0.893              1.165              0.569
 Vibration    13          0.899              1.153              0.557
 Vibration    14          0.979              0.991              0.418

 Normal termination of Gaussian 09 at Fri Aug 20 15:30:46 2021.
