 Gaussian 09, Revision E.01,
 Gaussian 09:  ES64L-G09RevE.01 30-Nov-2015

 -------------------------
 #P OPT Freq B3LYP/6-31G**
 -------------------------

 --------
 PEMCAM06
 --------
 Symbolic Z-matrix:
 Charge =  0 Multiplicity = 1

 SCF Done:  E(RB3LYP) =  -647.900191973     A.U. after   15 cycles
 SCF Done:  E(RB3LYP) =  -648.033068798     A.U. after   13 cycles
 SCF Done:  E(RB3LYP) =  -648.138235091     A.U. after   14 cycles
 SCF Done:  E(RB3LYP) =  -648.141152109     A.U. after   14 cycles
 SCF Done:  E(RB3LYP) =  -648.130894768     A.U. after   16 cycles
 SCF Done:  E(RB3LYP) =  -648.141620441     A.U. after   11 cycles
 SCF Done:  E(RB3LYP) =  -648.141779120     A.U. after   12 cycles
 SCF Done:  E(RB3LYP) =  -648.141797799     A.U. after   10 cycles
 SCF Done:  E(RB3LYP) =  -648.141800458     A.U. after    9 cycles
 SCF Done:  E(RB3LYP) =  -648.141802058     A.U. after    8 cycles
 SCF Done:  E(RB3LYP) =  -648.141804180     A.U. after    9 cycles
 SCF Done:  E(RB3LYP) =  -648.141806952     A.U. after   10 cycles
 SCF Done:  E(RB3LYP) =  -648.141811707     A.U. after   10 cycles
 SCF Done:  E(RB3LYP) =  -648.141816285     A.U. after   11 cycles
 SCF Done:  E(RB3LYP) =  -648.141817666     A.U. after    9 cycles
 SCF Done:  E(RB3LYP) =  -648.141817952     A.U. after    7 cycles
 SCF Done:  E(RB3LYP) =  -648.141818283     A.U. after    7 cycles
 SCF Done:  E(RB3LYP) =  -648.141818542     A.U. after    8 cycles
 SCF Done:  E(RB3LYP) =  -648.141818650     A.U. after    7 cycles
 Optimization completed.
    -- Stationary point found.
 Normal termination of Gaussian 09 at Fri Aug 20 15:56:00 2021.

 ----------------------------------------------------------------------
 #P Geom=AllCheck Guess=TCheck SCRF=Check GenChk RB3LYP/6-31G(d,p) Freq
 ----------------------------------------------------------------------

 Structure from the checkpoint file:  "/public/home/users/caep010/.cache/gau_scr/Gau-208362.chk"
 --------
 PEMCAM06
 --------
 Charge =  0 Multiplicity = 1

                         Standard orientation:
 ---------------------------------------------------------------------
 Center     Atomic      Atomic             Coordinates (Angstroms)
 Number     Number       Type             X           Y           Z
 ---------------------------------------------------------------------
      1          7           0       -3.690756   -0.128298   -0.000322
      2          6           0       -4.301147   -1.448681    0.000654
      3          6           0       -2.321979    0.003439   -0.000281
      4          6           0       -1.471816   -1.134988   -0.000516
      5          6           0       -0.096689   -0.998755   -0.000456
      6          6           0        0.525043    0.267872   -0.000210
      7          1           0       -1.895407   -2.131236   -0.000854
      8          1           0       -5.385801   -1.341643    0.001807
      9          1           0       -4.018626   -2.028659    0.888968
     10          1           0        0.510994   -1.898525   -0.000652
     11          6           0       -0.322250    1.393217   -0.000148
     12          1           0        0.120948    2.385597   -0.000045
     13          1           0       -4.020561   -2.029135   -0.887978
     14          6           0       -1.701873    1.277687   -0.000201
     15          1           0       -2.301472    2.178892   -0.000217
     16          6           0       -4.537417    1.054423    0.000317
     17          1           0       -5.583039    0.747053    0.000663
     18          1           0       -4.368259    1.676786   -0.888082
     19          1           0       -4.367526    1.676431    0.888832
     20          6           0        1.959385    0.464073   -0.000062
     21          6           0        2.916135   -0.482813    0.000053
     22          7           0        4.311279   -0.117149    0.000178
     23          8           0        4.630234    1.077496    0.000278
     24          1           0        2.781068   -1.554422    0.000001
     25          1           0        2.315975    1.491524   -0.000007
     26          8           0        5.117728   -1.055917    0.000182
 ---------------------------------------------------------------------

 SCF Done:  E(RB3LYP) =  -648.141818650     A.U. after    1 cycles

 The electronic state is 1-A.
 Alpha  occ. eigenvalues --  -19.15294 -19.15226 -14.54649 -14.38071 -10.25114
 Alpha  occ. eigenvalues --  -10.23924 -10.23896 -10.22641 -10.21866 -10.20768
 Alpha  occ. eigenvalues --  -10.20687 -10.20538 -10.20124 -10.19910  -1.19394
 Alpha  occ. eigenvalues --   -1.02055  -0.97173  -0.86789  -0.82487  -0.77180
 Alpha  occ. eigenvalues --   -0.76776  -0.74225  -0.70923  -0.65663  -0.62388
 Alpha  occ. eigenvalues --   -0.59254  -0.55912  -0.54514  -0.52402  -0.50423
 Alpha  occ. eigenvalues --   -0.50413  -0.49285  -0.48508  -0.47316  -0.46519
 Alpha  occ. eigenvalues --   -0.44196  -0.43766  -0.42933  -0.41999  -0.40251
 Alpha  occ. eigenvalues --   -0.39916  -0.38893  -0.38275  -0.34834  -0.33202
 Alpha  occ. eigenvalues --   -0.28325  -0.28282  -0.27523  -0.26706  -0.26430
 Alpha  occ. eigenvalues --   -0.20499
 Alpha virt. eigenvalues --   -0.07815  -0.01455  -0.00239   0.06491   0.06817
 Alpha virt. eigenvalues --    0.08601   0.09866   0.09963   0.11385   0.13721
 Alpha virt. eigenvalues --    0.14825   0.15065   0.15401   0.15451   0.16356

 Mulliken charges:
               1
     1  N   -0.507696
     2  C   -0.172542
     3  C    0.358924
     4  C   -0.133156
     5  C   -0.123462
     6  C    0.129841
     7  H    0.088696
     8  H    0.116624
     9  H    0.127332
    10  H    0.091621
    11  C   -0.140208
    12  H    0.096092
    13  H    0.127335
    14  C   -0.134058
    15  H    0.088242
    16  C   -0.172554
    17  H    0.116280
    18  H    0.127451
    19  H    0.127426
    20  C   -0.100448
    21  C    0.039119
    22  N    0.423706
    23  O   -0.424979
    24  H    0.119955
    25  H    0.137353
    26  O   -0.406892
 Sum of Mulliken charges =  -0.00000

 Dipole moment (field-independent basis, Debye):
    X=             -9.9905    Y=             -0.4404    Z=              0.0008  Tot=             10.0002
 Quadrupole moment (field-independent basis, Debye-Ang):
   XX=            -97.3000   YY=            -76.0004   ZZ=            -83.8499
   XY=              0.1158   XZ=             -0.0079   YZ=             -0.0001

  Exact polarizability: 299.117  -7.009 128.075   0.002   0.005  55.674
 Approx polarizability: 455.064 -24.163 234.761   0.017   0.010  84.639

                      1                      2                      3
                      A                      A                      A
 Frequencies --     36.9742                45.9180                67.6980
 Red. masses --      4.4025                 4.3834                 2.4447
 Frc consts  --      0.0035                 0.0054                 0.0066
 IR Inten    --      0.2463                 0.3404                 2.8674

                      4                      5                      6
                      A                      A                      A
 Frequencies --     72.8570                83.2121               132.2022
 Red. masses --      2.5360                 6.1720                 3.2488
 Frc consts  --      0.0079                 0.0252                 0.0335
 IR Inten    --      0.4072                 0.9572                 3.3014

                      7                      8                      9
                      A                      A                      A
 Frequencies --    166.1487               205.4301               217.4822
 Red. masses --      2.0280                 1.1289                 5.8579
 Frc consts  --      0.0330                 0.0281                 0.1632
 IR Inten    --      0.0422                 0.0000                 0.9754

                     10                     11                     12
                      A                      A                      A
 Frequencies --    236.8414               258.2503               336.6400
 Red. masses --      4.6985                 2.1941                 4.7905
 Frc consts  --      0.1553                 0.0862                 0.3199
 IR Inten    --      0.1455                 1.0846                 0.8857

                     13                     14                     15
                      A                      A                      A
 Frequencies --    388.3043               426.4988               431.0230
 Red. masses --      3.6048                 3.6783                 3.1201
 Frc consts  --      0.3202                 0.3942                 0.3415
 IR Inten    --      3.0574                 1.1819                 0.2333

                     16                     17                     18
                      A                      A                      A
 Frequencies --    484.2285               528.7225               546.5069
 Red. masses --      3.8429                 2.2815                 4.4571
 Frc consts  --      0.5309                 0.3758                 0.7843
 IR Inten    --      4.1582                 9.0211                 3.2081

                     19                     20                     21
                      A                      A                      A
 Frequencies --    568.1657               654.0506               710.5007
 Red. masses --      4.5195                 7.0168                 3.3367
 Frc consts  --      0.8596                 1.7685                 0.9924
 IR Inten    --     10.7837                 0.2094                 0.2753

                     22                     23                     24
                      A                      A                      A
 Frequencies --    719.2428               752.6500               766.8616
 Red. masses --      6.1875                 5.6360                 6.1766
 Frc consts  --      1.8859                 1.8811                 2.1401
 IR Inten    --     16.6947                 0.2586                 2.5042

                     25                     26                     27
                      A                      A                      A
 Frequencies --    812.3495               827.2275               841.2820
 Red. masses --      1.2871                 1.8859                 1.7989
 Frc consts  --      0.5004                 0.7604                 0.7501
 IR Inten    --      1.6335                73.5078                 0.4414

                     28                     29                     30
                      A                      A                      A
 Frequencies --    876.3225               954.5605               955.7389
 Red. masses --      5.0009                 1.3208                 1.2802
 Frc consts  --      2.2627                 0.7091                 0.6890
 IR Inten    --      3.6350                 0.0186                 0.8643

                     31                     32                     33
                      A                      A                      A
 Frequencies --    969.4319              1004.5275              1017.3964
 Red. masses --      3.1436                 5.9181                 1.2315
 Frc consts  --      1.7406                 3.5185                 0.7510
 IR Inten    --     23.8566               123.2621                21.7827

                     34                     35                     36
                      A                      A                      A
 Frequencies --   1021.0901              1085.4998              1141.2973
 Red. masses --      2.7839                 1.5236                 1.3084
 Frc consts  --      1.7101                 1.0577                 1.0042
 IR Inten    --      0.3359                27.7651                 0.0889

                     37                     38                     39
                      A                      A                      A
 Frequencies --   1149.2916              1162.6070              1205.2753
 Red. masses --      1.2345                 1.4937                 1.7057
 Frc consts  --      0.9607                 1.1896                 1.4599
 IR Inten    --      0.0001                 4.9472                41.2605

                     40                     41                     42
                      A                      A                      A
 Frequencies --   1214.5854              1247.1490              1282.6117
 Red. masses --      1.2469                 1.2179                 2.8736
 Frc consts  --      1.0838                 1.1160                 2.7853
 IR Inten    --    224.9233                17.7428                34.9277

                     43                     44                     45
                      A                      A                      A
 Frequencies --   1298.3570              1331.2545              1362.7378
 Red. masses --      1.5781                 2.2406                 1.4841
 Frc consts  --      1.5674                 2.3395                 1.6239
 IR Inten    --    127.8865                48.1884                34.4046

                     46                     47                     48
                      A                      A                      A
 Frequencies --   1378.5885              1382.1734              1411.0277
 Red. masses --      6.9761                 4.5762                 3.7869
 Frc consts  --      7.8115                 5.1508                 4.4423
 IR Inten    --   1188.7991               147.8009                23.3736

                     49                     50                     51
                      A                      A                      A
 Frequencies --   1456.9089              1487.9215              1493.3807
 Red. masses --      1.2110                 2.4689                 1.0387
 Frc consts  --      1.5145                 3.2204                 1.3648
 IR Inten    --      2.8783                24.8609                 0.0071

                     52                     53                     54
                      A                      A                      A
 Frequencies --   1502.1253              1502.5524              1531.0214
 Red. masses --      1.2579                 1.0445                 1.1090
 Frc consts  --      1.6723                 1.3894                 1.5316
 IR Inten    --     23.3231                10.3578                 5.1800

                     55                     56                     57
                      A                      A                      A
 Frequencies --   1545.1940              1573.6396              1591.5842
 Red. masses --      1.0895                 2.7234                 5.7965
 Frc consts  --      1.5327                 3.9734                 8.6511
 IR Inten    --     65.6226               284.6350                27.3451

                     58                     59                     60
                      A                      A                      A
 Frequencies --   1605.0782              1665.1808              1694.7476
 Red. masses --      9.9234                 5.3602                 5.6335
 Frc consts  --     15.0628                 8.7569                 9.5332
 IR Inten    --    134.7362               681.7192                58.8755

                     61                     62                     63
                      A                      A                      A
 Frequencies --   3011.7440              3019.0041              3062.2039
 Red. masses --      1.0376                 1.0408                 1.1032
 Frc consts  --      5.5452                 5.5894                 6.0949
 IR Inten    --     79.2133                88.1546                 4.7685

                     64                     65                     66
                      A                      A                      A
 Frequencies --   3063.6371              3147.3287              3159.6053
 Red. masses --      1.1060                 1.0978                 1.0953
 Frc consts  --      6.1164                 6.4073                 6.4426
 IR Inten    --     62.6882                 1.9914                34.8175

                     67                     68                     69
                      A                      A                      A
 Frequencies --   3183.9807              3188.7815              3194.1103
 Red. masses --      1.0897                 1.0886                 1.0889
 Frc consts  --      6.5088                 6.5216                 6.5452
 IR Inten    --      6.7076                 1.0252                 6.1521

                     70                     71                     72
                      A                      A                      A
 Frequencies --   3231.5004              3233.1482              3267.4428
 Red. masses --      1.0914                 1.0912                 1.0935
 Frc consts  --      6.7147                 6.7203                 6.8785
 IR Inten    --     11.1128                11.7622                 9.9914

 - Thermochemistry -
 -------------------
 Temperature   298.150 Kelvin.  Pressure   1.00000 Atm.
 Atom     1 has atomic number  7 and mass  14.00307

 Molecular mass:   192.08988 amu.
 Principal axes and moments of inertia in atomic units:
                           1         2         3
     Eigenvalues --   695.749707549.008868222.03079
           X            1.00000   0.00119  -0.00001
           Y           -0.00119   1.00000  -0.00000
           Z            0.00001   0.00000   1.00000
 This molecule is an asymmetric top.
 Rotational symmetry number  1.
 Warning -- assumption of classical behavior for rotation
           may cause significant error
 Rotational temperatures (Kelvin)      0.12449     0.01147     0.01053
 Rotational constants (GHZ):           2.59395     0.23907     0.21950
 Zero-point vibrational energy     551362.5 (Joules/Mol)
                                  131.77880 (Kcal/Mol)
 Warning -- explicit consideration of  19 degrees of freedom as
           vibrations may cause significant error
 Vibrational temperatures:     53.20    66.07    97.40   104.82   119.72
          (Kelvin)            190.21   239.05   295.57   312.91   340.76
                              371.56   484.35   558.68   613.64   620.15
                              696.70   760.71   786.30   817.46   941.03
                             1022.25  1034.83  1082.89  1103.34  1168.79
                             1190.19  1210.42  1260.83  1373.40  1375.09
                             1394.79  1445.29  1463.80  1469.12  1561.79
                             1642.07  1653.57  1672.73  1734.12  1747.52
                             1794.37  1845.39  1868.04  1915.38  1960.67
                             1983.48  1988.64  2030.15  2096.16  2140.78
                             2148.64  2161.22  2161.84  2202.80  2223.19
                             2264.11  2289.93  2309.35  2395.82  2438.36
                             4333.22  4343.67  4405.82  4407.88  4528.30
                             4545.96  4581.03  4587.94  4595.61  4649.40
                             4651.77  4701.12

 Zero-point correction=                           0.210003 (Hartree/Particle)
 Thermal correction to Energy=                    0.223605
 Thermal correction to Enthalpy=                  0.224549
 Thermal correction to Gibbs Free Energy=         0.168049
 Sum of electronic and zero-point Energies=           -647.931816
 Sum of electronic and thermal Energies=              -647.918213
 Sum of electronic and thermal Enthalpies=            -647.917269
 Sum of electronic and thermal Free Energies=         -647.973770

                     E (Thermal)             CV                S
                      KCal/Mol        Cal/Mol-Kelvin    Cal/Mol-Kelvin
 Total                  140.314             49.344            118.915
 Electronic               0.000              0.000              0.000
 Translational            0.889              2.981             41.664
 Rotational               0.889              2.981             32.135
 Vibrational            138.537             43.382             45.116
 Vibration     1          0.594              1.982              5.415
 Vibration     2          0.595              1.979              4.986
 Vibration     3          0.598              1.970              4.219
 Vibration     4          0.599              1.967              4.075
 Vibration     5          0.600              1.961              3.814
 Vibration     6          0.612              1.921              2.914
 Vibration     7          0.624              1.884              2.479
 Vibration     8          0.640              1.832              2.084
 Vibration     9          0.646              1.814              1.980
 Vibration    10          0.656              1.784              1.826
 Vibration    11          0.667              1.749              1.674
 Vibration    12          0.717              1.602              1.228
 Vibration    13          0.756              1.495              1.007
 Vibration    14          0.788              1.413              0.870
 Vibration    15          0.792              1.403              0.855
 Vibration    16          0.840              1.285              0.699
 Vibration    17          0.884              1.186              0.590
 Vibration    18          0.902              1.147              0.551
 Vibration    19          0.924              1.100              0.508

 Normal termination of Gaussian 09 at Fri Aug 20 15:56:46 2021.
