 Gaussian 09, Revision E.01,
 Gaussian 09:  ES64L-G09RevE.01 30-Nov-2015

 -------------------------
 #P OPT Freq B3LYP/6-31G**
 -------------------------

 ------
 ONBZAM
 ------
 Symbolic Z-matrix:
 Charge =  0 Multiplicity = 1

 SCF Done:  E(RB3LYP) =  -605.384033886     A.U. after   16 cycles
 SCF Done:  E(RB3LYP) =  -605.429683739     A.U. after   14 cycles
 SCF Done:  E(RB3LYP) =  -605.447239049     A.U. after   15 cycles
 SCF Done:  E(RB3LYP) =  -605.449388765     A.U. after   15 cycles
 SCF Done:  E(RB3LYP) =  -605.439812761     A.U. after   17 cycles
 SCF Done:  E(RB3LYP) =  -605.450981114     A.U. after   13 cycles
 SCF Done:  E(RB3LYP) =  -605.452395860     A.U. after   15 cycles
 SCF Done:  E(RB3LYP) =  -605.452817452     A.U. after   14 cycles
 SCF Done:  E(RB3LYP) =  -605.453096324     A.U. after   15 cycles
 SCF Done:  E(RB3LYP) =  -605.453389896     A.U. after   14 cycles
 SCF Done:  E(RB3LYP) =  -605.453503416     A.U. after   15 cycles
 SCF Done:  E(RB3LYP) =  -605.453573977     A.U. after   12 cycles
 SCF Done:  E(RB3LYP) =  -605.453585190     A.U. after   10 cycles
 SCF Done:  E(RB3LYP) =  -605.453591609     A.U. after   12 cycles
 SCF Done:  E(RB3LYP) =  -605.453594412     A.U. after   12 cycles
 SCF Done:  E(RB3LYP) =  -605.453596118     A.U. after   12 cycles
 SCF Done:  E(RB3LYP) =  -605.453596961     A.U. after   10 cycles
 Optimization completed.
    -- Stationary point found.
 Normal termination of Gaussian 09 at Fri Aug 20 15:41:51 2021.

 ----------------------------------------------------------------------
 #P Geom=AllCheck Guess=TCheck SCRF=Check GenChk RB3LYP/6-31G(d,p) Freq
 ----------------------------------------------------------------------

 Structure from the checkpoint file:  "/public/home/users/caep010/.cache/gau_scr/Gau-203432.chk"
 ------
 ONBZAM
 ------
 Charge =  0 Multiplicity = 1

                         Standard orientation:
 ---------------------------------------------------------------------
 Center     Atomic      Atomic             Coordinates (Angstroms)
 Number     Number       Type             X           Y           Z
 ---------------------------------------------------------------------
      1          6           0        0.565874    0.538629    0.009986
      2          7           0       -0.213869    1.786153    0.067079
      3          6           0        1.955236    0.647040    0.030240
      4          8           0        0.358823    2.834770   -0.220435
      5          8           0       -1.389046    1.704235    0.426336
      6          6           0        2.726205   -0.511523    0.044012
      7          6           0        2.101201   -1.759841    0.034101
      8          6           0        0.709356   -1.849429    0.000305
      9          6           0       -0.087551   -0.699467   -0.012883
     10          6           0       -1.585257   -0.870317   -0.210418
     11          7           0       -2.271873   -1.264062    0.905362
     12          1           0       -1.909183   -1.007676    1.811985
     13          1           0       -3.279199   -1.270458    0.812203
     14          1           0        2.402492    1.633026    0.041819
     15          1           0        3.808471   -0.438384    0.067372
     16          1           0        2.697458   -2.666990    0.046437
     17          8           0       -2.076834   -0.795738   -1.322196
     18          1           0        0.226228   -2.820848   -0.028600
 ---------------------------------------------------------------------

 SCF Done:  E(RB3LYP) =  -605.453596961     A.U. after    1 cycles

 The electronic state is 1-A.
 Alpha  occ. eigenvalues --  -19.18795 -19.18761 -19.12514 -14.57811 -14.36510
 Alpha  occ. eigenvalues --  -10.30638 -10.26442 -10.23776 -10.22760 -10.22647
 Alpha  occ. eigenvalues --  -10.22476 -10.22349  -1.23091  -1.05873  -1.04397
 Alpha  occ. eigenvalues --   -0.91590  -0.89789  -0.81520  -0.78830  -0.71346
 Alpha  occ. eigenvalues --   -0.65754  -0.62096  -0.59384  -0.56430  -0.54479
 Alpha  occ. eigenvalues --   -0.53737  -0.51831  -0.51182  -0.48473  -0.48101
 Alpha  occ. eigenvalues --   -0.46125  -0.42588  -0.40751  -0.40003  -0.39018
 Alpha  occ. eigenvalues --   -0.38259  -0.31587  -0.31238  -0.30232  -0.28911
 Alpha  occ. eigenvalues --   -0.28545  -0.28090  -0.25658
 Alpha virt. eigenvalues --   -0.09368  -0.03557  -0.01058   0.01810   0.07178
 Alpha virt. eigenvalues --    0.08219   0.12164   0.12709   0.13115   0.14697
 Alpha virt. eigenvalues --    0.16481   0.17939   0.22313   0.25553   0.26993

 Mulliken charges:
               1
     1  C    0.236995
     2  N    0.378393
     3  C   -0.084445
     4  O   -0.383535
     5  O   -0.399532
     6  C   -0.094607
     7  C   -0.065029
     8  C   -0.101597
     9  C    0.022536
    10  C    0.503291
    11  N   -0.585712
    12  H    0.275027
    13  H    0.282350
    14  H    0.140753
    15  H    0.109467
    16  H    0.108045
    17  O   -0.460166
    18  H    0.117765
 Sum of Mulliken charges =  -0.00000

 Dipole moment (field-independent basis, Debye):
    X=              2.8050    Y=             -3.3939    Z=              3.2837  Tot=              5.4927
 Quadrupole moment (field-independent basis, Debye-Ang):
   XX=            -58.4438   YY=            -70.9306   ZZ=            -68.5100
   XY=              0.7453   XZ=             -6.8738   YZ=             -2.1952

  Exact polarizability: 120.100  -1.074 104.973  -2.062  -2.979  51.248
 Approx polarizability: 201.555   6.469 180.769  -4.279  -9.728  90.562

                      1                      2                      3
                      A                      A                      A
 Frequencies --     23.2585                74.2062               106.5132
 Red. masses --      6.8893                 8.1174                 4.5288
 Frc consts  --      0.0022                 0.0263                 0.0303
 IR Inten    --      7.1080                 4.6566                 3.3315

                      4                      5                      6
                      A                      A                      A
 Frequencies --    156.4390               169.0228               263.7482
 Red. masses --      7.9981                 5.4542                 5.6230
 Frc consts  --      0.1153                 0.0918                 0.2305
 IR Inten    --      1.3755                 6.0002                 0.6659

                      7                      8                      9
                      A                      A                      A
 Frequencies --    322.8726               352.4007               413.8611
 Red. masses --      5.3348                 5.2855                 7.3803
 Frc consts  --      0.3277                 0.3867                 0.7448
 IR Inten    --      2.6427                 6.0037                 4.4991

                     10                     11                     12
                      A                      A                      A
 Frequencies --    428.4065               447.0730               532.3759
 Red. masses --      3.7704                 1.2620                 2.4120
 Frc consts  --      0.4077                 0.1486                 0.4028
 IR Inten    --      4.1855               115.5323                53.9373

                     13                     14                     15
                      A                      A                      A
 Frequencies --    570.1016               580.3581               614.5429
 Red. masses --      3.0285                 1.9975                 3.9718
 Frc consts  --      0.5799                 0.3964                 0.8838
 IR Inten    --      6.2800                59.3818                28.4439

                     16                     17                     18
                      A                      A                      A
 Frequencies --    682.0286               713.1957               761.2803
 Red. masses --      6.0165                 4.2767                 4.2907
 Frc consts  --      1.6489                 1.2817                 1.4651
 IR Inten    --     13.1807                26.7511                32.0730

                     19                     20                     21
                      A                      A                      A
 Frequencies --    763.6550               775.3099               804.1098
 Red. masses --      4.0574                 3.9200                 1.9536
 Frc consts  --      1.3941                 1.3883                 0.7443
 IR Inten    --      9.4399                21.2558                13.8836

                     22                     23                     24
                      A                      A                      A
 Frequencies --    868.3159               900.5574               976.3050
 Red. masses --      9.8707                 1.4090                 1.3669
 Frc consts  --      4.3848                 0.6733                 0.7677
 IR Inten    --     34.4309                 0.8270                 1.7210

                     25                     26                     27
                      A                      A                      A
 Frequencies --   1005.6974              1064.3472              1089.2045
 Red. masses --      1.2971                 2.4450                 4.9637
 Frc consts  --      0.7730                 1.6319                 3.4696
 IR Inten    --      0.4502                 2.1511                11.6483

                     28                     29                     30
                      A                      A                      A
 Frequencies --   1114.0115              1157.7815              1172.7920
 Red. masses --      1.8601                 2.1344                 1.8318
 Frc consts  --      1.3600                 1.6857                 1.4845
 IR Inten    --      3.5778                12.7301                 4.2011

                     31                     32                     33
                      A                      A                      A
 Frequencies --   1192.1763              1290.3536              1362.5797
 Red. masses --      1.1450                 1.6014                 6.4482
 Frc consts  --      0.9588                 1.5709                 7.0536
 IR Inten    --      0.2345                 9.0558                 3.0305

                     34                     35                     36
                      A                      A                      A
 Frequencies --   1371.5146              1402.4087              1478.6709
 Red. masses --      3.5362                12.1813                 2.2505
 Frc consts  --      3.9191                14.1154                 2.8992
 IR Inten    --    178.8138               271.4997                 5.2492

                     37                     38                     39
                      A                      A                      A
 Frequencies --   1518.8550              1619.2553              1630.5960
 Red. masses --      2.6036                 4.8988                 1.3801
 Frc consts  --      3.5388                 7.5678                 2.1620
 IR Inten    --      3.1929                31.0988               192.6110

                     40                     41                     42
                      A                      A                      A
 Frequencies --   1635.6555              1673.5640              1810.1763
 Red. masses --      6.3973                 8.3089                 9.8094
 Frc consts  --     10.0840                13.7113                18.9380
 IR Inten    --     82.5715                43.0749               282.1683

                     43                     44                     45
                      A                      A                      A
 Frequencies --   3194.7490              3207.6317              3216.1753
 Red. masses --      1.0868                 1.0914                 1.0964
 Frc consts  --      6.5357                 6.6160                 6.6819
 IR Inten    --      1.2194                 5.5776                10.5029

                     46                     47                     48
                      A                      A                      A
 Frequencies --   3244.1139              3573.9168              3704.3130
 Red. masses --      1.0932                 1.0463                 1.1022
 Frc consts  --      6.7788                 7.8743                 8.9109
 IR Inten    --      1.9627                43.3481                29.3138

 - Thermochemistry -
 -------------------
 Temperature   298.150 Kelvin.  Pressure   1.00000 Atm.
 Atom     1 has atomic number  6 and mass  12.00000

 Molecular mass:   166.03784 amu.
 Principal axes and moments of inertia in atomic units:
                           1         2         3
     Eigenvalues --  1517.979901760.253902938.22437
           X            0.99989   0.00441  -0.01389
           Y           -0.00453   0.99995  -0.00892
           Z            0.01385   0.00898   0.99986
 This molecule is an asymmetric top.
 Rotational symmetry number  1.
 Warning -- assumption of classical behavior for rotation
           may cause significant error
 Rotational temperatures (Kelvin)      0.05706     0.04921     0.02948
 Rotational constants (GHZ):           1.18891     1.02527     0.61423
 Zero-point vibrational energy     341118.0 (Joules/Mol)
                                   81.52916 (Kcal/Mol)
 Warning -- explicit consideration of  15 degrees of freedom as
           vibrations may cause significant error
 Vibrational temperatures:     33.46   106.77   153.25   225.08   243.19
          (Kelvin)            379.47   464.54   507.03   595.45   616.38
                              643.24   765.97   820.25   835.00   884.19
                              981.29  1026.13  1095.31  1098.73  1115.50
                             1156.93  1249.31  1295.70  1404.68  1446.97
                             1531.36  1567.12  1602.81  1665.79  1687.38
                             1715.27  1856.53  1960.45  1973.30  2017.75
                             2127.48  2185.29  2329.74  2346.06  2353.34
                             2407.88  2604.44  4596.53  4615.06  4627.35
                             4667.55  5142.06  5329.67

 Zero-point correction=                           0.129925 (Hartree/Particle)
 Thermal correction to Energy=                    0.140120
 Thermal correction to Enthalpy=                  0.141064
 Thermal correction to Gibbs Free Energy=         0.092801
 Sum of electronic and zero-point Energies=           -605.323672
 Sum of electronic and thermal Energies=              -605.313477
 Sum of electronic and thermal Enthalpies=            -605.312533
 Sum of electronic and thermal Free Energies=         -605.360796

                     E (Thermal)             CV                S
                      KCal/Mol        Cal/Mol-Kelvin    Cal/Mol-Kelvin
 Total                   87.926             37.780            101.577
 Electronic               0.000              0.000              0.000
 Translational            0.889              2.981             41.229
 Rotational               0.889              2.981             30.441
 Vibrational             86.149             31.818             29.907
 Vibration     1          0.593              1.985              6.335
 Vibration     2          0.599              1.966              4.039
 Vibration     3          0.605              1.944              3.331
 Vibration     4          0.620              1.895              2.592
 Vibration     5          0.625              1.881              2.446
 Vibration     6          0.670              1.739              1.637
 Vibration     7          0.708              1.630              1.296
 Vibration     8          0.729              1.570              1.155
 Vibration     9          0.777              1.440              0.913
 Vibration    10          0.790              1.408              0.864
 Vibration    11          0.806              1.367              0.805
 Vibration    12          0.887              1.178              0.582
 Vibration    13          0.926              1.096              0.504
 Vibration    14          0.937              1.074              0.485
 Vibration    15          0.974              1.001              0.425

 Normal termination of Gaussian 09 at Fri Aug 20 15:42:18 2021.
