 Gaussian 09, Revision E.01,
 Gaussian 09:  ES64L-G09RevE.01 30-Nov-2015

 -------------------------
 #P OPT Freq B3LYP/6-31G**
 -------------------------

 ------
 LEHNIW
 ------
 Symbolic Z-matrix:
 Charge =  0 Multiplicity = 1

 SCF Done:  E(RB3LYP) =  -658.509772914     A.U. after   16 cycles
 SCF Done:  E(RB3LYP) =  -658.595742208     A.U. after   15 cycles
 SCF Done:  E(RB3LYP) =  -658.621402244     A.U. after   15 cycles
 SCF Done:  E(RB3LYP) =  -658.622730922     A.U. after   15 cycles
 SCF Done:  E(RB3LYP) =  -658.618422170     A.U. after   16 cycles
 SCF Done:  E(RB3LYP) =  -658.623939383     A.U. after   11 cycles
 SCF Done:  E(RB3LYP) =  -658.624563343     A.U. after   13 cycles
 SCF Done:  E(RB3LYP) =  -658.624589469     A.U. after   11 cycles
 SCF Done:  E(RB3LYP) =  -658.624606628     A.U. after   12 cycles
 SCF Done:  E(RB3LYP) =  -658.624614615     A.U. after   10 cycles
 SCF Done:  E(RB3LYP) =  -658.624778786     A.U. after   10 cycles
 SCF Done:  E(RB3LYP) =  -658.624780223     A.U. after   11 cycles
 SCF Done:  E(RB3LYP) =  -658.624781532     A.U. after   11 cycles
 SCF Done:  E(RB3LYP) =  -658.624783247     A.U. after   12 cycles
 SCF Done:  E(RB3LYP) =  -658.624784422     A.U. after   12 cycles
 SCF Done:  E(RB3LYP) =  -658.624784730     A.U. after   11 cycles
 SCF Done:  E(RB3LYP) =  -658.624784813     A.U. after   10 cycles
 SCF Done:  E(RB3LYP) =  -658.624784835     A.U. after    9 cycles
 SCF Done:  E(RB3LYP) =  -658.624784849     A.U. after    8 cycles
 Optimization completed.
    -- Stationary point found.
 Normal termination of Gaussian 09 at Fri Aug 20 16:07:04 2021.

 ----------------------------------------------------------------------
 #P Geom=AllCheck Guess=TCheck SCRF=Check GenChk RB3LYP/6-31G(d,p) Freq
 ----------------------------------------------------------------------

 Structure from the checkpoint file:  "/public/home/users/caep010/.cache/gau_scr/Gau-159969.chk"
 ------
 LEHNIW
 ------
 Charge =  0 Multiplicity = 1

                         Standard orientation:
 ---------------------------------------------------------------------
 Center     Atomic      Atomic             Coordinates (Angstroms)
 Number     Number       Type             X           Y           Z
 ---------------------------------------------------------------------
      1          7           0        0.886568   -1.754669    0.000084
      2          6           0       -0.440502   -1.502442    0.000070
      3          6           0       -0.913550   -0.229395    0.000040
      4          6           0        0.011086    0.915466    0.000127
      5          7           0       -2.362273   -0.061508   -0.000060
      6          8           0       -3.040981   -1.097550    0.000197
      7          8           0       -2.820159    1.072805   -0.000452
      8          1           0       -1.121949   -2.343974    0.000081
      9          6           0        1.882567   -0.763057   -0.000060
     10          8           0        3.059020   -1.071036   -0.000224
     11          8           0       -0.272824    2.094807    0.000283
     12          1           0        1.240579   -2.701692    0.000093
     13          7           0        1.385452    0.530334    0.000029
     14          6           0        2.353833    1.635806   -0.000006
     15          1           0        3.351470    1.204456   -0.000741
     16          1           0        2.200837    2.255429    0.885242
     17          1           0        2.199789    2.256208   -0.884514
 ---------------------------------------------------------------------

 SCF Done:  E(RB3LYP) =  -658.624784849     A.U. after    1 cycles

 The electronic state is 1-A.
 Alpha  occ. eigenvalues --  -19.18667 -19.18212 -19.15935 -19.15115 -14.58332
 Alpha  occ. eigenvalues --  -14.44280 -14.41899 -10.36607 -10.33451 -10.30639
 Alpha  occ. eigenvalues --  -10.27213 -10.23553  -1.23104  -1.10558  -1.07157
 Alpha  occ. eigenvalues --   -1.05607  -1.01318  -0.96188  -0.86228  -0.75959
 Alpha  occ. eigenvalues --   -0.73749  -0.69317  -0.65154  -0.59926  -0.59365
 Alpha  occ. eigenvalues --   -0.54326  -0.54216  -0.51820  -0.51270  -0.50206
 Alpha  occ. eigenvalues --   -0.48358  -0.45980  -0.45363  -0.44097  -0.41696
 Alpha  occ. eigenvalues --   -0.41620  -0.38779  -0.32485  -0.31632  -0.31296
 Alpha  occ. eigenvalues --   -0.29760  -0.29622  -0.28342  -0.27822
 Alpha virt. eigenvalues --   -0.09808  -0.04858  -0.00430   0.03307   0.09949
 Alpha virt. eigenvalues --    0.10286   0.11294   0.12595   0.15154   0.15761
 Alpha virt. eigenvalues --    0.16534   0.18730   0.19208   0.24207   0.25929

 Mulliken charges:
               1
     1  N   -0.578259
     2  C    0.167503
     3  C    0.148771
     4  C    0.628031
     5  N    0.376309
     6  O   -0.419812
     7  O   -0.356967
     8  H    0.191399
     9  C    0.776289
    10  O   -0.487126
    11  O   -0.458963
    12  H    0.303930
    13  N   -0.571840
    14  C   -0.176891
    15  H    0.157450
    16  H    0.150079
    17  H    0.150098
 Sum of Mulliken charges =  -0.00000

 Dipole moment (field-independent basis, Debye):
    X=              3.1907    Y=             -3.5948    Z=              0.0002  Tot=              4.8066
 Quadrupole moment (field-independent basis, Debye-Ang):
   XX=            -85.5458   YY=            -62.4691   ZZ=            -64.4459
   XY=              6.6020   XZ=              0.0007   YZ=             -0.0006

  Exact polarizability: 113.883  -7.210  99.969  -0.000  -0.002  38.154
 Approx polarizability: 174.918 -31.956 199.701  -0.003  -0.009  58.482

                      1                      2                      3
                      A                      A                      A
 Frequencies --      8.6026                65.7377                83.2460
 Red. masses --     13.3983                 1.7919                 2.4407
 Frc consts  --      0.0006                 0.0046                 0.0100
 IR Inten    --      0.2772                 0.0100                 2.8841

                      4                      5                      6
                      A                      A                      A
 Frequencies --    123.2720               218.2716               220.0838
 Red. masses --      3.5947                 8.3857                 4.2322
 Frc consts  --      0.0322                 0.2354                 0.1208
 IR Inten    --     10.4093                 1.0897                 2.0240

                      7                      8                      9
                      A                      A                      A
 Frequencies --    269.7550               353.0944               358.3770
 Red. masses --      8.5699                13.3436                 3.4378
 Frc consts  --      0.3674                 0.9802                 0.2601
 IR Inten    --      4.9985                 2.9950                 4.5971

                     10                     11                     12
                      A                      A                      A
 Frequencies --    400.2391               422.9179               438.3896
 Red. masses --     10.9961                 3.4785                10.2663
 Frc consts  --      1.0378                 0.3666                 1.1625
 IR Inten    --     20.8669                 8.0351                13.1638

                     13                     14                     15
                      A                      A                      A
 Frequencies --    513.2786               623.5460               633.1376
 Red. masses --     10.1822                 8.4203                 1.1897
 Frc consts  --      1.5805                 1.9289                 0.2810
 IR Inten    --      3.9855                21.5189                82.4407

                     16                     17                     18
                      A                      A                      A
 Frequencies --    652.7400               723.1116               744.0610
 Red. masses --      4.6665                 8.7535                11.3785
 Frc consts  --      1.1714                 2.6968                 3.7115
 IR Inten    --      1.1590                 2.6278                39.1988

                     19                     20                     21
                      A                      A                      A
 Frequencies --    761.4129               768.6719               839.3281
 Red. masses --      8.9700                 9.9066                 9.8634
 Frc consts  --      3.0640                 3.4487                 4.0939
 IR Inten    --     14.4883                10.5334                21.7786

                     22                     23                     24
                      A                      A                      A
 Frequencies --    922.0246               982.6669              1021.4611
 Red. masses --      5.1397                 1.3658                 2.3252
 Frc consts  --      2.5744                 0.7771                 1.4294
 IR Inten    --     11.8132                 5.8726                 3.7483

                     25                     26                     27
                      A                      A                      A
 Frequencies --   1112.0365              1158.8705              1196.7643
 Red. masses --      2.6924                 1.2962                 5.5209
 Frc consts  --      1.9617                 1.0256                 4.6589
 IR Inten    --     42.3416                 0.2918                18.1617

                     28                     29                     30
                      A                      A                      A
 Frequencies --   1231.5890              1279.9920              1349.6557
 Red. masses --      1.9425                 2.6392                 2.7079
 Frc consts  --      1.7360                 2.5476                 2.9062
 IR Inten    --     48.2498                56.7625               204.1052

                     31                     32                     33
                      A                      A                      A
 Frequencies --   1380.9567              1409.8826              1456.2953
 Red. masses --      7.5055                 2.9907                 1.2772
 Frc consts  --      8.4332                 3.5025                 1.5959
 IR Inten    --    382.3966                49.2376                45.0565

                     34                     35                     36
                      A                      A                      A
 Frequencies --   1502.9496              1517.3305              1522.4483
 Red. masses --      1.0425                 1.0984                 2.9908
 Frc consts  --      1.3875                 1.4899                 4.0844
 IR Inten    --     10.0965                 3.5729               124.2150

                     37                     38                     39
                      A                      A                      A
 Frequencies --   1632.6836              1684.0313              1798.9732
 Red. masses --     12.9388                 6.9012                11.6897
 Frc consts  --     20.3211                11.5312                22.2896
 IR Inten    --     76.7117               153.0045               727.4581

                     40                     41                     42
                      A                      A                      A
 Frequencies --   1837.4387              3085.6180              3155.6381
 Red. masses --      9.7237                 1.0334                 1.1057
 Frc consts  --     19.3422                 5.7971                 6.4874
 IR Inten    --    236.3911                13.3699                 8.0712

                     43                     44                     45
                      A                      A                      A
 Frequencies --   3209.2307              3252.2985              3639.1444
 Red. masses --      1.1044                 1.0942                 1.0792
 Frc consts  --      6.7018                 6.8192                 8.4205
 IR Inten    --      0.4448                 7.6038               131.3498

 - Thermochemistry -
 -------------------
 Temperature   298.150 Kelvin.  Pressure   1.00000 Atm.
 Atom     1 has atomic number  7 and mass  14.00307

 Molecular mass:   171.02801 amu.
 Principal axes and moments of inertia in atomic units:
                           1         2         3
     Eigenvalues --   985.475472460.173183434.37637
           X            0.99949   0.03187   0.00000
           Y           -0.03187   0.99949  -0.00000
           Z           -0.00000   0.00000   1.00000
 This molecule is an asymmetric top.
 Rotational symmetry number  1.
 Warning -- assumption of classical behavior for rotation
           may cause significant error
 Rotational temperatures (Kelvin)      0.08789     0.03521     0.02522
 Rotational constants (GHZ):           1.83134     0.73358     0.52549
 Zero-point vibrational energy     308404.8 (Joules/Mol)
                                   73.71051 (Kcal/Mol)
 Warning -- explicit consideration of  13 degrees of freedom as
           vibrations may cause significant error
 Vibrational temperatures:     12.38    94.58   119.77   177.36   314.04
          (Kelvin)            316.65   388.12   508.02   515.62   575.85
                              608.48   630.74   738.49   897.14   910.94
                              939.15  1040.40  1070.54  1095.50  1105.95
                             1207.60  1326.59  1413.84  1469.65  1599.97
                             1667.35  1721.87  1771.98  1841.62  1941.85
                             1986.89  2028.50  2095.28  2162.41  2183.10
                             2190.46  2349.06  2422.94  2588.32  2643.66
                             4439.51  4540.25  4617.36  4679.33  5235.91

 Zero-point correction=                           0.117465 (Hartree/Particle)
 Thermal correction to Energy=                    0.127931
 Thermal correction to Enthalpy=                  0.128876
 Thermal correction to Gibbs Free Energy=         0.078798
 Sum of electronic and zero-point Energies=           -658.507320
 Sum of electronic and thermal Energies=              -658.496853
 Sum of electronic and thermal Enthalpies=            -658.495909
 Sum of electronic and thermal Free Energies=         -658.545987

                     E (Thermal)             CV                S
                      KCal/Mol        Cal/Mol-Kelvin    Cal/Mol-Kelvin
 Total                   80.278             37.245            105.398
 Electronic               0.000              0.000              0.000
 Translational            0.889              2.981             41.318
 Rotational               0.889              2.981             30.499
 Vibrational             78.501             31.283             33.581
 Vibration     1          0.593              1.987              8.310
 Vibration     2          0.597              1.971              4.277
 Vibration     3          0.600              1.961              3.813
 Vibration     4          0.610              1.930              3.048
 Vibration     5          0.646              1.813              1.973
 Vibration     6          0.647              1.810              1.958
 Vibration     7          0.674              1.729              1.598
 Vibration     8          0.729              1.569              1.152
 Vibration     9          0.733              1.558              1.129
 Vibration    10          0.766              1.470              0.962
 Vibration    11          0.785              1.420              0.882
 Vibration    12          0.799              1.386              0.832
 Vibration    13          0.868              1.221              0.626

 Optimization completed.
    -- Stationary point found.
 Normal termination of Gaussian 09 at Fri Aug 20 16:07:29 2021.
