 Gaussian 09, Revision E.01,
 Gaussian 09:  ES64L-G09RevE.01 30-Nov-2015

 -------------------------
 #P OPT Freq B3LYP/6-31G**
 -------------------------

 ------
 PESJIH
 ------
 Symbolic Z-matrix:
 Charge =  0 Multiplicity = 1

 SCF Done:  E(RB3LYP) =  -624.665580302     A.U. after   16 cycles
 SCF Done:  E(RB3LYP) =  -624.783646716     A.U. after   13 cycles
 SCF Done:  E(RB3LYP) =  -624.859229301     A.U. after   14 cycles
 SCF Done:  E(RB3LYP) =  -624.860440602     A.U. after   13 cycles
 SCF Done:  E(RB3LYP) =  -624.860604604     A.U. after   12 cycles
 SCF Done:  E(RB3LYP) =  -624.860253879     A.U. after   13 cycles
 SCF Done:  E(RB3LYP) =  -624.860621083     A.U. after    8 cycles
 SCF Done:  E(RB3LYP) =  -624.860643546     A.U. after   10 cycles
 SCF Done:  E(RB3LYP) =  -624.860649502     A.U. after    9 cycles
 SCF Done:  E(RB3LYP) =  -624.860653692     A.U. after    9 cycles
 SCF Done:  E(RB3LYP) =  -624.860655976     A.U. after    9 cycles
 SCF Done:  E(RB3LYP) =  -624.860657524     A.U. after    8 cycles
 SCF Done:  E(RB3LYP) =  -624.860657965     A.U. after    8 cycles
 SCF Done:  E(RB3LYP) =  -624.860658054     A.U. after    8 cycles
 Optimization completed.
    -- Stationary point found.
 Normal termination of Gaussian 09 at Fri Aug 20 15:53:21 2021.

 ----------------------------------------------------------------------
 #P Geom=AllCheck Guess=TCheck SCRF=Check GenChk RB3LYP/6-31G(d,p) Freq
 ----------------------------------------------------------------------

 Structure from the checkpoint file:  "/public/home/users/caep010/.cache/gau_scr/Gau-180453.chk"
 ------
 PESJIH
 ------
 Charge =  0 Multiplicity = 1

                         Standard orientation:
 ---------------------------------------------------------------------
 Center     Atomic      Atomic             Coordinates (Angstroms)
 Number     Number       Type             X           Y           Z
 ---------------------------------------------------------------------
      1          6           0        0.694313    0.490610    0.000293
      2          6           0       -0.237025    1.549895   -0.000171
      3          1           0        0.114626    2.578146   -0.000502
      4          7           0        2.041208    0.789495    0.000583
      5          6           0        0.232330   -0.841294    0.000561
      6          6           0       -1.128691   -1.099002    0.000360
      7          6           0       -2.037408   -0.037454   -0.000020
      8          1           0       -1.505559   -2.114136    0.000536
      9          1           0        0.952963   -1.648388    0.000879
     10          1           0        2.325394    1.765473    0.000777
     11          7           0        2.987634   -0.182776   -0.000040
     12          6           0        4.216890    0.176580    0.000114
     13          1           0        4.498839    1.239535    0.000718
     14          6           0        5.313787   -0.838734   -0.000670
     15          1           0        4.894646   -1.846736   -0.001141
     16          1           0        5.956901   -0.722059    0.880202
     17          1           0        5.956554   -0.721096   -0.881674
     18          7           0       -3.466830   -0.314836   -0.000147
     19          8           0       -4.241864    0.646461   -0.000172
     20          8           0       -3.826731   -1.495513   -0.000210
     21          6           0       -1.596566    1.287780   -0.000283
     22          1           0       -2.325454    2.088227   -0.000621
 ---------------------------------------------------------------------

 SCF Done:  E(RB3LYP) =  -624.860658054     A.U. after    1 cycles

 The electronic state is 1-A.
 Alpha  occ. eigenvalues --  -19.16215 -19.16202 -14.55468 -14.41388 -14.39129
 Alpha  occ. eigenvalues --  -10.25982 -10.24592 -10.23508 -10.21399 -10.21175
 Alpha  occ. eigenvalues --  -10.21021 -10.20446 -10.20244  -1.20446  -1.04062
 Alpha  occ. eigenvalues --   -1.03087  -0.89901  -0.86062  -0.78861  -0.76899
 Alpha  occ. eigenvalues --   -0.74336  -0.68061  -0.65190  -0.60523  -0.59481
 Alpha  occ. eigenvalues --   -0.55893  -0.54370  -0.53375  -0.51412  -0.49513
 Alpha  occ. eigenvalues --   -0.46201  -0.45778  -0.45563  -0.44215  -0.43353
 Alpha  occ. eigenvalues --   -0.42484  -0.41039  -0.40410  -0.37332  -0.36473
 Alpha  occ. eigenvalues --   -0.30473  -0.30008  -0.29276  -0.29139  -0.27330
 Alpha  occ. eigenvalues --   -0.27128  -0.21787
 Alpha virt. eigenvalues --   -0.07287  -0.02237  -0.01196   0.03232   0.05967
 Alpha virt. eigenvalues --    0.09115   0.09809   0.12541   0.14280   0.15032
 Alpha virt. eigenvalues --    0.15292   0.15744   0.16271   0.18029   0.19953

 Mulliken charges:
               1
     1  C    0.378442
     2  C   -0.143414
     3  H    0.088154
     4  N   -0.475648
     5  C   -0.115694
     6  C   -0.101846
     7  C    0.245153
     8  H    0.135478
     9  H    0.121707
    10  H    0.247508
    11  N   -0.192627
    12  C    0.114904
    13  H    0.076301
    14  C   -0.359704
    15  H    0.139299
    16  H    0.127141
    17  H    0.127147
    18  N    0.374804
    19  O   -0.413772
    20  O   -0.412241
    21  C   -0.095788
    22  H    0.134695
 Sum of Mulliken charges =  -0.00000

 Dipole moment (field-independent basis, Debye):
    X=              7.8528    Y=              2.4441    Z=              0.0007  Tot=              8.2243
 Quadrupole moment (field-independent basis, Debye-Ang):
   XX=            -82.1833   YY=            -68.7156   ZZ=            -75.9442
   XY=              0.9583   XZ=             -0.0001   YZ=             -0.0012

  Exact polarizability: 242.714   2.253 113.677   0.007  -0.004  45.832
 Approx polarizability: 352.830   8.948 213.568   0.021  -0.008  69.929

                      1                      2                      3
                      A                      A                      A
 Frequencies --     39.7619                73.8768                89.5810
 Red. masses --      5.4748                 6.0827                 4.4424
 Frc consts  --      0.0051                 0.0196                 0.0210
 IR Inten    --      0.1542                 1.1804                 0.3133

                      4                      5                      6
                      A                      A                      A
 Frequencies --    110.0000               121.0732               194.5348
 Red. masses --      2.2973                 2.7963                 1.4612
 Frc consts  --      0.0164                 0.0242                 0.0326
 IR Inten    --      0.3587                13.0078                 4.0792

                      7                      8                      9
                      A                      A                      A
 Frequencies --    224.6258               284.2866               287.5245
 Red. masses --      6.2497                 5.2571                 7.4185
 Frc consts  --      0.1858                 0.2503                 0.3613
 IR Inten    --      2.3589                 2.3723                 3.4611

                     10                     11                     12
                      A                      A                      A
 Frequencies --    318.6585               334.8512               425.7129
 Red. masses --      4.1349                 4.0659                 3.0095
 Frc consts  --      0.2474                 0.2686                 0.3214
 IR Inten    --      5.6510                12.8928                 2.9716

                     13                     14                     15
                      A                      A                      A
 Frequencies --    456.0947               482.2744               508.4402
 Red. masses --      1.2684                 6.0173                 2.4813
 Frc consts  --      0.1555                 0.8246                 0.3779
 IR Inten    --     54.6321                13.2684                19.0049

                     16                     17                     18
                      A                      A                      A
 Frequencies --    528.4740               574.9802               646.1464
 Red. masses --      7.1023                 3.8583                 6.8845
 Frc consts  --      1.1687                 0.7515                 1.6935
 IR Inten    --      3.5687                 0.3024                 1.0003

                     19                     20                     21
                      A                      A                      A
 Frequencies --    689.1231               701.9121               756.1081
 Red. masses --      6.8900                 3.8263                 6.6495
 Frc consts  --      1.9278                 1.1107                 2.2398
 IR Inten    --      0.3481                 9.8682                23.9782

                     22                     23                     24
                      A                      A                      A
 Frequencies --    826.1704               843.6003               863.9199
 Red. masses --      1.3301                 6.9899                 1.6046
 Frc consts  --      0.5349                 2.9309                 0.7056
 IR Inten    --      8.0109                34.2149                33.3363

                     25                     26                     27
                      A                      A                      A
 Frequencies --    885.1457               892.6123               958.7332
 Red. masses --      6.3858                 1.2736                 1.6727
 Frc consts  --      2.9478                 0.5979                 0.9058
 IR Inten    --      4.3446                 7.1463                 0.4007

                     28                     29                     30
                      A                      A                      A
 Frequencies --    973.8000               993.9048              1020.7467
 Red. masses --      1.3043                 1.2909                 2.7561
 Frc consts  --      0.7287                 0.7513                 1.6920
 IR Inten    --      0.7153                 0.0897                 4.0680

                     31                     32                     33
                      A                      A                      A
 Frequencies --   1071.2468              1127.1891              1135.9223
 Red. masses --      1.5189                 1.9231                 2.4073
 Frc consts  --      1.0270                 1.4396                 1.8301
 IR Inten    --      0.1767                38.0977               162.4099

                     34                     35                     36
                      A                      A                      A
 Frequencies --   1145.9262              1175.5342              1205.6605
 Red. masses --      1.7556                 3.0558                 1.3872
 Frc consts  --      1.3583                 2.4880                 1.1881
 IR Inten    --     39.4767               163.7698                 4.9569

                     37                     38                     39
                      A                      A                      A
 Frequencies --   1302.7627              1330.8410              1363.7430
 Red. masses --      1.6812                 1.6492                 1.8148
 Frc consts  --      1.6812                 1.7210                 1.9886
 IR Inten    --    201.7641               111.1964                65.1608

                     40                     41                     42
                      A                      A                      A
 Frequencies --   1386.2929              1396.2900              1425.1079
 Red. masses --      6.6936                 2.8102                 1.4358
 Frc consts  --      7.5792                 3.2281                 1.7180
 IR Inten    --    685.5708                26.5100                 3.2746

                     43                     44                     45
                      A                      A                      A
 Frequencies --   1470.6057              1489.0143              1492.5452
 Red. masses --      3.0295                 1.0445                 1.0739
 Frc consts  --      3.8602                 1.3644                 1.4095
 IR Inten    --      4.3880                 7.8221                 7.2999

                     46                     47                     48
                      A                      A                      A
 Frequencies --   1531.2907              1573.2280              1609.3426
 Red. masses --      2.0525                 3.0210                 5.5071
 Frc consts  --      2.8356                 4.4055                 8.4037
 IR Inten    --     20.2940               190.0030                93.8218

                     49                     50                     51
                      A                      A                      A
 Frequencies --   1657.4190              1660.3345              1722.8296
 Red. masses --      7.5427                 5.9587                 7.1706
 Frc consts  --     12.2078                 9.6781                12.5397
 IR Inten    --    158.4644               377.5443                 2.5625

                     52                     53                     54
                      A                      A                      A
 Frequencies --   3028.9843              3038.3856              3086.4929
 Red. masses --      1.0715                 1.0520                 1.1003
 Frc consts  --      5.7920                 5.7220                 6.1759
 IR Inten    --     46.7440                33.2509                16.3016

                     55                     56                     57
                      A                      A                      A
 Frequencies --   3151.9547              3183.1885              3238.4428
 Red. masses --      1.1001                 1.0901                 1.0886
 Frc consts  --      6.4394                 6.5080                 6.7262
 IR Inten    --      8.9983                12.0683                 0.2961

                     58                     59                     60
                      A                      A                      A
 Frequencies --   3246.0157              3250.2454              3513.2819
 Red. masses --      1.0926                 1.0947                 1.0755
 Frc consts  --      6.7828                 6.8134                 7.8216
 IR Inten    --      0.7729                 1.0665                19.0670

 - Thermochemistry -
 -------------------
 Temperature   298.150 Kelvin.  Pressure   1.00000 Atm.
 Atom     1 has atomic number  6 and mass  12.00000

 Molecular mass:   179.06948 amu.
 Principal axes and moments of inertia in atomic units:
                           1         2         3
     Eigenvalues --   590.920635921.247146500.99552
           X            0.99997  -0.00719  -0.00000
           Y            0.00719   0.99997  -0.00000
           Z            0.00000   0.00000   1.00000
 This molecule is an asymmetric top.
 Rotational symmetry number  1.
 Warning -- assumption of classical behavior for rotation
           may cause significant error
 Rotational temperatures (Kelvin)      0.14657     0.01463     0.01332
 Rotational constants (GHZ):           3.05412     0.30479     0.27761
 Zero-point vibrational energy     443316.9 (Joules/Mol)
                                  105.95527 (Kcal/Mol)
 Warning -- explicit consideration of  17 degrees of freedom as
           vibrations may cause significant error
 Vibrational temperatures:     57.21   106.29   128.89   158.27   174.20
          (Kelvin)            279.89   323.19   409.02   413.68   458.48
                              481.78   612.51   656.22   693.88   731.53
                              760.36   827.27   929.66   991.49  1009.89
                             1087.87  1188.67  1213.75  1242.99  1273.53
                             1284.27  1379.40  1401.08  1430.01  1468.63
                             1541.28  1621.77  1634.34  1648.73  1691.33
                             1734.67  1874.38  1914.78  1962.12  1994.56
                             2008.95  2050.41  2115.87  2142.36  2147.44
                             2203.18  2263.52  2315.48  2384.65  2388.85
                             2478.76  4358.03  4371.55  4440.77  4534.95
                             4579.89  4659.39  4670.29  4676.37  5054.82

 Zero-point correction=                           0.168850 (Hartree/Particle)
 Thermal correction to Energy=                    0.180751
 Thermal correction to Enthalpy=                  0.181695
 Thermal correction to Gibbs Free Energy=         0.129903
 Sum of electronic and zero-point Energies=           -624.691808
 Sum of electronic and thermal Energies=              -624.679907
 Sum of electronic and thermal Enthalpies=            -624.678963
 Sum of electronic and thermal Free Energies=         -624.730755

                     E (Thermal)             CV                S
                      KCal/Mol        Cal/Mol-Kelvin    Cal/Mol-Kelvin
 Total                  113.423             43.995            109.005
 Electronic               0.000              0.000              0.000
 Translational            0.889              2.981             41.455
 Rotational               0.889              2.981             31.498
 Vibrational            111.646             38.034             36.052
 Vibration     1          0.594              1.981              5.271
 Vibration     2          0.599              1.966              4.047
 Vibration     3          0.602              1.957              3.669
 Vibration     4          0.606              1.941              3.269
 Vibration     5          0.609              1.932              3.083
 Vibration     6          0.635              1.847              2.184
 Vibration     7          0.649              1.804              1.921
 Vibration     8          0.683              1.703              1.508
 Vibration     9          0.685              1.697              1.488
 Vibration    10          0.705              1.638              1.317
 Vibration    11          0.716              1.606              1.237
 Vibration    12          0.788              1.414              0.873
 Vibration    13          0.814              1.347              0.778
 Vibration    14          0.839              1.289              0.704
 Vibration    15          0.864              1.231              0.637
 Vibration    16          0.883              1.187              0.591
 Vibration    17          0.931              1.085              0.495

 Optimization completed.
    -- Stationary point found.
 Normal termination of Gaussian 09 at Fri Aug 20 15:53:53 2021.
