 Gaussian 09, Revision E.01,
 Gaussian 09:  ES64L-G09RevE.01 30-Nov-2015

 -------------------------
 #P OPT Freq B3LYP/6-31G**
 -------------------------

 ------
 JIZJIL
 ------
 Symbolic Z-matrix:
 Charge =  0 Multiplicity = 1

 SCF Done:  E(RB3LYP) =  -509.072973825     A.U. after   16 cycles
 SCF Done:  E(RB3LYP) =  -509.227485909     A.U. after   13 cycles
 SCF Done:  E(RB3LYP) =  -509.346241216     A.U. after   13 cycles
 SCF Done:  E(RB3LYP) =  -509.358522336     A.U. after   13 cycles
 SCF Done:  E(RB3LYP) =  -509.359186975     A.U. after   12 cycles
 SCF Done:  E(RB3LYP) =  -509.359241950     A.U. after   11 cycles
 SCF Done:  E(RB3LYP) =  -509.359258452     A.U. after    9 cycles
 SCF Done:  E(RB3LYP) =  -509.359259567     A.U. after    9 cycles
 SCF Done:  E(RB3LYP) =  -509.359258486     A.U. after    9 cycles
 SCF Done:  E(RB3LYP) =  -509.359260359     A.U. after    9 cycles
 Optimization completed.
    -- Stationary point found.
 Normal termination of Gaussian 09 at Fri Aug 20 15:59:30 2021.

 ----------------------------------------------------------------------
 #P Geom=AllCheck Guess=TCheck SCRF=Check GenChk RB3LYP/6-31G(d,p) Freq
 ----------------------------------------------------------------------

 Structure from the checkpoint file:  "/public/home/users/caep010/.cache/gau_scr/Gau-88903.chk"
 ------
 JIZJIL
 ------
 Charge =  0 Multiplicity = 1

                         Standard orientation:
 ---------------------------------------------------------------------
 Center     Atomic      Atomic             Coordinates (Angstroms)
 Number     Number       Type             X           Y           Z
 ---------------------------------------------------------------------
      1          6           0       -0.542443    1.960751    0.000006
      2          7           0       -0.547804    0.498034    0.000004
      3          6           0       -1.649430   -0.310239   -0.000002
      4          7           0       -1.325645   -1.603214   -0.000001
      5          6           0        0.030065   -1.648592    0.000007
      6          6           0        0.539980   -0.366688    0.000011
      7          1           0        0.591514   -2.570765    0.000009
      8          6           0       -3.056362    0.190372   -0.000010
      9          7           0        1.899173    0.039535    0.000021
     10          8           0        2.747817   -0.855834   -0.000017
     11          1           0       -3.716474   -0.677248   -0.000023
     12          8           0        2.152674    1.253644   -0.000013
     13          1           0       -1.576421    2.302933   -0.000008
     14          1           0       -0.027620    2.338606    0.883461
     15          1           0       -0.027596    2.338608   -0.883434
     16          1           0       -3.279117    0.795646   -0.885714
     17          1           0       -3.279131    0.795629    0.885703
 ---------------------------------------------------------------------

 SCF Done:  E(RB3LYP) =  -509.359260359     A.U. after    1 cycles

 The electronic state is 1-A.
 Alpha  occ. eigenvalues --  -19.17728 -19.17614 -14.57549 -14.42693 -14.33644
 Alpha  occ. eigenvalues --  -10.27732 -10.27269 -10.25079 -10.23406 -10.21554
 Alpha  occ. eigenvalues --   -1.22175  -1.05131  -1.04447  -0.91319  -0.83293
 Alpha  occ. eigenvalues --   -0.76824  -0.74134  -0.67969  -0.61397  -0.57907
 Alpha  occ. eigenvalues --   -0.55427  -0.53851  -0.50898  -0.50203  -0.49209
 Alpha  occ. eigenvalues --   -0.46274  -0.44555  -0.43024  -0.42830  -0.41148
 Alpha  occ. eigenvalues --   -0.40620  -0.31273  -0.30642  -0.29835  -0.29446
 Alpha  occ. eigenvalues --   -0.28350  -0.25481
 Alpha virt. eigenvalues --   -0.08345   0.01450   0.06021   0.07544   0.11366
 Alpha virt. eigenvalues --    0.11678   0.12248   0.15128   0.15174   0.16291
 Alpha virt. eigenvalues --    0.16303   0.16993   0.20392   0.23922   0.24987

 Mulliken charges:
               1
     1  C   -0.171604
     2  N   -0.487825
     3  C    0.466074
     4  N   -0.476425
     5  C    0.076299
     6  C    0.474671
     7  H    0.135055
     8  C   -0.390252
     9  N    0.336230
    10  O   -0.404155
    11  H    0.159621
    12  O   -0.430425
    13  H    0.122445
    14  H    0.159302
    15  H    0.159304
    16  H    0.135842
    17  H    0.135843
 Sum of Mulliken charges =  -0.00000

 Dipole moment (field-independent basis, Debye):
    X=             -4.1909    Y=              2.5053    Z=              0.0001  Tot=              4.8826
 Quadrupole moment (field-independent basis, Debye-Ang):
   XX=            -63.8773   YY=            -57.1916   ZZ=            -56.1269
   XY=             -6.5476   XZ=              0.0002   YZ=             -0.0000

  Exact polarizability: 110.572   0.064  88.151  -0.000   0.000  41.182
 Approx polarizability: 174.428   6.156 164.229  -0.000  -0.000  62.365

                      1                      2                      3
                      A                      A                      A
 Frequencies --     65.1049               115.0460               140.3668
 Red. masses --      6.0960                 3.8860                 1.0835
 Frc consts  --      0.0152                 0.0303                 0.0126
 IR Inten    --      1.4471                 0.9866                 0.0985

                      4                      5                      6
                      A                      A                      A
 Frequencies --    154.4719               214.5561               228.3618
 Red. masses --      1.0396                 5.8757                 4.3132
 Frc consts  --      0.0146                 0.1594                 0.1325
 IR Inten    --      0.0647                 4.2265                 0.0034

                      7                      8                      9
                      A                      A                      A
 Frequencies --    293.5990               320.5707               386.1108
 Red. masses --      4.1027                 2.6529                 4.9263
 Frc consts  --      0.2084                 0.1606                 0.4327
 IR Inten    --      8.1686                 2.9447                 2.1318

                     10                     11                     12
                      A                      A                      A
 Frequencies --    424.8772               570.5388               604.5740
 Red. masses --      7.5720                 4.3747                 4.3356
 Frc consts  --      0.8054                 0.8390                 0.9337
 IR Inten    --      0.2690                 4.2518                 0.2546

                     13                     14                     15
                      A                      A                      A
 Frequencies --    668.0128               687.0155               749.6870
 Red. masses --      5.1836                 4.8317                10.6287
 Frc consts  --      1.3629                 1.3436                 3.5196
 IR Inten    --      2.7610                 6.9271                14.1821

                     16                     17                     18
                      A                      A                      A
 Frequencies --    758.9414               834.4927               891.4847
 Red. masses --      4.5115                12.2413                 1.3957
 Frc consts  --      1.5311                 5.0225                 0.6536
 IR Inten    --      0.6334                33.3406                 7.0949

                     19                     20                     21
                      A                      A                      A
 Frequencies --    966.1375              1007.5067              1063.4612
 Red. masses --      3.1756                 1.5060                 1.5115
 Frc consts  --      1.7464                 0.9007                 1.0072
 IR Inten    --      5.1695                 6.0603                 2.4552

                     22                     23                     24
                      A                      A                      A
 Frequencies --   1151.9072              1154.1911              1189.4547
 Red. masses --      1.3033                 2.1853                 1.6195
 Frc consts  --      1.0189                 1.7152                 1.3500
 IR Inten    --      0.0722                 8.9845                16.4419

                     25                     26                     27
                      A                      A                      A
 Frequencies --   1229.2225              1314.1117              1376.6688
 Red. masses --      4.6115                 6.1088                 4.3049
 Frc consts  --      4.1054                 6.2154                 4.8069
 IR Inten    --     78.7875               114.5866                39.1455

                     28                     29                     30
                      A                      A                      A
 Frequencies --   1409.2247              1425.7062              1458.5480
 Red. masses --      1.8600                 2.6350                 1.9427
 Frc consts  --      2.1764                 3.1557                 2.4350
 IR Inten    --    128.0456                91.2580               111.8653

                     31                     32                     33
                      A                      A                      A
 Frequencies --   1481.5891              1487.3725              1500.5133
 Red. masses --      1.2367                 1.0411                 1.7785
 Frc consts  --      1.5995                 1.3570                 2.3593
 IR Inten    --     47.2751                15.5497                12.4688

                     34                     35                     36
                      A                      A                      A
 Frequencies --   1503.4640              1523.3050              1529.4176
 Red. masses --      1.0423                 2.6642                 1.7330
 Frc consts  --      1.3881                 3.6424                 2.3884
 IR Inten    --      0.9232               155.8281                47.1429

                     37                     38                     39
                      A                      A                      A
 Frequencies --   1564.6676              1613.9718              3047.2573
 Red. masses --      4.1887                11.3890                 1.0398
 Frc consts  --      6.0419                17.4795                 5.6890
 IR Inten    --     18.0640               189.7332                13.2942

                     40                     41                     42
                      A                      A                      A
 Frequencies --   3090.5428              3102.7978              3167.1947
 Red. masses --      1.0317                 1.1015                 1.0986
 Frc consts  --      5.8061                 6.2482                 6.4927
 IR Inten    --     16.4280                10.6536                 1.8709

                     43                     44                     45
                      A                      A                      A
 Frequencies --   3169.7392              3184.4375              3284.7198
 Red. masses --      1.1060                 1.1061                 1.0981
 Frc consts  --      6.5474                 6.6084                 6.9804
 IR Inten    --      4.2911                 7.0320                 0.5694

 - Thermochemistry -
 -------------------
 Temperature   298.150 Kelvin.  Pressure   1.00000 Atm.
 Atom     1 has atomic number  6 and mass  12.00000

 Molecular mass:   141.05383 amu.
 Principal axes and moments of inertia in atomic units:
                           1         2         3
     Eigenvalues --   663.393001667.533552308.39734
           X            0.99956  -0.02968   0.00000
           Y            0.02968   0.99956   0.00000
           Z           -0.00000  -0.00000   1.00000
 This molecule is an asymmetric top.
 Rotational symmetry number  1.
 Warning -- assumption of classical behavior for rotation
           may cause significant error
 Rotational temperatures (Kelvin)      0.13056     0.05194     0.03752
 Rotational constants (GHZ):           2.72047     1.08228     0.78182
 Zero-point vibrational energy     341563.4 (Joules/Mol)
                                   81.63561 (Kcal/Mol)
 Warning -- explicit consideration of  12 degrees of freedom as
           vibrations may cause significant error
 Vibrational temperatures:     93.67   165.53   201.96   222.25   308.70
          (Kelvin)            328.56   422.42   461.23   555.53   611.30
                              820.88   869.85   961.12   988.46  1078.63
                             1091.95  1200.65  1282.65  1390.05  1449.58
                             1530.08  1657.34  1660.62  1711.36  1768.57
                             1890.71  1980.72  2027.56  2051.27  2098.52
                             2131.67  2139.99  2158.90  2163.15  2191.69
                             2200.49  2251.20  2322.14  4384.32  4446.60
                             4464.23  4556.88  4560.54  4581.69  4725.97

 Zero-point correction=                           0.130095 (Hartree/Particle)
 Thermal correction to Energy=                    0.139363
 Thermal correction to Enthalpy=                  0.140308
 Thermal correction to Gibbs Free Energy=         0.095373
 Sum of electronic and zero-point Energies=           -509.229166
 Sum of electronic and thermal Energies=              -509.219897
 Sum of electronic and thermal Enthalpies=            -509.218953
 Sum of electronic and thermal Free Energies=         -509.263887

                     E (Thermal)             CV                S
                      KCal/Mol        Cal/Mol-Kelvin    Cal/Mol-Kelvin
 Total                   87.452             33.028             94.573
 Electronic               0.000              0.000              0.000
 Translational            0.889              2.981             40.743
 Rotational               0.889              2.981             29.325
 Vibrational             85.674             27.066             24.504
 Vibration     1          0.597              1.971              4.296
 Vibration     2          0.608              1.937              3.182
 Vibration     3          0.615              1.913              2.799
 Vibration     4          0.620              1.898              2.616
 Vibration     5          0.644              1.819              2.005
 Vibration     6          0.651              1.798              1.892
 Vibration     7          0.688              1.686              1.453
 Vibration     8          0.706              1.634              1.307
 Vibration     9          0.755              1.500              1.015
 Vibration    10          0.787              1.416              0.876
 Vibration    11          0.927              1.095              0.503
 Vibration    12          0.963              1.022              0.442

 Optimization completed.
    -- Stationary point found.
 Normal termination of Gaussian 09 at Fri Aug 20 15:59:50 2021.
