 Gaussian 09, Revision E.01,
 Gaussian 09:  ES64L-G09RevE.01 30-Nov-2015

 -------------------------
 #P OPT Freq B3LYP/6-31G**
 -------------------------

 ------
 HEHVAR
 ------
 Symbolic Z-matrix:
 Charge =  0 Multiplicity = 1

 SCF Done:  E(RB3LYP) =  -469.984702230     A.U. after   15 cycles
 SCF Done:  E(RB3LYP) =  -470.023848547     A.U. after   14 cycles
 SCF Done:  E(RB3LYP) =  -470.029512996     A.U. after   14 cycles
 SCF Done:  E(RB3LYP) =  -470.026783250     A.U. after   15 cycles
 SCF Done:  E(RB3LYP) =  -470.029906690     A.U. after   11 cycles
 SCF Done:  E(RB3LYP) =  -470.030244002     A.U. after   13 cycles
 SCF Done:  E(RB3LYP) =  -470.030518359     A.U. after   12 cycles
 SCF Done:  E(RB3LYP) =  -470.030564342     A.U. after   10 cycles
 SCF Done:  E(RB3LYP) =  -470.030569741     A.U. after   10 cycles
 SCF Done:  E(RB3LYP) =  -470.030573085     A.U. after    9 cycles
 SCF Done:  E(RB3LYP) =  -470.030574196     A.U. after    8 cycles
 SCF Done:  E(RB3LYP) =  -470.030575261     A.U. after    9 cycles
 SCF Done:  E(RB3LYP) =  -470.030576130     A.U. after    9 cycles
 SCF Done:  E(RB3LYP) =  -470.030576799     A.U. after    9 cycles
 SCF Done:  E(RB3LYP) =  -470.030576889     A.U. after    7 cycles
 Optimization completed.
    -- Stationary point found.
 Normal termination of Gaussian 09 at Fri Aug 20 15:57:22 2021.

 ----------------------------------------------------------------------
 #P Geom=AllCheck Guess=TCheck SCRF=Check GenChk RB3LYP/6-31G(d,p) Freq
 ----------------------------------------------------------------------

 Structure from the checkpoint file:  "/public/home/users/caep010/.cache/gau_scr/Gau-141112.chk"
 ------
 HEHVAR
 ------
 Charge =  0 Multiplicity = 1

                         Standard orientation:
 ---------------------------------------------------------------------
 Center     Atomic      Atomic             Coordinates (Angstroms)
 Number     Number       Type             X           Y           Z
 ---------------------------------------------------------------------
      1          7           0        2.001678   -0.097838    0.000020
      2          7           0        1.803359   -1.445567   -0.000048
      3          6           0        0.486939   -1.579833   -0.000070
      4          6           0       -0.144263   -0.313968   -0.000031
      5          7           0       -1.546897   -0.059898   -0.000012
      6          8           0       -1.917929    1.121174   -0.000190
      7          6           0        0.871416    0.641563    0.000037
      8          8           0       -2.301534   -1.035149    0.000191
      9          1           0        0.019545   -2.553009   -0.000127
     10          6           0        0.859984    2.132434    0.000073
     11          1           0        0.328671    2.511947    0.876493
     12          1           0        0.328984    2.512006   -0.876481
     13          1           0        2.948452    0.252455    0.000061
     14          1           0        1.878618    2.530340    0.000273
 ---------------------------------------------------------------------

 SCF Done:  E(RB3LYP) =  -470.030576889     A.U. after    1 cycles

 The electronic state is 1-A.
 Alpha  occ. eigenvalues --  -19.17432 -19.17406 -14.57069 -14.44124 -14.37769
 Alpha  occ. eigenvalues --  -10.27331 -10.24400 -10.23640 -10.22166  -1.21781
 Alpha  occ. eigenvalues --   -1.07510  -1.04379  -0.86209  -0.84688  -0.75992
 Alpha  occ. eigenvalues --   -0.71353  -0.63598  -0.58661  -0.54837  -0.53095
 Alpha  occ. eigenvalues --   -0.52586  -0.49649  -0.47563  -0.46566  -0.44244
 Alpha  occ. eigenvalues --   -0.42805  -0.41520  -0.32301  -0.30374  -0.30015
 Alpha  occ. eigenvalues --   -0.29218  -0.28504  -0.27339
 Alpha virt. eigenvalues --   -0.07574  -0.00503   0.05470   0.06415   0.09786
 Alpha virt. eigenvalues --    0.11733   0.14866   0.16464   0.16819   0.19466
 Alpha virt. eigenvalues --    0.21590   0.25346   0.27927   0.29172   0.34391

 Mulliken charges:
               1
     1  N   -0.388163
     2  N   -0.286831
     3  C    0.139668
     4  C    0.129104
     5  N    0.340468
     6  O   -0.425082
     7  C    0.384734
     8  O   -0.405346
     9  H    0.141709
    10  C   -0.352778
    11  H    0.162439
    12  H    0.162444
    13  H    0.288663
    14  H    0.108971
 Sum of Mulliken charges =  -0.00000

 Dipole moment (field-independent basis, Debye):
    X=              4.4637    Y=              2.2361    Z=              0.0001  Tot=              4.9925
 Quadrupole moment (field-independent basis, Debye-Ang):
   XX=            -54.4771   YY=            -49.8591   ZZ=            -50.2084
   XY=              6.6867   XZ=              0.0006   YZ=              0.0010

  Exact polarizability:  83.294   2.667  81.230  -0.000  -0.001  31.752
 Approx polarizability: 139.779   4.643 147.238  -0.001  -0.005  48.186

                      1                      2                      3
                      A                      A                      A
 Frequencies --     78.3150               104.7859               198.7582
 Red. masses --      4.7205                 1.1489                 4.9968
 Frc consts  --      0.0171                 0.0074                 0.1163
 IR Inten    --      0.3327                 0.6538                 4.1710

                      4                      5                      6
                      A                      A                      A
 Frequencies --    207.8985               261.9131               327.6923
 Red. masses --      5.9622                 3.6585                 3.9191
 Frc consts  --      0.1518                 0.1479                 0.2480
 IR Inten    --      1.9209                 0.0291                 0.2883

                      7                      8                      9
                      A                      A                      A
 Frequencies --    444.6526               547.3179               576.7712
 Red. masses --      9.3479                 5.5908                 1.6768
 Frc consts  --      1.0889                 0.9867                 0.3287
 IR Inten    --      0.7710                 1.7713                45.0990

                     10                     11                     12
                      A                      A                      A
 Frequencies --    646.0900               685.0268               694.2927
 Red. masses --      4.1169                 2.4221                 4.9897
 Frc consts  --      1.0125                 0.6697                 1.4171
 IR Inten    --      0.4474                38.5003                 1.3874

                     13                     14                     15
                      A                      A                      A
 Frequencies --    773.3312               838.1253               905.1229
 Red. masses --      8.1968                12.9451                 1.3358
 Frc consts  --      2.8882                 5.3577                 0.6448
 IR Inten    --     22.3983                41.7376                12.9647

                     16                     17                     18
                      A                      A                      A
 Frequencies --    944.7717              1011.4050              1061.4910
 Red. masses --      3.9671                 1.5535                 1.4814
 Frc consts  --      2.0863                 0.9363                 0.9835
 IR Inten    --     31.0055                 5.3414                 3.3226

                     19                     20                     21
                      A                      A                      A
 Frequencies --   1105.3207              1180.1314              1212.3182
 Red. masses --      3.4538                 6.0695                 1.7054
 Frc consts  --      2.4861                 4.9804                 1.4768
 IR Inten    --      6.8142                 5.9578                13.6647

                     22                     23                     24
                      A                      A                      A
 Frequencies --   1324.4611              1371.9840              1428.8738
 Red. masses --      1.7914                 8.2481                 1.3992
 Frc consts  --      1.8515                 9.1474                 1.6831
 IR Inten    --     11.6683               110.3390                 2.1542

                     25                     26                     27
                      A                      A                      A
 Frequencies --   1445.9039              1474.1312              1477.7798
 Red. masses --      4.2402                 3.2859                 1.0425
 Frc consts  --      5.2230                 4.2070                 1.3413
 IR Inten    --     79.3419               149.9172                 7.4598

                     28                     29                     30
                      A                      A                      A
 Frequencies --   1489.7941              1535.5219              1601.4339
 Red. masses --      1.5549                 2.6494                 6.4677
 Frc consts  --      2.0333                 3.6805                 9.7729
 IR Inten    --     40.6602                19.6300                74.1681

                     31                     32                     33
                      A                      A                      A
 Frequencies --   1637.1342              3061.7860              3137.1803
 Red. masses --      7.1873                 1.0360                 1.1012
 Frc consts  --     11.3496                 5.7223                 6.3857
 IR Inten    --    201.2282                10.3986                 1.5902

                     34                     35                     36
                      A                      A                      A
 Frequencies --   3141.0653              3288.9617              3659.6294
 Red. masses --      1.1034                 1.0979                 1.0816
 Frc consts  --      6.4139                 6.9971                 8.5347
 IR Inten    --     12.7775                 1.3148                88.0339

 - Thermochemistry -
 -------------------
 Temperature   298.150 Kelvin.  Pressure   1.00000 Atm.
 Atom     1 has atomic number  7 and mass  14.00307

 Molecular mass:   127.03818 amu.
 Principal axes and moments of inertia in atomic units:
                           1         2         3
     Eigenvalues --   657.294641121.527881767.76305
           X            0.99843   0.05607   0.00000
           Y           -0.05607   0.99843   0.00001
           Z           -0.00000  -0.00001   1.00000
 This molecule is an asymmetric top.
 Rotational symmetry number  1.
 Warning -- assumption of classical behavior for rotation
           may cause significant error
 Rotational temperatures (Kelvin)      0.13177     0.07723     0.04900
 Rotational constants (GHZ):           2.74571     1.60918     1.02092
 Zero-point vibrational energy     268449.0 (Joules/Mol)
                                   64.16086 (Kcal/Mol)
 Warning -- explicit consideration of   9 degrees of freedom as
           vibrations may cause significant error
 Vibrational temperatures:    112.68   150.76   285.97   299.12   376.83
          (Kelvin)            471.48   639.76   787.47   829.84   929.58
                              985.60   998.93  1112.65  1205.87  1302.27
                             1359.31  1455.18  1527.25  1590.31  1697.94
                             1744.25  1905.60  1973.98  2055.83  2080.33
                             2120.94  2126.19  2143.48  2209.27  2304.10
                             2355.47  4405.22  4513.70  4519.29  4732.08
                             5265.38

 Zero-point correction=                           0.102247 (Hartree/Particle)
 Thermal correction to Energy=                    0.109986
 Thermal correction to Enthalpy=                  0.110930
 Thermal correction to Gibbs Free Energy=         0.069363
 Sum of electronic and zero-point Energies=           -469.928330
 Sum of electronic and thermal Energies=              -469.920591
 Sum of electronic and thermal Enthalpies=            -469.919647
 Sum of electronic and thermal Free Energies=         -469.961214

                     E (Thermal)             CV                S
                      KCal/Mol        Cal/Mol-Kelvin    Cal/Mol-Kelvin
 Total                   69.017             27.573             87.486
 Electronic               0.000              0.000              0.000
 Translational            0.889              2.981             40.431
 Rotational               0.889              2.981             28.657
 Vibrational             67.240             21.611             18.398
 Vibration     1          0.600              1.964              3.933
 Vibration     2          0.605              1.945              3.363
 Vibration     3          0.637              1.842              2.145
 Vibration     4          0.641              1.829              2.062
 Vibration     5          0.669              1.743              1.649
 Vibration     6          0.711              1.620              1.271
 Vibration     7          0.804              1.373              0.812
 Vibration     8          0.903              1.146              0.550
 Vibration     9          0.933              1.082              0.491

 Optimization completed.
    -- Stationary point found.
 Normal termination of Gaussian 09 at Fri Aug 20 15:57:37 2021.
