 Gaussian 09, Revision E.01,
 Gaussian 09:  ES64L-G09RevE.01 30-Nov-2015

 -------------------------
 #P OPT Freq B3LYP/6-31G**
 -------------------------

 --------
 TOQMUH01
 --------
 Symbolic Z-matrix:
 Charge =  0 Multiplicity = 1

 SCF Done:  E(RB3LYP) =  -508.051767808     A.U. after   16 cycles
 SCF Done:  E(RB3LYP) =  -508.109111649     A.U. after   13 cycles
 SCF Done:  E(RB3LYP) =  -508.119770570     A.U. after   14 cycles
 SCF Done:  E(RB3LYP) =  -508.120084223     A.U. after   15 cycles
 SCF Done:  E(RB3LYP) =  -508.120543160     A.U. after   14 cycles
 SCF Done:  E(RB3LYP) =  -508.122184118     A.U. after   14 cycles
 SCF Done:  E(RB3LYP) =  -508.122306497     A.U. after   12 cycles
 SCF Done:  E(RB3LYP) =  -508.122312711     A.U. after   11 cycles
 SCF Done:  E(RB3LYP) =  -508.122326256     A.U. after   10 cycles
 SCF Done:  E(RB3LYP) =  -508.122326856     A.U. after    9 cycles
 SCF Done:  E(RB3LYP) =  -508.122327014     A.U. after    9 cycles
 SCF Done:  E(RB3LYP) =  -508.122327145     A.U. after    9 cycles
 SCF Done:  E(RB3LYP) =  -508.122327325     A.U. after    9 cycles
 SCF Done:  E(RB3LYP) =  -508.122327506     A.U. after   10 cycles
 SCF Done:  E(RB3LYP) =  -508.122327536     A.U. after    9 cycles
 Optimization completed.
    -- Stationary point found.
 Normal termination of Gaussian 09 at Fri Aug 20 16:03:36 2021.

 ----------------------------------------------------------------------
 #P Geom=AllCheck Guess=TCheck SCRF=Check GenChk RB3LYP/6-31G(d,p) Freq
 ----------------------------------------------------------------------

 Structure from the checkpoint file:  "/public/home/users/caep010/.cache/gau_scr/Gau-7773.chk"
 --------
 TOQMUH01
 --------
 Charge =  0 Multiplicity = 1

                         Standard orientation:
 ---------------------------------------------------------------------
 Center     Atomic      Atomic             Coordinates (Angstroms)
 Number     Number       Type             X           Y           Z
 ---------------------------------------------------------------------
      1          8           0       -2.116917    1.248668    0.000086
      2          7           0       -2.206689    0.008830    0.000006
      3          8           0       -3.274056   -0.598182   -0.000051
      4          7           0       -1.089875   -0.807755   -0.000012
      5          6           0        0.119296   -0.257298   -0.000015
      6          7           0        1.102323   -1.235942    0.000010
      7          1           0        0.735790   -2.181760    0.000088
      8          6           0        0.620735    1.088877   -0.000043
      9          6           0        1.974507    1.320924   -0.000032
     10          1           0        2.326752    2.348408   -0.000029
     11          6           0        2.922187    0.265560    0.000006
     12          1           0        3.988082    0.452645   -0.000003
     13          6           0        2.441024   -1.013636    0.000026
     14          1           0       -0.097504    1.891611   -0.000054
     15          1           0        3.067852   -1.897279    0.000036
 ---------------------------------------------------------------------

 SCF Done:  E(RB3LYP) =  -508.122327536     A.U. after    1 cycles

 The electronic state is 1-A.
 Alpha  occ. eigenvalues --  -19.14550 -19.14366 -14.56342 -14.43435 -14.34912
 Alpha  occ. eigenvalues --  -10.30429 -10.28287 -10.24141 -10.22920 -10.22098
 Alpha  occ. eigenvalues --   -1.20113  -1.03102  -1.01671  -0.92639  -0.84708
 Alpha  occ. eigenvalues --   -0.79976  -0.70165  -0.68257  -0.62947  -0.57535
 Alpha  occ. eigenvalues --   -0.54032  -0.52373  -0.51287  -0.50589  -0.48305
 Alpha  occ. eigenvalues --   -0.47629  -0.45934  -0.43000  -0.39700  -0.34271
 Alpha  occ. eigenvalues --   -0.33067  -0.32517  -0.28111  -0.27752  -0.24564
 Alpha  occ. eigenvalues --   -0.23547
 Alpha virt. eigenvalues --   -0.07575  -0.04731   0.01768   0.04562   0.09578
 Alpha virt. eigenvalues --    0.10790   0.11498   0.14147   0.16646   0.18114
 Alpha virt. eigenvalues --    0.20413   0.25086   0.25908   0.28550   0.32428

 Mulliken charges:
               1
     1  O   -0.448596
     2  N    0.588142
     3  O   -0.402052
     4  N   -0.464039
     5  C    0.572032
     6  N   -0.552170
     7  H    0.297179
     8  C   -0.106885
     9  C   -0.051983
    10  H    0.122000
    11  C   -0.134391
    12  H    0.115367
    13  C    0.158606
    14  H    0.163221
    15  H    0.143569
 Sum of Mulliken charges =  -0.00000

 Dipole moment (field-independent basis, Debye):
    X=              8.5658    Y=             -1.1065    Z=              0.0001  Tot=              8.6370
 Quadrupole moment (field-independent basis, Debye-Ang):
   XX=            -61.3536   YY=            -50.0720   ZZ=            -56.8921
   XY=             -2.8672   XZ=              0.0001   YZ=             -0.0007

  Exact polarizability: 142.439   4.923  82.569   0.001  -0.000  29.037
 Approx polarizability: 242.281  19.238 157.383   0.002   0.001  44.769

                      1                      2                      3
                      A                      A                      A
 Frequencies --     23.0768               104.3962               218.2200
 Red. masses --      9.0477                 5.8339                 6.9483
 Frc consts  --      0.0028                 0.0375                 0.1949
 IR Inten    --      0.0041                 0.1575                 1.0556

                      4                      5                      6
                      A                      A                      A
 Frequencies --    219.5723               364.4877               394.8071
 Red. masses --      7.1018                 7.2292                 3.3064
 Frc consts  --      0.2017                 0.5659                 0.3037
 IR Inten    --      1.7542                 0.3962                 0.8709

                      7                      8                      9
                      A                      A                      A
 Frequencies --    419.3782               499.6549               626.6777
 Red. masses --      9.7431                 2.4516                 6.5657
 Frc consts  --      1.0096                 0.3606                 1.5192
 IR Inten    --      3.0514                22.2981                 0.2524

                     10                     11                     12
                      A                      A                      A
 Frequencies --    670.1273               719.4760               768.7251
 Red. masses --      8.2181                 2.6319                 1.5021
 Frc consts  --      2.1744                 0.8027                 0.5230
 IR Inten    --      0.0921                15.4863                83.5983

                     13                     14                     15
                      A                      A                      A
 Frequencies --    769.8725               772.9169               786.4485
 Red. masses --     11.3025                 2.1285                 2.7320
 Frc consts  --      3.9470                 0.7492                 0.9956
 IR Inten    --     11.0996                43.2304                 2.1133

                     16                     17                     18
                      A                      A                      A
 Frequencies --    872.1590               874.7533               950.1977
 Red. masses --      7.5103                 1.4111                 1.2761
 Frc consts  --      3.3659                 0.6362                 0.6788
 IR Inten    --     53.1983                 9.2009                 0.2155

                     19                     20                     21
                      A                      A                      A
 Frequencies --    989.1343              1022.5908              1025.2159
 Red. masses --      6.4000                 1.2866                 6.3451
 Frc consts  --      3.6893                 0.7927                 3.9293
 IR Inten    --      0.5559                 0.1959                58.2468

                     22                     23                     24
                      A                      A                      A
 Frequencies --   1052.4483              1130.0753              1180.4043
 Red. masses --      2.3148                 1.5794                 1.1452
 Frc consts  --      1.5107                 1.1884                 0.9401
 IR Inten    --     20.2737                17.4052                74.4197

                     25                     26                     27
                      A                      A                      A
 Frequencies --   1242.6461              1318.0035              1333.7008
 Red. masses --      1.2267                 3.4678                 6.2518
 Frc consts  --      1.1160                 3.5492                 6.5519
 IR Inten    --     43.4778               204.1948               590.6696

                     28                     29                     30
                      A                      A                      A
 Frequencies --   1386.9201              1424.4222              1495.5811
 Red. masses --      1.7890                 3.0547                 2.4197
 Frc consts  --      2.0275                 3.6517                 3.1888
 IR Inten    --     19.6127                77.3033                46.7989

                     31                     32                     33
                      A                      A                      A
 Frequencies --   1574.2590              1617.6718              1633.8487
 Red. masses --      4.5517                 5.9396                 4.2989
 Frc consts  --      6.6463                 9.1577                 6.7614
 IR Inten    --    115.2003               478.9637               143.9578

                     34                     35                     36
                      A                      A                      A
 Frequencies --   1691.9369              3198.9454              3230.2546
 Red. masses --      5.6442                 1.0908                 1.0900
 Frc consts  --      9.5196                 6.5768                 6.7014
 IR Inten    --    231.9689                 7.7386                 0.5282

                     37                     38                     39
                      A                      A                      A
 Frequencies --   3247.9874              3305.8922              3588.5211
 Red. masses --      1.0988                 1.0923                 1.0777
 Frc consts  --      6.8295                 7.0332                 8.1770
 IR Inten    --      1.9350                13.2085                78.3751

 - Thermochemistry -
 -------------------
 Temperature   298.150 Kelvin.  Pressure   1.00000 Atm.
 Atom     1 has atomic number  8 and mass  15.99491

 Molecular mass:   139.03818 amu.
 Principal axes and moments of inertia in atomic units:
                           1         2         3
     Eigenvalues --   457.522772147.429232604.95200
           X            1.00000  -0.00063   0.00000
           Y            0.00063   1.00000  -0.00000
           Z           -0.00000   0.00000   1.00000
 This molecule is an asymmetric top.
 Rotational symmetry number  1.
 Warning -- assumption of classical behavior for rotation
           may cause significant error
 Rotational temperatures (Kelvin)      0.18931     0.04033     0.03325
 Rotational constants (GHZ):           3.94459     0.84042     0.69281
 Zero-point vibrational energy     285581.0 (Joules/Mol)
                                   68.25549 (Kcal/Mol)
 Warning -- explicit consideration of   8 degrees of freedom as
           vibrations may cause significant error
 Vibrational temperatures:     33.20   150.20   313.97   315.92   524.42
          (Kelvin)            568.04   603.39   718.89   901.65   964.16
                             1035.16  1106.02  1107.67  1112.05  1131.52
                             1254.84  1258.57  1367.12  1423.14  1471.28
                             1475.06  1514.24  1625.92  1698.34  1787.89
                             1896.31  1918.90  1995.47  2049.42  2151.81
                             2265.00  2327.47  2350.74  2434.32  4602.56
                             4647.61  4673.12  4756.44  5163.07

 Zero-point correction=                           0.108772 (Hartree/Particle)
 Thermal correction to Energy=                    0.116588
 Thermal correction to Enthalpy=                  0.117532
 Thermal correction to Gibbs Free Energy=         0.074628
 Sum of electronic and zero-point Energies=           -508.013555
 Sum of electronic and thermal Energies=              -508.005739
 Sum of electronic and thermal Enthalpies=            -508.004795
 Sum of electronic and thermal Free Energies=         -508.047699

                     E (Thermal)             CV                S
                      KCal/Mol        Cal/Mol-Kelvin    Cal/Mol-Kelvin
 Total                   73.160             28.978             90.299
 Electronic               0.000              0.000              0.000
 Translational            0.889              2.981             40.700
 Rotational               0.889              2.981             29.327
 Vibrational             71.383             23.017             20.271
 Vibration     1          0.593              1.985              6.350
 Vibration     2          0.605              1.946              3.371
 Vibration     3          0.646              1.813              1.974
 Vibration     4          0.647              1.811              1.963
 Vibration     5          0.738              1.545              1.103
 Vibration     6          0.762              1.481              0.982
 Vibration     7          0.782              1.428              0.894
 Vibration     8          0.855              1.251              0.659

 Optimization completed.
    -- Stationary point found.
 Normal termination of Gaussian 09 at Fri Aug 20 16:03:53 2021.
