 Gaussian 09, Revision E.01,
 Gaussian 09:  ES64L-G09RevE.01 30-Nov-2015

 -------------------------
 #P OPT Freq B3LYP/6-31G**
 -------------------------

 ------
 EKELAH
 ------
 Symbolic Z-matrix:
 Charge =  0 Multiplicity = 1

 SCF Done:  E(RB3LYP) =  -691.656379121     A.U. after   17 cycles
 SCF Done:  E(RB3LYP) =  -691.721217119     A.U. after   14 cycles
 SCF Done:  E(RB3LYP) =  -691.730939462     A.U. after   17 cycles
 SCF Done:  E(RB3LYP) =  -691.734087064     A.U. after   15 cycles
 SCF Done:  E(RB3LYP) =  -691.736216351     A.U. after   15 cycles
 SCF Done:  E(RB3LYP) =  -691.736541155     A.U. after   15 cycles
 SCF Done:  E(RB3LYP) =  -691.738389658     A.U. after   14 cycles
 SCF Done:  E(RB3LYP) =  -691.738498553     A.U. after   13 cycles
 SCF Done:  E(RB3LYP) =  -691.738566488     A.U. after   12 cycles
 SCF Done:  E(RB3LYP) =  -691.738670941     A.U. after   13 cycles
 SCF Done:  E(RB3LYP) =  -691.738891425     A.U. after   15 cycles
 SCF Done:  E(RB3LYP) =  -691.739358423     A.U. after   11 cycles
 SCF Done:  E(RB3LYP) =  -691.739510099     A.U. after   13 cycles
 SCF Done:  E(RB3LYP) =  -691.739545887     A.U. after   13 cycles
 SCF Done:  E(RB3LYP) =  -691.739575857     A.U. after   13 cycles
 SCF Done:  E(RB3LYP) =  -691.739620642     A.U. after   14 cycles
 SCF Done:  E(RB3LYP) =  -691.739623710     A.U. after   10 cycles
 SCF Done:  E(RB3LYP) =  -691.739624498     A.U. after   10 cycles
 SCF Done:  E(RB3LYP) =  -691.739624990     A.U. after    9 cycles
 Optimization completed.
    -- Stationary point found.
 Normal termination of Gaussian 09 at Fri Aug 20 16:01:32 2021.

 ----------------------------------------------------------------------
 #P Geom=AllCheck Guess=TCheck SCRF=Check GenChk RB3LYP/6-31G(d,p) Freq
 ----------------------------------------------------------------------

 Structure from the checkpoint file:  "/public/home/users/caep010/.cache/gau_scr/Gau-84759.chk"
 ------
 EKELAH
 ------
 Charge =  0 Multiplicity = 1

                         Standard orientation:
 ---------------------------------------------------------------------
 Center     Atomic      Atomic             Coordinates (Angstroms)
 Number     Number       Type             X           Y           Z
 ---------------------------------------------------------------------
      1          7           0        2.424297   -0.396521    0.034237
      2          7           0        1.066995   -0.716542   -0.088209
      3          6           0        0.225424    0.283769   -0.066077
      4          7           0        0.394362    1.612128    0.100789
      5          6           0       -0.830025    2.374078   -0.113800
      6          1           0       -0.865820    2.784727   -1.130389
      7          7           0       -1.161637    0.078341   -0.230946
      8          1           0        1.346733    1.956439    0.037293
      9          7           0       -1.823405   -1.157233   -0.021474
     10          1           0       -0.916647    3.195201    0.600892
     11          6           0       -1.909730    1.302388    0.099293
     12          1           0       -2.259717    1.262345    1.135479
     13          1           0       -2.769582    1.413681   -0.559606
     14          8           0        2.825996    0.786814    0.016042
     15          8           0        3.163330   -1.358644    0.136036
     16          8           0       -1.203741   -2.180470   -0.214412
     17          8           0       -3.004744   -1.037076    0.292216
 ---------------------------------------------------------------------

 SCF Done:  E(RB3LYP) =  -691.739624990     A.U. after    2 cycles

 The electronic state is 1-A.
 Alpha  occ. eigenvalues --  -19.20935 -19.20766 -19.18141 -19.17981 -14.63146
 Alpha  occ. eigenvalues --  -14.59626 -14.45772 -14.41097 -14.37690 -10.35761
 Alpha  occ. eigenvalues --  -10.28282 -10.28198  -1.27270  -1.23549  -1.09396
 Alpha  occ. eigenvalues --   -1.07448  -1.05113  -0.96459  -0.95250  -0.81717
 Alpha  occ. eigenvalues --   -0.76819  -0.70642  -0.67916  -0.60985  -0.58756
 Alpha  occ. eigenvalues --   -0.57618  -0.55460  -0.55175  -0.54420  -0.53954
 Alpha  occ. eigenvalues --   -0.52267  -0.51156  -0.48806  -0.44935  -0.44378
 Alpha  occ. eigenvalues --   -0.42989  -0.36298  -0.34936  -0.33591  -0.32059
 Alpha  occ. eigenvalues --   -0.31370  -0.30812  -0.30543  -0.28795  -0.27812
 Alpha virt. eigenvalues --   -0.08936  -0.06164   0.02403   0.04492   0.07935
 Alpha virt. eigenvalues --    0.08276   0.08490   0.10197   0.11917   0.13544
 Alpha virt. eigenvalues --    0.16264   0.17321   0.21439   0.21993   0.25196

 Mulliken charges:
               1
     1  N    0.598482
     2  N   -0.401706
     3  C    0.850881
     4  N   -0.567460
     5  C   -0.052210
     6  H    0.147046
     7  N   -0.423104
     8  H    0.318326
     9  N    0.654416
    10  H    0.146934
    11  C   -0.044014
    12  H    0.160211
    13  H    0.162479
    14  O   -0.454348
    15  O   -0.362707
    16  O   -0.338842
    17  O   -0.394385
 Sum of Mulliken charges =  -0.00000

 Dipole moment (field-independent basis, Debye):
    X=             -3.7363    Y=              6.7570    Z=             -0.1907  Tot=              7.7236
 Quadrupole moment (field-independent basis, Debye-Ang):
   XX=            -81.5966   YY=            -65.1914   ZZ=            -64.1236
   XY=             -3.8779   XZ=              0.2984   YZ=             -0.4175

  Exact polarizability: 111.225 -11.295  97.182  -1.374   0.116  42.020
 Approx polarizability: 172.665 -29.518 178.631  -5.448   2.647  65.896

                      1                      2                      3
                      A                      A                      A
 Frequencies --     40.2622                57.1192               103.1041
 Red. masses --     12.5227                12.9229                 6.3036
 Frc consts  --      0.0120                 0.0248                 0.0395
 IR Inten    --      0.0564                 0.8329                 0.2624

                      4                      5                      6
                      A                      A                      A
 Frequencies --    140.1347               166.9457               197.4675
 Red. masses --      4.8142                11.8015                 2.3847
 Frc consts  --      0.0557                 0.1938                 0.0548
 IR Inten    --      1.9235                 2.9816                 5.0631

                      7                      8                      9
                      A                      A                      A
 Frequencies --    256.3075               279.0068               361.5301
 Red. masses --      5.3024                 6.6279                10.4341
 Frc consts  --      0.2052                 0.3040                 0.8035
 IR Inten    --      4.8680                 0.2405                 0.7135

                     10                     11                     12
                      A                      A                      A
 Frequencies --    396.0391               490.1648               597.7666
 Red. masses --      9.7771                 9.5195                 5.5550
 Frc consts  --      0.9035                 1.3476                 1.1695
 IR Inten    --      4.0109                 1.4484                15.5000

                     13                     14                     15
                      A                      A                      A
 Frequencies --    644.5432               700.7395               717.3805
 Red. masses --      1.2358                 7.4616                 2.8266
 Frc consts  --      0.3025                 2.1587                 0.8571
 IR Inten    --     81.5371                15.5126                12.8838

                     16                     17                     18
                      A                      A                      A
 Frequencies --    744.8273               763.6676               779.3599
 Red. masses --      9.5298                10.0771                13.1474
 Frc consts  --      3.1149                 3.4625                 4.7051
 IR Inten    --     10.1320                24.9946                16.9490

                     19                     20                     21
                      A                      A                      A
 Frequencies --    800.6635               868.1766               910.6691
 Red. masses --     11.1814                 5.0165                 1.9321
 Frc consts  --      4.2233                 2.2278                 0.9441
 IR Inten    --     35.1434                26.1592                15.8706

                     22                     23                     24
                      A                      A                      A
 Frequencies --    947.6779               974.3490              1060.5009
 Red. masses --      7.4689                 2.4253                 1.8899
 Frc consts  --      3.9521                 1.3566                 1.2523
 IR Inten    --    160.8339                 4.3830                45.3844

                     25                     26                     27
                      A                      A                      A
 Frequencies --   1113.6357              1132.6375              1194.1438
 Red. masses --      3.6075                 1.9028                 4.0754
 Frc consts  --      2.6360                 1.4382                 3.4240
 IR Inten    --    167.2156                29.3914                10.2772

                     28                     29                     30
                      A                      A                      A
 Frequencies --   1230.2851              1245.9354              1285.7235
 Red. masses --      1.2296                 1.7634                 2.2750
 Frc consts  --      1.0965                 1.6128                 2.2158
 IR Inten    --     27.5446                94.2078               147.0688

                     31                     32                     33
                      A                      A                      A
 Frequencies --   1304.2231              1326.9946              1352.4448
 Red. masses --      3.5598                 3.9168                 1.9410
 Frc consts  --      3.5676                 4.0637                 2.0917
 IR Inten    --    482.7664                91.2191               216.2270

                     34                     35                     36
                      A                      A                      A
 Frequencies --   1408.6832              1447.2376              1529.3215
 Red. masses --      1.9909                 2.8632                 1.1252
 Frc consts  --      2.3276                 3.5333                 1.5505
 IR Inten    --     19.5155                50.5068                16.0437

                     37                     38                     39
                      A                      A                      A
 Frequencies --   1539.4629              1647.0215              1668.8464
 Red. masses --      1.1035                12.4431                 7.2847
 Frc consts  --      1.5409                19.8874                11.9535
 IR Inten    --     15.6490               519.8644                24.0845

                     40                     41                     42
                      A                      A                      A
 Frequencies --   1723.4922              3047.4093              3081.3725
 Red. masses --     10.7386                 1.0686                 1.0673
 Frc consts  --     18.7939                 5.8467                 5.9706
 IR Inten    --    628.1814                38.1457                 8.7202

                     43                     44                     45
                      A                      A                      A
 Frequencies --   3124.6801              3166.0427              3566.1289
 Red. masses --      1.0990                 1.1020                 1.0788
 Frc consts  --      6.3218                 6.5083                 8.0834
 IR Inten    --     15.1141                 5.0742               169.6568

 - Thermochemistry -
 -------------------
 Temperature   298.150 Kelvin.  Pressure   1.00000 Atm.
 Atom     1 has atomic number  7 and mass  14.00307

 Molecular mass:   175.03415 amu.
 Principal axes and moments of inertia in atomic units:
                           1         2         3
     Eigenvalues --  1135.508652490.101653575.50747
           X            0.99967  -0.02560  -0.00076
           Y            0.02560   0.99967  -0.00163
           Z            0.00081   0.00161   1.00000
 This molecule is an asymmetric top.
 Rotational symmetry number  1.
 Warning -- assumption of classical behavior for rotation
           may cause significant error
 Rotational temperatures (Kelvin)      0.07628     0.03478     0.02422
 Rotational constants (GHZ):           1.58937     0.72477     0.50475
 Zero-point vibrational energy     305850.0 (Joules/Mol)
                                   73.09990 (Kcal/Mol)
 Warning -- explicit consideration of  12 degrees of freedom as
           vibrations may cause significant error
 Vibrational temperatures:     57.93    82.18   148.34   201.62   240.20
          (Kelvin)            284.11   368.77   401.43   520.16   569.81
                              705.24   860.05   927.35  1008.21  1032.15
                             1071.64  1098.75  1121.32  1151.97  1249.11
                             1310.25  1363.50  1401.87  1525.82  1602.27
                             1629.61  1718.10  1770.10  1792.62  1849.87
                             1876.48  1909.25  1945.86  2026.78  2082.25
                             2200.35  2214.94  2369.69  2401.09  2479.72
                             4384.54  4433.40  4495.71  4555.22  5130.86

 Zero-point correction=                           0.116492 (Hartree/Particle)
 Thermal correction to Energy=                    0.126641
 Thermal correction to Enthalpy=                  0.127585
 Thermal correction to Gibbs Free Energy=         0.079103
 Sum of electronic and zero-point Energies=           -691.623133
 Sum of electronic and thermal Energies=              -691.612984
 Sum of electronic and thermal Enthalpies=            -691.612040
 Sum of electronic and thermal Free Energies=         -691.660522

                     E (Thermal)             CV                S
                      KCal/Mol        Cal/Mol-Kelvin    Cal/Mol-Kelvin
 Total                   79.469             35.953            102.039
 Electronic               0.000              0.000              0.000
 Translational            0.889              2.981             41.387
 Rotational               0.889              2.981             30.692
 Vibrational             77.691             29.991             29.960
 Vibration     1          0.594              1.981              5.246
 Vibration     2          0.596              1.975              4.554
 Vibration     3          0.605              1.947              3.395
 Vibration     4          0.615              1.913              2.802
 Vibration     5          0.624              1.883              2.470
 Vibration     6          0.637              1.843              2.157
 Vibration     7          0.666              1.752              1.687
 Vibration     8          0.679              1.712              1.540
 Vibration     9          0.736              1.552              1.116
 Vibration    10          0.763              1.479              0.977
 Vibration    11          0.846              1.272              0.683
 Vibration    12          0.956              1.037              0.454

 Normal termination of Gaussian 09 at Fri Aug 20 16:01:57 2021.
