 Gaussian 09, Revision E.01,
 Gaussian 09:  ES64L-G09RevE.01 30-Nov-2015

 -------------------------
 #P OPT Freq B3LYP/6-31G**
 -------------------------

 ------
 EZESUY
 ------
 Symbolic Z-matrix:
 Charge =  0 Multiplicity = 1

 SCF Done:  E(RB3LYP) =  -661.745211814     A.U. after   16 cycles
 SCF Done:  E(RB3LYP) =  -661.759243084     A.U. after   15 cycles
 SCF Done:  E(RB3LYP) =  -661.747386505     A.U. after   17 cycles
 SCF Done:  E(RB3LYP) =  -661.759885747     A.U. after   13 cycles
 SCF Done:  E(RB3LYP) =  -661.760750614     A.U. after   14 cycles
 SCF Done:  E(RB3LYP) =  -661.761490766     A.U. after   15 cycles
 SCF Done:  E(RB3LYP) =  -661.762183987     A.U. after   16 cycles
 SCF Done:  E(RB3LYP) =  -661.762527008     A.U. after   14 cycles
 SCF Done:  E(RB3LYP) =  -661.762555325     A.U. after   11 cycles
 SCF Done:  E(RB3LYP) =  -661.762566094     A.U. after   11 cycles
 SCF Done:  E(RB3LYP) =  -661.762568960     A.U. after   10 cycles
 SCF Done:  E(RB3LYP) =  -661.762569178     A.U. after    8 cycles
 SCF Done:  E(RB3LYP) =  -661.762569192     A.U. after    8 cycles
 Optimization completed.
    -- Stationary point found.
 Normal termination of Gaussian 09 at Fri Aug 20 15:37:40 2021.

 ----------------------------------------------------------------------
 #P Geom=AllCheck Guess=TCheck SCRF=Check GenChk RB3LYP/6-31G(d,p) Freq
 ----------------------------------------------------------------------

 Structure from the checkpoint file:  "/public/home/users/caep010/.cache/gau_scr/Gau-215971.chk"
 ------
 EZESUY
 ------
 Charge =  0 Multiplicity = 1

                         Standard orientation:
 ---------------------------------------------------------------------
 Center     Atomic      Atomic             Coordinates (Angstroms)
 Number     Number       Type             X           Y           Z
 ---------------------------------------------------------------------
      1          8           0       -0.122653    2.018809    1.050573
      2          7           0        0.747678    1.795527    0.215276
      3          6           0        1.177828    0.395684    0.027280
      4          6           0        0.255759   -0.664611    0.001909
      5          6           0       -1.207455   -0.487659   -0.036060
      6          6           0       -2.191559   -1.242702    0.654082
      7          7           0       -1.765847    0.435677   -0.825610
      8          6           0       -3.394616   -0.707503    0.244644
      9          6           0        2.553264    0.188743   -0.052038
     10          6           0        3.051569   -1.110073   -0.103461
     11          6           0        2.164295   -2.186990   -0.094787
     12          1           0        2.540554   -3.204520   -0.137085
     13          6           0        0.789878   -1.961206   -0.058074
     14          1           0        0.101838   -2.799278   -0.104628
     15          7           0       -3.087264    0.283069   -0.632984
     16          1           0       -3.722191    0.887179   -1.131010
     17          1           0       -4.415181   -0.943565    0.506903
     18          1           0       -2.037784   -2.036148    1.369247
     19          8           0        1.340516    2.653880   -0.438067
     20          1           0        3.211222    1.049493   -0.053355
     21          1           0        4.122894   -1.276681   -0.147859
 ---------------------------------------------------------------------

 SCF Done:  E(RB3LYP) =  -661.762569192     A.U. after    1 cycles

 The electronic state is 1-A.
 Alpha  occ. eigenvalues --  -19.17102 -19.17038 -14.56050 -14.41920 -14.35461
 Alpha  occ. eigenvalues --  -10.24896 -10.23279 -10.22720 -10.22134 -10.21387
 Alpha  occ. eigenvalues --  -10.21157 -10.20982 -10.20971 -10.19085  -1.21355
 Alpha  occ. eigenvalues --   -1.05307  -1.04080  -0.88876  -0.83264  -0.79897
 Alpha  occ. eigenvalues --   -0.79017  -0.76451  -0.69671  -0.64450  -0.62291
 Alpha  occ. eigenvalues --   -0.59719  -0.57616  -0.55315  -0.53990  -0.51998
 Alpha  occ. eigenvalues --   -0.50023  -0.49762  -0.46758  -0.45868  -0.44722
 Alpha  occ. eigenvalues --   -0.44166  -0.43570  -0.41781  -0.38679  -0.38338
 Alpha  occ. eigenvalues --   -0.36809  -0.30557  -0.29866  -0.29552  -0.29356
 Alpha  occ. eigenvalues --   -0.28236  -0.26228  -0.25530  -0.24131
 Alpha virt. eigenvalues --   -0.07078  -0.02818  -0.00729   0.01741   0.06808
 Alpha virt. eigenvalues --    0.07402   0.08520   0.12449   0.13484   0.14548
 Alpha virt. eigenvalues --    0.14611   0.15820   0.17641   0.19172   0.20998

 Mulliken charges:
               1
     1  O   -0.378457
     2  N    0.353724
     3  C    0.208796
     4  C    0.123993
     5  C    0.234940
     6  C   -0.196498
     7  N   -0.343603
     8  C    0.132938
     9  C   -0.075167
    10  C   -0.095691
    11  C   -0.072926
    12  H    0.099472
    13  C   -0.131158
    14  H    0.101348
    15  N   -0.310868
    16  H    0.283716
    17  H    0.120494
    18  H    0.096434
    19  O   -0.383630
    20  H    0.130131
    21  H    0.102011
 Sum of Mulliken charges =  -0.00000

 Dipole moment (field-independent basis, Debye):
    X=             -1.6680    Y=             -4.3025    Z=             -0.0267  Tot=              4.6146
 Quadrupole moment (field-independent basis, Debye-Ang):
   XX=            -52.9952   YY=            -81.5603   ZZ=            -81.6179
   XY=             -4.2810   XZ=              2.8835   YZ=             -2.1214

  Exact polarizability: 164.260  -6.863 121.766  -7.486 -10.291  59.231
 Approx polarizability: 257.834  -6.725 211.938 -23.418 -28.647 111.057

                      1                      2                      3
                      A                      A                      A
 Frequencies --     45.3821                71.3353                94.3008
 Red. masses --      6.5328                 7.5985                 4.6073
 Frc consts  --      0.0079                 0.0228                 0.0241
 IR Inten    --      0.4087                 1.9858                 4.7796

                      4                      5                      6
                      A                      A                      A
 Frequencies --    122.5411               155.6261               228.7939
 Red. masses --      6.2341                 6.1026                 6.8378
 Frc consts  --      0.0552                 0.0871                 0.2109
 IR Inten    --      0.5876                 0.2355                 2.9104

                      7                      8                      9
                      A                      A                      A
 Frequencies --    298.3732               320.1994               369.2477
 Red. masses --      6.2675                 6.9450                 6.3596
 Frc consts  --      0.3287                 0.4195                 0.5109
 IR Inten    --      1.5623                 1.7012                 0.9244

                     10                     11                     12
                      A                      A                      A
 Frequencies --    416.7768               458.4451               527.5250
 Red. masses --      4.9832                 5.5331                 1.7713
 Frc consts  --      0.5100                 0.6852                 0.2904
 IR Inten    --      2.0552                 2.4157                58.9455

                     13                     14                     15
                      A                      A                      A
 Frequencies --    545.2150               582.8710               658.3313
 Red. masses --      3.8856                 5.0441                 2.6642
 Frc consts  --      0.6805                 1.0097                 0.6803
 IR Inten    --      0.5885                 0.8838                12.2437

                     16                     17                     18
                      A                      A                      A
 Frequencies --    664.1521               712.0998               722.9373
 Red. masses --      3.8807                 5.5368                 5.9679
 Frc consts  --      1.0085                 1.6542                 1.8377
 IR Inten    --     11.8291                 2.3047                14.1531

                     19                     20                     21
                      A                      A                      A
 Frequencies --    737.0176               759.5512               777.3880
 Red. masses --      3.1169                 1.3592                 2.3342
 Frc consts  --      0.9975                 0.4620                 0.8311
 IR Inten    --     12.4654                75.6738                15.1421

                     22                     23                     24
                      A                      A                      A
 Frequencies --    802.1117               852.7649               863.4428
 Red. masses --      2.1751                 1.3128                10.1059
 Frc consts  --      0.8245                 0.5625                 4.4391
 IR Inten    --      9.6190                 2.4129                31.1425

                     25                     26                     27
                      A                      A                      A
 Frequencies --    898.5266               943.7288               959.9179
 Red. masses --      1.4473                 5.4111                 4.6821
 Frc consts  --      0.6885                 2.8394                 2.5419
 IR Inten    --      0.3041                 3.1504                14.4536

                     28                     29                     30
                      A                      A                      A
 Frequencies --    968.2734               997.4929              1059.8815
 Red. masses --      1.3739                 1.2849                 2.0711
 Frc consts  --      0.7589                 0.7533                 1.3708
 IR Inten    --      1.5967                 0.5849                10.2910

                     31                     32                     33
                      A                      A                      A
 Frequencies --   1069.1603              1086.0420              1114.0047
 Red. masses --      2.3034                 2.0183                 2.3131
 Frc consts  --      1.5514                 1.4026                 1.6913
 IR Inten    --      1.7761                12.6570                17.3658

                     34                     35                     36
                      A                      A                      A
 Frequencies --   1151.6719              1169.8934              1190.8034
 Red. masses --      2.3385                 1.9513                 1.1073
 Frc consts  --      1.8274                 1.5735                 0.9251
 IR Inten    --      5.6480                 5.2499                 0.4021

                     37                     38                     39
                      A                      A                      A
 Frequencies --   1216.7131              1292.6371              1321.7986
 Red. masses --      2.2308                 1.5965                 2.6834
 Frc consts  --      1.9457                 1.5717                 2.7623
 IR Inten    --      7.7795                 0.7486                 2.9627

                     40                     41                     42
                      A                      A                      A
 Frequencies --   1354.9757              1400.9047              1413.1007
 Red. masses --      5.1667                 6.0250                14.3452
 Frc consts  --      5.5889                 6.9667                16.8772
 IR Inten    --     14.5562                22.1822               194.0046

                     43                     44                     45
                      A                      A                      A
 Frequencies --   1470.9112              1480.6374              1494.1591
 Red. masses --      2.5397                 2.4306                 2.7225
 Frc consts  --      3.2375                 3.1395                 3.5811
 IR Inten    --      6.4988                 1.7311                 7.0368

                     46                     47                     48
                      A                      A                      A
 Frequencies --   1542.6046              1578.1510              1623.4004
 Red. masses --      3.1162                 4.0942                 6.6078
 Frc consts  --      4.3690                 6.0078                10.2603
 IR Inten    --     13.3102                 6.5724                33.5472

                     49                     50                     51
                      A                      A                      A
 Frequencies --   1641.8889              1670.4809              3191.8088
 Red. masses --      8.6291                 8.0905                 1.0864
 Frc consts  --     13.7057                13.3017                 6.5208
 IR Inten    --    137.9148                83.9519                 2.0385

                     52                     53                     54
                      A                      A                      A
 Frequencies --   3204.9001              3213.8695              3234.0537
 Red. masses --      1.0908                 1.0960                 1.0940
 Frc consts  --      6.6011                 6.6700                 6.7415
 IR Inten    --      8.9892                13.0539                 1.8304

                     55                     56                     57
                      A                      A                      A
 Frequencies --   3270.0149              3288.0309              3676.3633
 Red. masses --      1.0912                 1.1055                 1.0818
 Frc consts  --      6.8748                 7.0414                 8.6146
 IR Inten    --      0.5451                 0.7154               100.3539

 - Thermochemistry -
 -------------------
 Temperature   298.150 Kelvin.  Pressure   1.00000 Atm.
 Atom     1 has atomic number  8 and mass  15.99491

 Molecular mass:   189.05383 amu.
 Principal axes and moments of inertia in atomic units:
                           1         2         3
     Eigenvalues --  1616.754372915.920274202.93185
           X            0.99989  -0.01445  -0.00264
           Y            0.01443   0.99985  -0.00936
           Z            0.00277   0.00932   0.99995
 This molecule is an asymmetric top.
 Rotational symmetry number  1.
 Warning -- assumption of classical behavior for rotation
           may cause significant error
 Rotational temperatures (Kelvin)      0.05357     0.02970     0.02061
 Rotational constants (GHZ):           1.11627     0.61893     0.42940
 Zero-point vibrational energy     406594.1 (Joules/Mol)
                                   97.17833 (Kcal/Mol)
 Warning -- explicit consideration of  14 degrees of freedom as
           vibrations may cause significant error
 Vibrational temperatures:     65.29   102.64   135.68   176.31   223.91
          (Kelvin)            329.18   429.29   460.69   531.26   599.65
                              659.60   758.99   784.44   838.62   947.19
                              955.57  1024.55  1040.14  1060.40  1092.82
                             1118.49  1154.06  1226.94  1242.30  1292.78
                             1357.81  1381.11  1393.13  1435.17  1524.93
                             1538.28  1562.57  1602.80  1657.00  1683.21
                             1713.30  1750.58  1859.81  1901.77  1949.51
                             2015.59  2033.13  2116.31  2130.30  2149.76
                             2219.46  2270.60  2335.71  2362.31  2403.45
                             4592.30  4611.13  4624.04  4653.08  4704.82
                             4730.74  5289.46

 Zero-point correction=                           0.154864 (Hartree/Particle)
 Thermal correction to Energy=                    0.165623
 Thermal correction to Enthalpy=                  0.166567
 Thermal correction to Gibbs Free Energy=         0.117108
 Sum of electronic and zero-point Energies=           -661.607706
 Sum of electronic and thermal Energies=              -661.596946
 Sum of electronic and thermal Enthalpies=            -661.596002
 Sum of electronic and thermal Free Energies=         -661.645461

                     E (Thermal)             CV                S
                      KCal/Mol        Cal/Mol-Kelvin    Cal/Mol-Kelvin
 Total                  103.930             41.184            104.095
 Electronic               0.000              0.000              0.000
 Translational            0.889              2.981             41.616
 Rotational               0.889              2.981             31.361
 Vibrational            102.152             35.222             31.118
 Vibration     1          0.595              1.979              5.009
 Vibration     2          0.598              1.968              4.116
 Vibration     3          0.603              1.953              3.569
 Vibration     4          0.610              1.930              3.060
 Vibration     5          0.620              1.896              2.602
 Vibration     6          0.651              1.797              1.888
 Vibration     7          0.691              1.677              1.426
 Vibration     8          0.706              1.635              1.309
 Vibration     9          0.742              1.535              1.083
 Vibration    10          0.780              1.434              0.903
 Vibration    11          0.816              1.342              0.771
 Vibration    12          0.882              1.189              0.593
 Vibration    13          0.900              1.150              0.554
 Vibration    14          0.940              1.068              0.480

 Optimization completed.
    -- Stationary point found.
 Normal termination of Gaussian 09 at Fri Aug 20 15:38:18 2021.
