 Gaussian 09, Revision E.01,
 Gaussian 09:  ES64L-G09RevE.01 30-Nov-2015

 -------------------------
 #P OPT Freq B3LYP/6-31G**
 -------------------------

 ------
 WOVXOU
 ------
 Symbolic Z-matrix:
 Charge =  0 Multiplicity = 1

 SCF Done:  E(RB3LYP) =  -661.692344635     A.U. after   16 cycles
 SCF Done:  E(RB3LYP) =  -661.758008232     A.U. after   14 cycles
 SCF Done:  E(RB3LYP) =  -661.776820796     A.U. after   15 cycles
 SCF Done:  E(RB3LYP) =  -661.770302194     A.U. after   15 cycles
 SCF Done:  E(RB3LYP) =  -661.777180031     A.U. after   11 cycles
 SCF Done:  E(RB3LYP) =  -661.777426768     A.U. after   13 cycles
 SCF Done:  E(RB3LYP) =  -661.777626393     A.U. after   13 cycles
 SCF Done:  E(RB3LYP) =  -661.777672346     A.U. after   12 cycles
 SCF Done:  E(RB3LYP) =  -661.777678971     A.U. after   11 cycles
 SCF Done:  E(RB3LYP) =  -661.777680798     A.U. after    9 cycles
 SCF Done:  E(RB3LYP) =  -661.777681284     A.U. after    8 cycles
 Optimization completed.
    -- Stationary point found.
 Normal termination of Gaussian 09 at Fri Aug 20 15:44:56 2021.

 ----------------------------------------------------------------------
 #P Geom=AllCheck Guess=TCheck SCRF=Check GenChk RB3LYP/6-31G(d,p) Freq
 ----------------------------------------------------------------------

 Structure from the checkpoint file:  "/public/home/users/caep010/.cache/gau_scr/Gau-51511.chk"
 ------
 WOVXOU
 ------
 Charge =  0 Multiplicity = 1

                         Standard orientation:
 ---------------------------------------------------------------------
 Center     Atomic      Atomic             Coordinates (Angstroms)
 Number     Number       Type             X           Y           Z
 ---------------------------------------------------------------------
      1          7           0        3.398922    0.390879   -0.145222
      2          8           0        3.470506    1.569039   -0.516714
      3          8           0        4.352705   -0.345995    0.077228
      4          6           0        2.066829   -0.134940    0.033665
      5          7           0        1.826855   -1.411177    0.447554
      6          6           0        0.908659    0.571287   -0.191872
      7          6           0        0.519658   -1.498448    0.475281
      8          7           0       -0.096700   -0.320362    0.093110
      9          6           0       -1.501543   -0.077139    0.028090
     10          6           0       -2.020083    1.131863    0.500601
     11          6           0       -2.346881   -1.054883   -0.504101
     12          6           0       -3.720414   -0.820340   -0.551887
     13          6           0       -4.246052    0.387423   -0.090474
     14          6           0       -3.392949    1.362189    0.430148
     15          1           0       -1.356299    1.872439    0.934579
     16          1           0       -0.051875   -2.361228    0.785292
     17          1           0        0.733662    1.572598   -0.546245
     18          1           0       -1.929753   -1.976602   -0.895983
     19          1           0       -4.377230   -1.579088   -0.965418
     20          1           0       -3.796017    2.301251    0.795997
     21          1           0       -5.315057    0.568822   -0.137138
 ---------------------------------------------------------------------

 SCF Done:  E(RB3LYP) =  -661.777681284     A.U. after    1 cycles

 The electronic state is 1-A.
 Alpha  occ. eigenvalues --  -19.16975 -19.16638 -14.56283 -14.43565 -14.34868
 Alpha  occ. eigenvalues --  -10.27158 -10.26945 -10.26369 -10.25494 -10.22684
 Alpha  occ. eigenvalues --  -10.22657 -10.22367 -10.22355 -10.22059  -1.21276
 Alpha  occ. eigenvalues --   -1.05808  -1.03934  -0.93703  -0.87747  -0.80893
 Alpha  occ. eigenvalues --   -0.78262  -0.78050  -0.71865  -0.66606  -0.64020
 Alpha  occ. eigenvalues --   -0.60769  -0.59165  -0.56987  -0.53491  -0.52518
 Alpha  occ. eigenvalues --   -0.51124  -0.50160  -0.49278  -0.47773  -0.46738
 Alpha  occ. eigenvalues --   -0.45644  -0.45472  -0.45003  -0.39954  -0.39253
 Alpha  occ. eigenvalues --   -0.37977  -0.32921  -0.30577  -0.29680  -0.29603
 Alpha  occ. eigenvalues --   -0.28481  -0.27938  -0.27366  -0.25999
 Alpha virt. eigenvalues --   -0.07377  -0.04107  -0.03595   0.00862   0.06038
 Alpha virt. eigenvalues --    0.07287   0.10329   0.10615   0.12403   0.13005
 Alpha virt. eigenvalues --    0.13611   0.15302   0.16395   0.17247   0.20418

 Mulliken charges:
               1
     1  N    0.360934
     2  O   -0.417622
     3  O   -0.380553
     4  C    0.362551
     5  N   -0.449061
     6  C    0.119041
     7  C    0.277907
     8  N   -0.515613
     9  C    0.260190
    10  C   -0.091569
    11  C   -0.094925
    12  C   -0.094776
    13  C   -0.073846
    14  C   -0.095424
    15  H    0.112139
    16  H    0.136488
    17  H    0.159501
    18  H    0.110804
    19  H    0.105554
    20  H    0.106111
    21  H    0.102167
 Sum of Mulliken charges =  -0.00000

 Dipole moment (field-independent basis, Debye):
    X=             -8.4645    Y=              0.1578    Z=             -0.0090  Tot=              8.4660
 Quadrupole moment (field-independent basis, Debye-Ang):
   XX=            -92.7905   YY=            -75.7382   ZZ=            -78.9702
   XY=              0.3847   XZ=              0.6396   YZ=              3.7366

  Exact polarizability: 187.217  -3.476 113.909   4.217   5.272  54.277
 Approx polarizability: 272.135 -16.283 219.898  11.714   5.241  90.020

                      1                      2                      3
                      A                      A                      A
 Frequencies --     47.5634                56.4823                88.4803
 Red. masses --      5.0129                 9.3040                 6.2144
 Frc consts  --      0.0067                 0.0175                 0.0287
 IR Inten    --      0.2302                 0.4271                 0.9991

                      4                      5                      6
                      A                      A                      A
 Frequencies --    104.8391               201.1492               223.7095
 Red. masses --      5.6753                 6.2969                 7.0908
 Frc consts  --      0.0368                 0.1501                 0.2091
 IR Inten    --      1.9336                 1.8349                 0.2524

                      7                      8                      9
                      A                      A                      A
 Frequencies --    295.0750               321.3310               420.1282
 Red. masses --      8.6850                 5.4194                 3.0444
 Frc consts  --      0.4455                 0.3297                 0.3166
 IR Inten    --      0.4951                 0.9097                 0.0347

                     10                     11                     12
                      A                      A                      A
 Frequencies --    426.5351               483.4717               524.7302
 Red. masses --      5.2000                 8.4914                 4.1607
 Frc consts  --      0.5574                 1.1694                 0.6750
 IR Inten    --      0.2511                 1.1092                 5.6676

                     13                     14                     15
                      A                      A                      A
 Frequencies --    575.0432               622.2481               637.8069
 Red. masses --      5.0961                 5.0353                 5.3019
 Frc consts  --      0.9929                 1.1487                 1.2708
 IR Inten    --      5.0964                 0.6070                 0.9053

                     16                     17                     18
                      A                      A                      A
 Frequencies --    673.1511               705.2120               708.9333
 Red. masses --      4.2953                 6.0092                 2.1914
 Frc consts  --      1.1468                 1.7608                 0.6489
 IR Inten    --     12.4286                 5.7783                20.7355

                     19                     20                     21
                      A                      A                      A
 Frequencies --    757.7964               778.7244               795.3388
 Red. masses --      2.9063                 1.6468                 1.9146
 Frc consts  --      0.9833                 0.5884                 0.7136
 IR Inten    --     19.0285                39.8343                 1.4582

                     22                     23                     24
                      A                      A                      A
 Frequencies --    833.2280               845.0718               852.1710
 Red. masses --     12.4953                 1.4700                 1.2464
 Frc consts  --      5.1112                 0.6185                 0.5333
 IR Inten    --     66.5786                18.2471                 0.4722

                     25                     26                     27
                      A                      A                      A
 Frequencies --    930.6981               976.1968               981.6186
 Red. masses --      1.3924                 1.3629                 7.7307
 Frc consts  --      0.7106                 0.7652                 4.3889
 IR Inten    --      2.1462                 1.2076                20.3288

                     28                     29                     30
                      A                      A                      A
 Frequencies --   1003.2782              1005.0823              1018.4549
 Red. masses --      4.4306                 1.2876                 5.9214
 Frc consts  --      2.6276                 0.7663                 3.6187
 IR Inten    --      4.5129                 0.1988                 1.6150

                     31                     32                     33
                      A                      A                      A
 Frequencies --   1054.0635              1079.3481              1109.7401
 Red. masses --      2.2024                 1.9490                 1.5401
 Frc consts  --      1.4417                 1.3378                 1.1175
 IR Inten    --      0.2967                66.9029                 3.7998

                     34                     35                     36
                      A                      A                      A
 Frequencies --   1190.4501              1194.7168              1205.3887
 Red. masses --      1.1023                 1.9348                 1.1691
 Frc consts  --      0.9204                 1.6271                 1.0008
 IR Inten    --      0.1838                 9.5553                 0.5316

                     37                     38                     39
                      A                      A                      A
 Frequencies --   1265.5547              1293.5925              1344.6564
 Red. masses --      1.5838                 3.7378                 6.4658
 Frc consts  --      1.4946                 3.6852                 6.8880
 IR Inten    --     19.1216                20.0660                96.1312

                     40                     41                     42
                      A                      A                      A
 Frequencies --   1357.3983              1363.8323              1400.9556
 Red. masses --      4.6384                 1.7704                10.1416
 Frc consts  --      5.0354                 1.9402                11.7276
 IR Inten    --     38.6431                 4.5445               207.8634

                     43                     44                     45
                      A                      A                      A
 Frequencies --   1448.3717              1499.9409              1537.0734
 Red. masses --      6.0099                 2.4169                 3.3982
 Frc consts  --      7.4281                 3.2037                 4.7303
 IR Inten    --     64.4018                 3.3123                22.4135

                     46                     47                     48
                      A                      A                      A
 Frequencies --   1547.9160              1559.4246              1644.3608
 Red. masses --      3.2177                 6.3969                11.0926
 Frc consts  --      4.5425                 9.1654                17.6717
 IR Inten    --    150.7280                58.5459               171.1605

                     49                     50                     51
                      A                      A                      A
 Frequencies --   1648.9921              1658.2342              3192.0308
 Red. masses --      6.9317                 5.6956                 1.0857
 Frc consts  --     11.1052                 9.2275                 6.5177
 IR Inten    --     59.0611                19.0070                 1.2285

                     52                     53                     54
                      A                      A                      A
 Frequencies --   3199.3704              3207.5969              3213.5303
 Red. masses --      1.0886                 1.0919                 1.0952
 Frc consts  --      6.5653                 6.6188                 6.6637
 IR Inten    --      3.3677                13.4560                 9.2410

                     55                     56                     57
                      A                      A                      A
 Frequencies --   3219.2464              3275.1602              3323.3159
 Red. masses --      1.0987                 1.0969                 1.0998
 Frc consts  --      6.7087                 6.9327                 7.1566
 IR Inten    --      5.6814                 0.2330                 8.0508

 - Thermochemistry -
 -------------------
 Temperature   298.150 Kelvin.  Pressure   1.00000 Atm.
 Atom     1 has atomic number  7 and mass  14.00307

 Molecular mass:   189.05383 amu.
 Principal axes and moments of inertia in atomic units:
                           1         2         3
     Eigenvalues --   769.666295447.522146025.08185
           X            1.00000  -0.00178   0.00127
           Y            0.00175   0.99968   0.02504
           Z           -0.00132  -0.02504   0.99969
 This molecule is an asymmetric top.
 Rotational symmetry number  1.
 Warning -- assumption of classical behavior for rotation
           may cause significant error
 Rotational temperatures (Kelvin)      0.11253     0.01590     0.01438
 Rotational constants (GHZ):           2.34484     0.33130     0.29954
 Zero-point vibrational energy     406298.5 (Joules/Mol)
                                   97.10768 (Kcal/Mol)
 Warning -- explicit consideration of  13 degrees of freedom as
           vibrations may cause significant error
 Vibrational temperatures:     68.43    81.27   127.30   150.84   289.41
          (Kelvin)            321.87   424.55   462.32   604.47   613.69
                              695.61   754.97   827.36   895.28   917.66
                              968.51  1014.64  1020.00  1090.30  1120.41
                             1144.31  1198.83  1215.87  1226.08  1339.07
                             1404.53  1412.33  1443.49  1446.09  1465.33
                             1516.56  1552.94  1596.67  1712.79  1718.93
                             1734.28  1820.85  1861.19  1934.66  1952.99
                             1962.25  2015.66  2083.88  2158.08  2211.50
                             2227.10  2243.66  2365.87  2372.53  2385.83
                             4592.61  4603.17  4615.01  4623.55  4631.77
                             4712.22  4781.50

 Zero-point correction=                           0.154751 (Hartree/Particle)
 Thermal correction to Energy=                    0.165368
 Thermal correction to Enthalpy=                  0.166312
 Thermal correction to Gibbs Free Energy=         0.116799
 Sum of electronic and zero-point Energies=           -661.622930
 Sum of electronic and thermal Energies=              -661.612314
 Sum of electronic and thermal Enthalpies=            -661.611370
 Sum of electronic and thermal Free Energies=         -661.660882

                     E (Thermal)             CV                S
                      KCal/Mol        Cal/Mol-Kelvin    Cal/Mol-Kelvin
 Total                  103.770             40.601            104.208
 Electronic               0.000              0.000              0.000
 Translational            0.889              2.981             41.616
 Rotational               0.889              2.981             31.602
 Vibrational            101.992             34.640             30.989
 Vibration     1          0.595              1.979              4.916
 Vibration     2          0.596              1.975              4.576
 Vibration     3          0.601              1.957              3.693
 Vibration     4          0.605              1.945              3.362
 Vibration     5          0.638              1.838              2.123
 Vibration     6          0.649              1.805              1.929
 Vibration     7          0.689              1.683              1.445
 Vibration     8          0.707              1.633              1.303
 Vibration     9          0.783              1.426              0.892
 Vibration    10          0.788              1.413              0.870
 Vibration    11          0.840              1.287              0.701
 Vibration    12          0.880              1.195              0.599
 Vibration    13          0.931              1.085              0.495

 Optimization completed.
    -- Stationary point found.
 Normal termination of Gaussian 09 at Fri Aug 20 15:45:32 2021.
