 Gaussian 09, Revision E.01,
 Gaussian 09:  ES64L-G09RevE.01 30-Nov-2015

 -------------------------
 #P OPT Freq B3LYP/6-31G**
 -------------------------

 ------
 DMNPYO
 ------
 Symbolic Z-matrix:
 Charge =  0 Multiplicity = 1

 SCF Done:  E(RB3LYP) =  -606.348404280     A.U. after   16 cycles
 SCF Done:  E(RB3LYP) =  -606.487565245     A.U. after   13 cycles
 SCF Done:  E(RB3LYP) =  -606.583544223     A.U. after   14 cycles
 SCF Done:  E(RB3LYP) =  -606.588437881     A.U. after   14 cycles
 SCF Done:  E(RB3LYP) =  -606.589360937     A.U. after   14 cycles
 SCF Done:  E(RB3LYP) =  -606.589454064     A.U. after   13 cycles
 SCF Done:  E(RB3LYP) =  -606.589470750     A.U. after   11 cycles
 SCF Done:  E(RB3LYP) =  -606.589482792     A.U. after    9 cycles
 SCF Done:  E(RB3LYP) =  -606.589483569     A.U. after    8 cycles
 Optimization completed.
    -- Stationary point found.
 Normal termination of Gaussian 09 at Fri Aug 20 15:50:05 2021.

 ----------------------------------------------------------------------
 #P Geom=AllCheck Guess=TCheck SCRF=Check GenChk RB3LYP/6-31G(d,p) Freq
 ----------------------------------------------------------------------

 Structure from the checkpoint file:  "/public/home/users/caep010/.cache/gau_scr/Gau-175797.chk"
 ------
 DMNPYO
 ------
 Charge =  0 Multiplicity = 1

                         Standard orientation:
 ---------------------------------------------------------------------
 Center     Atomic      Atomic             Coordinates (Angstroms)
 Number     Number       Type             X           Y           Z
 ---------------------------------------------------------------------
      1          7           0        0.000000    0.000000    2.238442
      2          8           0        0.000000    0.000000    3.506192
      3          6           0       -0.000000   -0.000000   -0.541170
      4          7           0       -0.000000   -0.000000   -1.999962
      5          6           0        0.000000    1.227953    0.155504
      6          6           0       -0.000000   -1.227953    0.155504
      7          6           0       -0.016337    1.179918    1.538401
      8          6           0        0.016337   -1.179918    1.538401
      9          8           0        0.589236    0.916122   -2.578880
     10          8           0       -0.589236   -0.916122   -2.578880
     11          1           0       -0.039132    2.056971    2.169972
     12          1           0        0.039132   -2.056971    2.169972
     13          6           0       -0.012723    2.591348   -0.492438
     14          6           0        0.012723   -2.591348   -0.492438
     15          1           0       -0.256761    3.353360    0.251105
     16          1           0        0.256761   -3.353360    0.251105
     17          1           0        0.961234    2.821059   -0.930105
     18          1           0       -0.961234   -2.821059   -0.930105
     19          1           0       -0.740528    2.647090   -1.304674
     20          1           0        0.740528   -2.647090   -1.304674
 ---------------------------------------------------------------------

 SCF Done:  E(RB3LYP) =  -606.589483569     A.U. after    1 cycles

 The electronic state is 1-A.
 Alpha  occ. eigenvalues --  -19.18852 -19.18851 -19.14604 -14.58037 -14.50764
 Alpha  occ. eigenvalues --  -10.26836 -10.25551 -10.25550 -10.25286 -10.25285
 Alpha  occ. eigenvalues --  -10.20941 -10.20941  -1.23176  -1.13434  -1.05748
 Alpha  occ. eigenvalues --   -0.93068  -0.85208  -0.83539  -0.76706  -0.74438
 Alpha  occ. eigenvalues --   -0.70014  -0.64205  -0.62399  -0.56925  -0.56221
 Alpha  occ. eigenvalues --   -0.53211  -0.50900  -0.50455  -0.49445  -0.47395
 Alpha  occ. eigenvalues --   -0.45237  -0.44253  -0.43953  -0.43781  -0.41609
 Alpha  occ. eigenvalues --   -0.41261  -0.39583  -0.34916  -0.31614  -0.31306
 Alpha  occ. eigenvalues --   -0.29837  -0.29054  -0.27024  -0.23883
 Alpha virt. eigenvalues --   -0.09945  -0.04234  -0.03605   0.08369   0.08886
 Alpha virt. eigenvalues --    0.09615   0.10992   0.12436   0.12592   0.15745
 Alpha virt. eigenvalues --    0.16569   0.17666   0.17803   0.19833   0.20530

 Mulliken charges:
               1
     1  N   -0.023403
     2  O   -0.482984
     3  C    0.206677
     4  N    0.335796
     5  C    0.086134
     6  C    0.086134
     7  C    0.081983
     8  C    0.081983
     9  O   -0.390539
    10  O   -0.390539
    11  H    0.143665
    12  H    0.143665
    13  C   -0.357518
    14  C   -0.357518
    15  H    0.114293
    16  H    0.114293
    17  H    0.161548
    18  H    0.161548
    19  H    0.142390
    20  H    0.142390
 Sum of Mulliken charges =  -0.00000

 Dipole moment (field-independent basis, Debye):
    X=              0.0000    Y=             -0.0000    Z=              0.2764  Tot=              0.2764
 Quadrupole moment (field-independent basis, Debye-Ang):
   XX=            -68.7695   YY=            -57.7937   ZZ=            -92.2379
   XY=             -1.7411   XZ=             -0.0000   YZ=              0.0000

  Exact polarizability:  49.831   5.251 115.832   0.000  -0.000 146.984
 Approx polarizability:  84.614  20.402 189.429   0.000   0.000 310.134

                      1                      2                      3
                      A                      B                      B
 Frequencies --     72.6821                80.3909               184.2660
 Red. masses --      9.7513                 5.5445                 3.2387
 Frc consts  --      0.0304                 0.0211                 0.0648
 IR Inten    --      1.3209                 7.6448                 0.1404

                      4                      5                      6
                      A                      B                      A
 Frequencies --    205.5321               213.4867               241.8425
 Red. masses --      1.1879                 1.1585                 2.2192
 Frc consts  --      0.0296                 0.0311                 0.0765
 IR Inten    --      0.0967                 1.3066                 0.2499

                      7                      8                      9
                      B                      B                      A
 Frequencies --    253.6521               278.4545               321.2447
 Red. masses --      6.4825                 7.0146                 3.8365
 Frc consts  --      0.2457                 0.3204                 0.2333
 IR Inten    --      9.3882                 1.7399                 0.6221

                     10                     11                     12
                      B                      A                      B
 Frequencies --    347.9361               364.9347               468.7979
 Red. masses --      3.8635                 5.3374                 8.2620
 Frc consts  --      0.2756                 0.4188                 1.0698
 IR Inten    --      1.9995                 1.2740                 4.2116

                     13                     14                     15
                      A                      B                      A
 Frequencies --    526.8205               541.2254               576.2325
 Red. masses --      3.1672                 5.6721                 4.7541
 Frc consts  --      0.5179                 0.9789                 0.9301
 IR Inten    --      2.3845                 2.0571                 0.2485

                     16                     17                     18
                      B                      B                      A
 Frequencies --    595.8264               645.7633               656.3436
 Red. masses --      4.6289                 3.4170                 7.6092
 Frc consts  --      0.9682                 0.8396                 1.9313
 IR Inten    --      1.5130                 0.5072                37.3024

                     19                     20                     21
                      B                      B                      A
 Frequencies --    701.7347               778.0881               849.9936
 Red. masses --      3.6463                 9.3758                 1.2932
 Frc consts  --      1.0579                 3.3444                 0.5505
 IR Inten    --      3.2340                 8.0900                 0.1259

                     22                     23                     24
                      A                      B                      B
 Frequencies --    856.1978               864.0365               991.3274
 Red. masses --      9.1191                 1.5952                 3.4990
 Frc consts  --      3.9387                 0.7017                 2.0259
 IR Inten    --     13.0340                37.7404                 1.1078

                     25                     26                     27
                      A                      B                      A
 Frequencies --   1014.9195              1061.1993              1061.4069
 Red. masses --      2.0225                 1.5071                 1.5524
 Frc consts  --      1.2274                 0.9999                 1.0304
 IR Inten    --      2.7260                 7.4592                 3.8774

                     28                     29                     30
                      B                      A                      A
 Frequencies --   1073.2935              1077.1277              1149.6156
 Red. masses --      1.6299                 2.0005                 6.8927
 Frc consts  --      1.1063                 1.3675                 5.3672
 IR Inten    --      0.1433                15.7263                49.9717

                     31                     32                     33
                      A                      B                      B
 Frequencies --   1235.4888              1254.9401              1299.1833
 Red. masses --      1.8603                 2.2763                 2.6873
 Frc consts  --      1.6730                 2.1121                 2.6724
 IR Inten    --     23.9639                 4.5522                 2.0734

                     34                     35                     36
                      A                      A                      B
 Frequencies --   1381.9727              1411.7205              1430.1767
 Red. masses --      9.5522                 4.8782                 1.2158
 Frc consts  --     10.7487                 5.7280                 1.4651
 IR Inten    --    529.0009                 0.3929                 5.4552

                     37                     38                     39
                      A                      A                      B
 Frequencies --   1433.5868              1460.4697              1473.2171
 Red. masses --      1.2711                 2.3677                 1.4873
 Frc consts  --      1.5391                 2.9756                 1.9019
 IR Inten    --      0.0166                 4.2578                12.7326

                     40                     41                     42
                      A                      B                      A
 Frequencies --   1494.7135              1494.9299              1510.5576
 Red. masses --      1.1002                 1.0859                 1.3330
 Frc consts  --      1.4482                 1.4298                 1.7921
 IR Inten    --      9.9855                 8.9766                88.2977

                     43                     44                     45
                      B                      B                      B
 Frequencies --   1520.1522              1566.8550              1633.8588
 Red. masses --      1.8429                 9.2159                11.4953
 Frc consts  --      2.5092                13.3304                18.0800
 IR Inten    --     11.3255                14.3676               244.8125

                     46                     47                     48
                      A                      B                      A
 Frequencies --   1657.8095              3070.3381              3070.5894
 Red. masses --      5.5250                 1.0356                 1.0356
 Frc consts  --      8.9464                 5.7517                 5.7527
 IR Inten    --    132.8251                19.2630                 0.0374

                     49                     50                     51
                      A                      B                      B
 Frequencies --   3144.8586              3144.9061              3149.0701
 Red. masses --      1.1010                 1.1010                 1.1044
 Frc consts  --      6.4158                 6.4160                 6.4524
 IR Inten    --      0.7225                 6.5342                15.9672

                     52                     53                     54
                      A                      B                      A
 Frequencies --   3149.4439              3262.3090              3263.1533
 Red. masses --      1.1043                 1.0924                 1.0936
 Frc consts  --      6.4535                 6.8498                 6.8610
 IR Inten    --      8.8894                 0.6057                 0.4950

 - Thermochemistry -
 -------------------
 Temperature   298.150 Kelvin.  Pressure   1.00000 Atm.
 Atom     1 has atomic number  7 and mass  14.00307

 Molecular mass:   168.05349 amu.
 Principal axes and moments of inertia in atomic units:
                           1         2         3
     Eigenvalues --  1189.852772251.507763345.50492
           X            0.00000   0.05109   0.99869
           Y            0.00000   0.99869  -0.05109
           Z            1.00000  -0.00000  -0.00000
 This molecule is an asymmetric top.
 Rotational symmetry number  2.
 Warning -- assumption of classical behavior for rotation
           may cause significant error
 Rotational temperatures (Kelvin)      0.07279     0.03847     0.02589
 Rotational constants (GHZ):           1.51678     0.80157     0.53945
 Zero-point vibrational energy     398169.1 (Joules/Mol)
                                   95.16470 (Kcal/Mol)
 Warning -- explicit consideration of  16 degrees of freedom as
           vibrations may cause significant error
 Vibrational temperatures:    104.57   115.66   265.12   295.71   307.16
          (Kelvin)            347.96   364.95   400.63   462.20   500.60
                              525.06   674.49   757.98   778.70   829.07
                              857.26   929.11   944.33  1009.64  1119.49
                             1222.95  1231.88  1243.15  1426.30  1460.24
                             1526.83  1527.13  1544.23  1549.74  1654.04
                             1777.59  1805.58  1869.23  1988.35  2031.15
                             2057.70  2062.61  2101.29  2119.63  2150.56
                             2150.87  2173.35  2187.16  2254.35  2350.76
                             2385.22  4417.53  4417.89  4524.74  4524.81
                             4530.80  4531.34  4693.73  4694.94

 Zero-point correction=                           0.151655 (Hartree/Particle)
 Thermal correction to Energy=                    0.162209
 Thermal correction to Enthalpy=                  0.163154
 Thermal correction to Gibbs Free Energy=         0.116204
 Sum of electronic and zero-point Energies=           -606.437829
 Sum of electronic and thermal Energies=              -606.427274
 Sum of electronic and thermal Enthalpies=            -606.426330
 Sum of electronic and thermal Free Energies=         -606.473279

                     E (Thermal)             CV                S
                      KCal/Mol        Cal/Mol-Kelvin    Cal/Mol-Kelvin
 Total                  101.788             39.991             98.813
 Electronic               0.000              0.000              0.000
 Translational            0.889              2.981             41.265
 Rotational               0.889              2.981             29.195
 Vibrational            100.010             34.029             28.353
 Vibration     1          0.599              1.967              4.079
 Vibration     2          0.600              1.962              3.881
 Vibration     3          0.631              1.861              2.285
 Vibration     4          0.640              1.832              2.083
 Vibration     5          0.644              1.820              2.014
 Vibration     6          0.658              1.776              1.789
 Vibration     7          0.665              1.757              1.705
 Vibration     8          0.679              1.713              1.543
 Vibration     9          0.707              1.633              1.304
 Vibration    10          0.726              1.579              1.176
 Vibration    11          0.738              1.544              1.101
 Vibration    12          0.826              1.319              0.741
 Vibration    13          0.882              1.191              0.594
 Vibration    14          0.896              1.159              0.563
 Vibration    15          0.933              1.083              0.492
 Vibration    16          0.954              1.041              0.457

 Normal termination of Gaussian 09 at Fri Aug 20 15:50:28 2021.
