 Gaussian 09, Revision E.01,
 Gaussian 09:  ES64L-G09RevE.01 30-Nov-2015

 -------------------------
 #P OPT Freq B3LYP/6-31G**
 -------------------------

 ------
 KIKNEY
 ------
 Symbolic Z-matrix:
 Charge =  0 Multiplicity = 1

 SCF Done:  E(RB3LYP) =  -619.734617929     A.U. after   16 cycles
 SCF Done:  E(RB3LYP) =  -619.898086373     A.U. after   13 cycles
 SCF Done:  E(RB3LYP) =  -620.020914773     A.U. after   15 cycles
 SCF Done:  E(RB3LYP) =  -620.026628230     A.U. after   13 cycles
 SCF Done:  E(RB3LYP) =  -620.026844999     A.U. after   14 cycles
 SCF Done:  E(RB3LYP) =  -620.026495737     A.U. after   13 cycles
 SCF Done:  E(RB3LYP) =  -620.027255941     A.U. after   10 cycles
 SCF Done:  E(RB3LYP) =  -620.027459641     A.U. after   13 cycles
 SCF Done:  E(RB3LYP) =  -620.027555933     A.U. after   11 cycles
 SCF Done:  E(RB3LYP) =  -620.027600062     A.U. after   11 cycles
 SCF Done:  E(RB3LYP) =  -620.028579066     A.U. after    9 cycles
 SCF Done:  E(RB3LYP) =  -620.028586101     A.U. after   10 cycles
 SCF Done:  E(RB3LYP) =  -620.028590753     A.U. after   10 cycles
 SCF Done:  E(RB3LYP) =  -620.028595270     A.U. after   10 cycles
 SCF Done:  E(RB3LYP) =  -620.028599159     A.U. after   10 cycles
 SCF Done:  E(RB3LYP) =  -620.028604060     A.U. after   10 cycles
 SCF Done:  E(RB3LYP) =  -620.028606849     A.U. after   10 cycles
 SCF Done:  E(RB3LYP) =  -620.028607320     A.U. after    8 cycles
 SCF Done:  E(RB3LYP) =  -620.028607456     A.U. after    8 cycles
 Optimization completed.
    -- Stationary point found.
 Normal termination of Gaussian 09 at Fri Aug 20 15:50:49 2021.

 ----------------------------------------------------------------------
 #P Geom=AllCheck Guess=TCheck SCRF=Check GenChk RB3LYP/6-31G(d,p) Freq
 ----------------------------------------------------------------------

 Structure from the checkpoint file:  "/public/home/users/caep010/.cache/gau_scr/Gau-149302.chk"
 ------
 KIKNEY
 ------
 Charge =  0 Multiplicity = 1

                         Standard orientation:
 ---------------------------------------------------------------------
 Center     Atomic      Atomic             Coordinates (Angstroms)
 Number     Number       Type             X           Y           Z
 ---------------------------------------------------------------------
      1          8           0        1.070534   -2.359248    0.147025
      2          7           0        1.560614   -1.210405    0.037563
      3          8           0        2.772459   -1.003735   -0.084255
      4          6           0        0.682985   -0.113498    0.051132
      5          6           0       -0.723483   -0.198857    0.103148
      6          7           0       -1.494104   -1.322278    0.253308
      7          7           0       -2.755745   -1.342982   -0.394681
      8          1           0       -0.909396   -2.156859    0.206847
      9          7           0       -1.161783    1.074729    0.053935
     10          6           0       -2.518395    1.589794    0.151492
     11          1           0       -3.094149    1.367629   -0.748126
     12          6           0        0.993869    1.276545   -0.037340
     13          6           0        2.328156    1.942203   -0.122081
     14          1           0        2.876335    1.609577   -1.007864
     15          1           0       -3.397742   -1.865998    0.193499
     16          7           0       -0.120284    1.982680   -0.037371
     17          1           0       -2.680296   -1.827562   -1.289119
     18          1           0        2.187621    3.024018   -0.164576
     19          1           0        2.948402    1.688585    0.742360
     20          1           0       -2.425212    2.666655    0.287184
     21          1           0       -3.029186    1.148497    1.010254
 ---------------------------------------------------------------------

 SCF Done:  E(RB3LYP) =  -620.028607456     A.U. after    1 cycles

 The electronic state is 1-A.
 Alpha  occ. eigenvalues --  -19.16295 -19.16286 -14.55902 -14.42150 -14.39758
 Alpha  occ. eigenvalues --  -14.38414 -14.35419 -10.28652 -10.23210 -10.23052
 Alpha  occ. eigenvalues --  -10.22883 -10.18332  -1.20346  -1.06101  -1.02859
 Alpha  occ. eigenvalues --   -1.00514  -0.86573  -0.85461  -0.79424  -0.74790
 Alpha  occ. eigenvalues --   -0.72393  -0.65551  -0.60152  -0.57763  -0.54111
 Alpha  occ. eigenvalues --   -0.53357  -0.52944  -0.51960  -0.51238  -0.49353
 Alpha  occ. eigenvalues --   -0.48009  -0.45522  -0.42670  -0.42248  -0.39808
 Alpha  occ. eigenvalues --   -0.39199  -0.38428  -0.33043  -0.31283  -0.29522
 Alpha  occ. eigenvalues --   -0.29368  -0.28913  -0.27336  -0.25971  -0.22750
 Alpha virt. eigenvalues --   -0.06395   0.01615   0.05351   0.08282   0.10977
 Alpha virt. eigenvalues --    0.11813   0.12106   0.13146   0.14245   0.14659
 Alpha virt. eigenvalues --    0.16102   0.16564   0.18103   0.19638   0.20357

 Mulliken charges:
               1
     1  O   -0.465607
     2  N    0.320068
     3  O   -0.424739
     4  C    0.113067
     5  C    0.669345
     6  N   -0.500371
     7  N   -0.473979
     8  H    0.294927
     9  N   -0.368300
    10  C   -0.151038
    11  H    0.143652
    12  C    0.343816
    13  C   -0.352867
    14  H    0.137264
    15  H    0.273278
    16  N   -0.358474
    17  H    0.266046
    18  H    0.123102
    19  H    0.135570
    20  H    0.144969
    21  H    0.130273
 Sum of Mulliken charges =  -0.00000

 Dipole moment (field-independent basis, Debye):
    X=             -5.2569    Y=             -0.0398    Z=             -0.5225  Tot=              5.2829
 Quadrupole moment (field-independent basis, Debye-Ang):
   XX=            -64.1828   YY=            -71.0889   ZZ=            -67.5219
   XY=             11.4158   XZ=              0.7452   YZ=              2.3967

  Exact polarizability: 131.819   2.817 107.630  -1.117  -0.754  51.471
 Approx polarizability: 208.376   1.055 178.386  -5.132  -5.303  78.508

                      1                      2                      3
                      A                      A                      A
 Frequencies --     64.8421                89.8288                93.6279
 Red. masses --      3.8770                 1.9568                 1.8037
 Frc consts  --      0.0096                 0.0093                 0.0093
 IR Inten    --      4.2278                 0.2707                 0.4178

                      4                      5                      6
                      A                      A                      A
 Frequencies --    127.7697               149.9233               175.1257
 Red. masses --      3.5169                 1.1385                 2.7268
 Frc consts  --      0.0338                 0.0151                 0.0493
 IR Inten    --      5.0628                 1.5758                15.0121

                      7                      8                      9
                      A                      A                      A
 Frequencies --    206.6696               222.6329               260.7304
 Red. masses --      6.2850                 4.0274                 4.5903
 Frc consts  --      0.1582                 0.1176                 0.1839
 IR Inten    --      4.4902                 1.5549                 0.7654

                     10                     11                     12
                      A                      A                      A
 Frequencies --    284.6538               296.4484               367.7434
 Red. masses --      2.4968                 1.5981                 2.4285
 Frc consts  --      0.1192                 0.0827                 0.1935
 IR Inten    --      5.8702                34.2393                20.3568

                     13                     14                     15
                      A                      A                      A
 Frequencies --    398.9493               421.5473               433.2387
 Red. masses --      4.8636                 8.3557                 7.7956
 Frc consts  --      0.4561                 0.8748                 0.8621
 IR Inten    --      0.4420                 0.1062                 5.3666

                     16                     17                     18
                      A                      A                      A
 Frequencies --    594.4719               634.2637               649.1807
 Red. masses --      4.3723                 4.6466                 6.2160
 Frc consts  --      0.9104                 1.1014                 1.5434
 IR Inten    --     12.1627                15.6397                 1.3090

                     19                     20                     21
                      A                      A                      A
 Frequencies --    688.0767               717.2488               768.7104
 Red. masses --      5.0054                 3.2525                10.9392
 Frc consts  --      1.3963                 0.9858                 3.8085
 IR Inten    --      5.5051                47.7882                24.7219

                     22                     23                     24
                      A                      A                      A
 Frequencies --    792.2652               829.0838               912.8501
 Red. masses --      1.9991                 4.7850                 4.4152
 Frc consts  --      0.7393                 1.9379                 2.1677
 IR Inten    --     56.4734                 7.6873                10.2208

                     25                     26                     27
                      A                      A                      A
 Frequencies --    986.5983              1017.2014              1047.6907
 Red. masses --      2.0572                 1.8729                 1.8849
 Frc consts  --      1.1798                 1.1418                 1.2190
 IR Inten    --    116.3766                11.5615                 3.2433

                     28                     29                     30
                      A                      A                      A
 Frequencies --   1067.1335              1130.4539              1151.9425
 Red. masses --      1.4931                 2.9328                 1.2899
 Frc consts  --      1.0018                 2.2082                 1.0085
 IR Inten    --      2.4945                16.4234                 1.1469

                     31                     32                     33
                      A                      A                      A
 Frequencies --   1175.3784              1258.1145              1294.2130
 Red. masses --      4.7747                 2.4345                 4.6074
 Frc consts  --      3.8865                 2.2704                 4.5469
 IR Inten    --     12.3929                45.5528                74.9259

                     34                     35                     36
                      A                      A                      A
 Frequencies --   1321.2830              1406.5953              1415.2788
 Red. masses --      1.2562                 2.7853                 2.2260
 Frc consts  --      1.2921                 3.2468                 2.6270
 IR Inten    --     65.6539               105.3703                 5.4915

                     37                     38                     39
                      A                      A                      A
 Frequencies --   1427.3843              1443.9056              1466.7959
 Red. masses --      2.1099                 1.4764                 1.6013
 Frc consts  --      2.5328                 1.8136                 2.0299
 IR Inten    --    103.9704                15.3521                89.1477

                     40                     41                     42
                      A                      A                      A
 Frequencies --   1486.2206              1492.1538              1494.6730
 Red. masses --      1.0443                 1.1476                 1.7076
 Frc consts  --      1.3590                 1.5054                 2.2476
 IR Inten    --      5.4321                10.2363                36.5916

                     43                     44                     45
                      A                      A                      A
 Frequencies --   1511.8436              1546.0180              1585.6251
 Red. masses --      1.0959                 3.8579                 6.2903
 Frc consts  --      1.4758                 5.4329                 9.3180
 IR Inten    --      0.9712               169.3072                84.0472

                     46                     47                     48
                      A                      A                      A
 Frequencies --   1610.9226              1627.8402              1706.3039
 Red. masses --      2.5099                 3.8751                 1.3101
 Frc consts  --      3.8375                 6.0501                 2.2473
 IR Inten    --     69.8276               263.9556                75.9365

                     49                     50                     51
                      A                      A                      A
 Frequencies --   3062.4056              3075.5530              3124.8565
 Red. masses --      1.0353                 1.0329                 1.1006
 Frc consts  --      5.7208                 5.7562                 6.3322
 IR Inten    --     11.8608                32.7495                 7.7865

                     52                     53                     54
                      A                      A                      A
 Frequencies --   3149.1247              3154.6542              3182.3146
 Red. masses --      1.1048                 1.1043                 1.1054
 Frc consts  --      6.4552                 6.4752                 6.5959
 IR Inten    --     11.9824                10.1188                 3.4628

                     55                     56                     57
                      A                      A                      A
 Frequencies --   3454.5932              3476.4213              3570.4239
 Red. masses --      1.0520                 1.0760                 1.0923
 Frc consts  --      7.3969                 7.6616                 8.2038
 IR Inten    --      3.7129                58.5918                 5.0953

 - Thermochemistry -
 -------------------
 Temperature   298.150 Kelvin.  Pressure   1.00000 Atm.
 Atom     1 has atomic number  8 and mass  15.99491

 Molecular mass:   171.07562 amu.
 Principal axes and moments of inertia in atomic units:
                           1         2         3
     Eigenvalues --  1381.840862048.244943363.82708
           X            0.99681   0.07982   0.00034
           Y           -0.07983   0.99680   0.00420
           Z           -0.00001  -0.00421   0.99999
 This molecule is an asymmetric top.
 Rotational symmetry number  1.
 Warning -- assumption of classical behavior for rotation
           may cause significant error
 Rotational temperatures (Kelvin)      0.06268     0.04229     0.02575
 Rotational constants (GHZ):           1.30604     0.88112     0.53651
 Zero-point vibrational energy     431264.5 (Joules/Mol)
                                  103.07470 (Kcal/Mol)
 Warning -- explicit consideration of  16 degrees of freedom as
           vibrations may cause significant error
 Vibrational temperatures:     93.29   129.24   134.71   183.83   215.71
          (Kelvin)            251.97   297.35   320.32   375.13   409.55
                              426.52   529.10   574.00   606.51   623.33
                              855.31   912.56   934.03   989.99  1031.96
                             1106.00  1139.89  1192.87  1313.39  1419.49
                             1463.52  1507.39  1535.37  1626.47  1657.39
                             1691.11  1810.14  1862.08  1901.03  2023.77
                             2036.27  2053.69  2077.46  2110.39  2138.34
                             2146.87  2150.50  2175.20  2224.37  2281.36
                             2317.76  2342.10  2454.99  4406.11  4425.03
                             4495.97  4530.88  4538.84  4578.64  4970.38
                             5001.79  5137.04

 Zero-point correction=                           0.164260 (Hartree/Particle)
 Thermal correction to Energy=                    0.176207
 Thermal correction to Enthalpy=                  0.177151
 Thermal correction to Gibbs Free Energy=         0.126185
 Sum of electronic and zero-point Energies=           -619.864347
 Sum of electronic and thermal Energies=              -619.852400
 Sum of electronic and thermal Enthalpies=            -619.851456
 Sum of electronic and thermal Free Energies=         -619.902422

                     E (Thermal)             CV                S
                      KCal/Mol        Cal/Mol-Kelvin    Cal/Mol-Kelvin
 Total                  110.572             42.771            107.268
 Electronic               0.000              0.000              0.000
 Translational            0.889              2.981             41.319
 Rotational               0.889              2.981             30.633
 Vibrational            108.794             36.809             35.316
 Vibration     1          0.597              1.971              4.304
 Vibration     2          0.602              1.956              3.664
 Vibration     3          0.603              1.954              3.583
 Vibration     4          0.611              1.925              2.979
 Vibration     5          0.618              1.903              2.673
 Vibration     6          0.627              1.873              2.380
 Vibration     7          0.641              1.830              2.073
 Vibration     8          0.648              1.807              1.938
 Vibration     9          0.669              1.745              1.657
 Vibration    10          0.683              1.702              1.506
 Vibration    11          0.690              1.680              1.437
 Vibration    12          0.740              1.539              1.089
 Vibration    13          0.765              1.472              0.967
 Vibration    14          0.784              1.423              0.887
 Vibration    15          0.794              1.398              0.848
 Vibration    16          0.952              1.044              0.459

 Optimization completed.
    -- Stationary point found.
 Normal termination of Gaussian 09 at Fri Aug 20 15:51:20 2021.
