 Gaussian 09, Revision E.01,
 Gaussian 09:  ES64L-G09RevE.01 30-Nov-2015

 -------------------------
 #P OPT Freq B3LYP/6-31G**
 -------------------------

 ------
 OXIRUK
 ------
 Symbolic Z-matrix:
 Charge =  0 Multiplicity = 1

 SCF Done:  E(RB3LYP) =  -562.140708127     A.U. after   16 cycles
 SCF Done:  E(RB3LYP) =  -562.185926597     A.U. after   14 cycles
 SCF Done:  E(RB3LYP) =  -562.190458848     A.U. after   15 cycles
 SCF Done:  E(RB3LYP) =  -562.180663752     A.U. after   17 cycles
 SCF Done:  E(RB3LYP) =  -562.191106878     A.U. after   12 cycles
 SCF Done:  E(RB3LYP) =  -562.190336342     A.U. after   15 cycles
 SCF Done:  E(RB3LYP) =  -562.191344333     A.U. after   11 cycles
 SCF Done:  E(RB3LYP) =  -562.191434968     A.U. after   12 cycles
 SCF Done:  E(RB3LYP) =  -562.191447102     A.U. after   12 cycles
 SCF Done:  E(RB3LYP) =  -562.191471738     A.U. after   11 cycles
 SCF Done:  E(RB3LYP) =  -562.191475675     A.U. after   11 cycles
 SCF Done:  E(RB3LYP) =  -562.191479446     A.U. after   12 cycles
 SCF Done:  E(RB3LYP) =  -562.191480991     A.U. after   10 cycles
 SCF Done:  E(RB3LYP) =  -562.191481740     A.U. after   10 cycles
 SCF Done:  E(RB3LYP) =  -562.191482059     A.U. after    9 cycles
 SCF Done:  E(RB3LYP) =  -562.191482454     A.U. after    9 cycles
 SCF Done:  E(RB3LYP) =  -562.191483119     A.U. after   10 cycles
 SCF Done:  E(RB3LYP) =  -562.191483966     A.U. after   11 cycles
 SCF Done:  E(RB3LYP) =  -562.191484353     A.U. after   11 cycles
 Optimization completed.
    -- Stationary point found.
 Normal termination of Gaussian 09 at Fri Aug 20 16:03:18 2021.

 ----------------------------------------------------------------------
 #P Geom=AllCheck Guess=TCheck SCRF=Check GenChk RB3LYP/6-31G(d,p) Freq
 ----------------------------------------------------------------------

 Structure from the checkpoint file:  "/public/home/users/caep010/.cache/gau_scr/Gau-155304.chk"
 ------
 OXIRUK
 ------
 Charge =  0 Multiplicity = 1

                         Standard orientation:
 ---------------------------------------------------------------------
 Center     Atomic      Atomic             Coordinates (Angstroms)
 Number     Number       Type             X           Y           Z
 ---------------------------------------------------------------------
      1          7           0        0.904736   -0.255110    0.000310
      2          7           0       -0.283121   -0.890884    0.000203
      3          6           0       -1.121644    0.134259    0.000027
      4          7           0       -0.575291    1.367842   -0.000130
      5          7           0       -2.567499   -0.085520   -0.000028
      6          6           0        0.717005    1.089791   -0.000013
      7          1           0        1.531382    1.798075    0.000113
      8          8           0       -2.950519   -1.251863   -0.000081
      9          8           0       -3.276837    0.913698    0.000006
     10          6           0        2.138137   -1.053946   -0.000178
     11          1           0        2.114457   -1.701944    0.882663
     12          6           0        3.335826   -0.222656   -0.000078
     13          6           0        4.342672    0.441094    0.000005
     14          1           0        5.235148    1.024984    0.000121
     15          1           0        2.114116   -1.701349   -0.883368
 ---------------------------------------------------------------------

 SCF Done:  E(RB3LYP) =  -562.191484353     A.U. after    1 cycles

 The electronic state is 1-A.
 Alpha  occ. eigenvalues --  -19.18255 -19.18130 -14.57700 -14.46764 -14.40096
 Alpha  occ. eigenvalues --  -14.36395 -10.30255 -10.29934 -10.29024 -10.23407
 Alpha  occ. eigenvalues --  -10.22897  -1.22881  -1.12412  -1.05589  -0.95188
 Alpha  occ. eigenvalues --   -0.89138  -0.82205  -0.76769  -0.73567  -0.65996
 Alpha  occ. eigenvalues --   -0.61186  -0.57781  -0.55918  -0.54714  -0.53038
 Alpha  occ. eigenvalues --   -0.52644  -0.50930  -0.49759  -0.48057  -0.45934
 Alpha  occ. eigenvalues --   -0.36838  -0.33296  -0.32453  -0.31485  -0.31043
 Alpha  occ. eigenvalues --   -0.30660  -0.30585  -0.30164  -0.28911
 Alpha virt. eigenvalues --   -0.08656  -0.02108  -0.00809   0.01124   0.05294
 Alpha virt. eigenvalues --    0.08433   0.09355   0.11175   0.14044   0.15031
 Alpha virt. eigenvalues --    0.16070   0.16656   0.21876   0.24545   0.26224

 Mulliken charges:
               1
     1  N   -0.276617
     2  N   -0.279537
     3  C    0.616302
     4  N   -0.455517
     5  N    0.374324
     6  C    0.313305
     7  H    0.155803
     8  O   -0.378243
     9  O   -0.367145
    10  C   -0.106181
    11  H    0.184543
    12  C    0.268962
    13  C   -0.417826
    14  H    0.183274
    15  H    0.184552
 Sum of Mulliken charges =  -0.00000

 Dipole moment (field-independent basis, Debye):
    X=              7.6287    Y=             -0.1792    Z=             -0.0002  Tot=              7.6308
 Quadrupole moment (field-independent basis, Debye-Ang):
   XX=            -60.5516   YY=            -63.6839   ZZ=            -59.2914
   XY=              2.4473   XZ=             -0.0001   YZ=              0.0014

  Exact polarizability: 120.233   7.750  77.702   0.003  -0.001  36.389
 Approx polarizability: 167.847  12.083 163.352   0.007  -0.004  55.385

                      1                      2                      3
                      A                      A                      A
 Frequencies --     18.0056                42.1895               110.6452
 Red. masses --      4.0003                 9.6929                 5.5020
 Frc consts  --      0.0008                 0.0102                 0.0397
 IR Inten    --      2.1851                 0.0059                 0.2966

                      4                      5                      6
                      A                      A                      A
 Frequencies --    144.4995               199.1382               269.6322
 Red. masses --      4.9306                 7.5751                 5.1371
 Frc consts  --      0.0607                 0.1770                 0.2200
 IR Inten    --      1.0196                 0.6203                 1.2398

                      7                      8                      9
                      A                      A                      A
 Frequencies --    326.3136               343.5752               380.3491
 Red. masses --      3.6720                 7.2332                 9.6338
 Frc consts  --      0.2304                 0.5031                 0.8211
 IR Inten    --      4.8673                 5.2037                 0.6471

                     10                     11                     12
                      A                      A                      A
 Frequencies --    502.5345               586.3819               631.2603
 Red. masses --     10.7273                10.9009                 1.2269
 Frc consts  --      1.5961                 2.2084                 0.2881
 IR Inten    --      1.9743                 1.2651                46.0839

                     13                     14                     15
                      A                      A                      A
 Frequencies --    646.2219               668.4541               691.0491
 Red. masses --      4.8718                 8.4141                 1.3041
 Frc consts  --      1.1987                 2.2151                 0.3669
 IR Inten    --      0.0001                28.2192                26.8462

                     16                     17                     18
                      A                      A                      A
 Frequencies --    751.6083               784.6273               846.1209
 Red. masses --      4.2975                13.1874                14.6014
 Frc consts  --      1.4304                 4.7834                 6.1590
 IR Inten    --     27.9088                 0.5334                80.0536

                     19                     20                     21
                      A                      A                      A
 Frequencies --    869.0990               981.7301               998.8012
 Red. masses --      1.3549                 4.0676                 1.6750
 Frc consts  --      0.6030                 2.3098                 0.9845
 IR Inten    --     10.7768                 4.2721                 0.4246

                     22                     23                     24
                      A                      A                      A
 Frequencies --   1039.2079              1053.3807              1216.1826
 Red. masses --      6.3912                 5.8802                 1.6796
 Frc consts  --      4.0667                 3.8442                 1.4637
 IR Inten    --      2.9253                25.3829                46.9446

                     25                     26                     27
                      A                      A                      A
 Frequencies --   1255.7667              1260.3269              1357.5860
 Red. masses --      1.0724                 3.8063                 4.0180
 Frc consts  --      0.9964                 3.5622                 4.3631
 IR Inten    --      1.0963                 0.5135               199.3016

                     28                     29                     30
                      A                      A                      A
 Frequencies --   1367.3830              1414.3174              1441.1752
 Red. masses --      4.6098                 7.3445                 8.6739
 Frc consts  --      5.0782                 8.6558                10.6145
 IR Inten    --     11.8658                15.4335               112.4274

                     31                     32                     33
                      A                      A                      A
 Frequencies --   1470.0501              1506.2058              1544.1727
 Red. masses --      2.3381                 1.2945                 5.7748
 Frc consts  --      2.9769                 1.7303                 8.1130
 IR Inten    --      2.1443                 4.4920                52.4658

                     34                     35                     36
                      A                      A                      A
 Frequencies --   1667.2358              2254.2851              3061.1767
 Red. masses --     14.4958                 5.8971                 1.0581
 Frc consts  --     23.7403                17.6566                 5.8419
 IR Inten    --    203.5124                 5.6962                 5.7364

                     37                     38                     39
                      A                      A                      A
 Frequencies --   3099.4533              3296.2167              3482.7119
 Red. masses --      1.1058                 1.0989                 1.1639
 Frc consts  --      6.2591                 7.0344                 8.3178
 IR Inten    --      1.0863                 1.0138                75.0413

 - Thermochemistry -
 -------------------
 Temperature   298.150 Kelvin.  Pressure   1.00000 Atm.
 Atom     1 has atomic number  7 and mass  14.00307

 Molecular mass:   152.03343 amu.
 Principal axes and moments of inertia in atomic units:
                           1         2         3
     Eigenvalues --   425.658863200.650523615.08453
           X            1.00000   0.00113  -0.00000
           Y           -0.00113   1.00000   0.00001
           Z            0.00000  -0.00001   1.00000
 This molecule is an asymmetric top.
 Rotational symmetry number  1.
 Rotational temperatures (Kelvin)      0.20348     0.02706     0.02396
 Rotational constants (GHZ):           4.23988     0.56387     0.49923
 Zero-point vibrational energy     260660.7 (Joules/Mol)
                                   62.29941 (Kcal/Mol)
 Warning -- explicit consideration of  11 degrees of freedom as
           vibrations may cause significant error
 Vibrational temperatures:     25.91    60.70   159.19   207.90   286.52
          (Kelvin)            387.94   469.49   494.33   547.24   723.03
                              843.67   908.24   929.77   961.76   994.26
                             1081.40  1128.90  1217.38  1250.44  1412.49
                             1437.05  1495.19  1515.58  1749.81  1806.77
                             1813.33  1953.26  1967.36  2034.88  2073.53
                             2115.07  2167.09  2221.72  2398.78  3243.41
                             4404.35  4459.42  4742.51  5010.84

 Zero-point correction=                           0.099280 (Hartree/Particle)
 Thermal correction to Energy=                    0.108786
 Thermal correction to Enthalpy=                  0.109730
 Thermal correction to Gibbs Free Energy=         0.062157
 Sum of electronic and zero-point Energies=           -562.092204
 Sum of electronic and thermal Energies=              -562.082698
 Sum of electronic and thermal Enthalpies=            -562.081754
 Sum of electronic and thermal Free Energies=         -562.129328

                     E (Thermal)             CV                S
                      KCal/Mol        Cal/Mol-Kelvin    Cal/Mol-Kelvin
 Total                   68.264             33.215            100.127
 Electronic               0.000              0.000              0.000
 Translational            0.889              2.981             40.967
 Rotational               0.889              2.981             29.978
 Vibrational             66.487             27.254             29.182
 Vibration     1          0.593              1.986              6.843
 Vibration     2          0.595              1.980              5.154
 Vibration     3          0.606              1.941              3.258
 Vibration     4          0.616              1.909              2.743
 Vibration     5          0.637              1.841              2.141
 Vibration     6          0.674              1.729              1.599
 Vibration     7          0.710              1.623              1.278
 Vibration     8          0.722              1.588              1.196
 Vibration     9          0.750              1.512              1.038
 Vibration    10          0.858              1.244              0.652
 Vibration    11          0.943              1.061              0.474

 Optimization completed.
    -- Stationary point found.
 Normal termination of Gaussian 09 at Fri Aug 20 16:03:36 2021.
