 Gaussian 09, Revision E.01,
 Gaussian 09:  ES64L-G09RevE.01 30-Nov-2015

 -------------------------
 #P OPT Freq B3LYP/6-31G**
 -------------------------

 ------
 WASRAJ
 ------
 Symbolic Z-matrix:
 Charge =  0 Multiplicity = 1

 SCF Done:  E(RB3LYP) =  -751.788205444     A.U. after   17 cycles
 SCF Done:  E(RB3LYP) =  -751.892199010     A.U. after   14 cycles
 SCF Done:  E(RB3LYP) =  -751.935529878     A.U. after   16 cycles
 SCF Done:  E(RB3LYP) =  -751.936963620     A.U. after   15 cycles
 SCF Done:  E(RB3LYP) =  -751.931610506     A.U. after   17 cycles
 SCF Done:  E(RB3LYP) =  -751.938364366     A.U. after   11 cycles
 SCF Done:  E(RB3LYP) =  -751.938465805     A.U. after   15 cycles
 SCF Done:  E(RB3LYP) =  -751.938130604     A.U. after   14 cycles
 SCF Done:  E(RB3LYP) =  -751.938917717     A.U. after   10 cycles
 SCF Done:  E(RB3LYP) =  -751.939412851     A.U. after   14 cycles
 SCF Done:  E(RB3LYP) =  -751.939470766     A.U. after   12 cycles
 SCF Done:  E(RB3LYP) =  -751.939482963     A.U. after   12 cycles
 SCF Done:  E(RB3LYP) =  -751.939485651     A.U. after   10 cycles
 SCF Done:  E(RB3LYP) =  -751.939486155     A.U. after   10 cycles
 SCF Done:  E(RB3LYP) =  -751.939486283     A.U. after    9 cycles
 Optimization completed.
    -- Stationary point found.
 Normal termination of Gaussian 09 at Fri Aug 20 15:45:43 2021.

 ----------------------------------------------------------------------
 #P Geom=AllCheck Guess=TCheck SCRF=Check GenChk RB3LYP/6-31G(d,p) Freq
 ----------------------------------------------------------------------

 Structure from the checkpoint file:  "/public/home/users/caep010/.cache/gau_scr/Gau-70700.chk"
 ------
 WASRAJ
 ------
 Charge =  0 Multiplicity = 1

                         Standard orientation:
 ---------------------------------------------------------------------
 Center     Atomic      Atomic             Coordinates (Angstroms)
 Number     Number       Type             X           Y           Z
 ---------------------------------------------------------------------
      1          8           0        0.928629    2.890721   -0.000371
      2          7           0        1.474544    1.790994    0.000083
      3          6           0        0.643357    0.599447   -0.000199
      4          8           0        2.714745    1.655042    0.000838
      5          6           0       -0.737282    0.806630   -0.000087
      6          6           0        1.197278   -0.721129   -0.000367
      7          7           0        2.532232   -0.952394   -0.000943
      8          7           0        3.029093   -2.264163    0.000440
      9          1           0        3.607039   -2.402585    0.826487
     10          1           0        3.608477   -2.403546   -0.824407
     11          6           0       -1.588075   -0.280574   -0.000039
     12          7           0       -3.030964   -0.060990    0.000126
     13          8           0       -3.437620    1.101675   -0.000082
     14          8           0       -3.756578   -1.058233    0.000443
     15          6           0       -1.083828   -1.592177   -0.000112
     16          1           0       -1.779567   -2.422119    0.000040
     17          6           0        0.275001   -1.804207   -0.000299
     18          1           0        0.685777   -2.804699   -0.000437
     19          1           0        3.138610   -0.137920    0.000400
     20          1           0       -1.126791    1.815172   -0.000024
 ---------------------------------------------------------------------

 SCF Done:  E(RB3LYP) =  -751.939486283     A.U. after    1 cycles

 The electronic state is 1-A.
 Alpha  occ. eigenvalues --  -19.19470 -19.19264 -19.17852 -19.17816 -14.58648
 Alpha  occ. eigenvalues --  -14.57130 -14.41693 -14.39799 -10.29076 -10.27012
 Alpha  occ. eigenvalues --  -10.25558 -10.23853 -10.23461 -10.22153  -1.23571
 Alpha  occ. eigenvalues --   -1.22162  -1.06191  -1.04855  -1.03239  -0.91572
 Alpha  occ. eigenvalues --   -0.86039  -0.82857  -0.79166  -0.72623  -0.69706
 Alpha  occ. eigenvalues --   -0.64148  -0.61130  -0.57309  -0.56595  -0.54959
 Alpha  occ. eigenvalues --   -0.54601  -0.54244  -0.53280  -0.53044  -0.52764
 Alpha  occ. eigenvalues --   -0.50649  -0.47121  -0.46747  -0.44251  -0.41924
 Alpha  occ. eigenvalues --   -0.39677  -0.35182  -0.33275  -0.32215  -0.31343
 Alpha  occ. eigenvalues --   -0.30869  -0.30623  -0.29629  -0.29449  -0.28921
 Alpha  occ. eigenvalues --   -0.24593
 Alpha virt. eigenvalues --   -0.10125  -0.08568  -0.01870   0.01044   0.04232
 Alpha virt. eigenvalues --    0.08107   0.11576   0.11767   0.12619   0.14213
 Alpha virt. eigenvalues --    0.15677   0.17436   0.18617   0.19813   0.22745

 Mulliken charges:
               1
     1  O   -0.388000
     2  N    0.379449
     3  C    0.216730
     4  O   -0.446821
     5  C   -0.109478
     6  C    0.389530
     7  N   -0.517901
     8  N   -0.442342
     9  H    0.277653
    10  H    0.277693
    11  C    0.233372
    12  N    0.382129
    13  O   -0.401715
    14  O   -0.403791
    15  C   -0.080135
    16  H    0.144867
    17  C   -0.128812
    18  H    0.136136
    19  H    0.301229
    20  H    0.180207
 Sum of Mulliken charges =  -0.00000

 Dipole moment (field-independent basis, Debye):
    X=              6.0322    Y=             -4.6423    Z=              0.0026  Tot=              7.6117
 Quadrupole moment (field-independent basis, Debye-Ang):
   XX=            -82.7311   YY=            -82.8550   ZZ=            -75.6058
   XY=            -11.7579   XZ=              0.0090   YZ=             -0.0027

  Exact polarizability: 170.102  -5.704 131.106  -0.000  -0.002  41.482
 Approx polarizability: 293.917 -11.942 252.050  -0.008  -0.009  64.718

                      1                      2                      3
                      A                      A                      A
 Frequencies --     57.6116                64.4463                78.4871
 Red. masses --     13.9252                11.2775                 4.2772
 Frc consts  --      0.0272                 0.0276                 0.0155
 IR Inten    --      0.1987                 0.6759                 1.1474

                      4                      5                      6
                      A                      A                      A
 Frequencies --    129.3514               166.6715               169.7235
 Red. masses --      5.9220                10.4775                 4.9817
 Frc consts  --      0.0584                 0.1715                 0.0846
 IR Inten    --      4.1411                 0.7257                16.0835

                      7                      8                      9
                      A                      A                      A
 Frequencies --    234.6424               267.2487               310.9581
 Red. masses --      5.2410                 1.1670                 6.5012
 Frc consts  --      0.1700                 0.0491                 0.3704
 IR Inten    --     11.0535                52.2307                 3.5175

                     10                     11                     12
                      A                      A                      A
 Frequencies --    317.9985               350.5585               391.1154
 Red. masses --      8.4394                 8.8875                10.0773
 Frc consts  --      0.5028                 0.6435                 0.9082
 IR Inten    --      0.4239                 1.8358                 0.2156

                     13                     14                     15
                      A                      A                      A
 Frequencies --    440.0982               447.6169               527.3789
 Red. masses --      8.6527                 3.9819                 3.5484
 Frc consts  --      0.9874                 0.4701                 0.5815
 IR Inten    --      0.8421                 0.3664                 2.8379

                     16                     17                     18
                      A                      A                      A
 Frequencies --    536.6894               618.0910               640.2891
 Red. masses --      9.0978                 1.0858                 6.4209
 Frc consts  --      1.5440                 0.2444                 1.5509
 IR Inten    --      7.8323                78.8744                 8.3902

                     19                     20                     21
                      A                      A                      A
 Frequencies --    669.0609               700.1323               720.7560
 Red. masses --      5.0963                 5.0955                 8.3343
 Frc consts  --      1.3441                 1.4716                 2.5509
 IR Inten    --      0.7948                 8.8716                40.6717

                     22                     23                     24
                      A                      A                      A
 Frequencies --    750.1725               764.2802               820.9804
 Red. masses --      6.7897                 8.7458                 4.3459
 Frc consts  --      2.2512                 3.0099                 1.7258
 IR Inten    --     22.7630                 1.1813                 4.7961

                     25                     26                     27
                      A                      A                      A
 Frequencies --    845.2341               868.1081               926.9690
 Red. masses --     10.8330                 1.4929                 1.8792
 Frc consts  --      4.5599                 0.6628                 0.9514
 IR Inten    --     11.3832                18.9772                75.6690

                     28                     29                     30
                      A                      A                      A
 Frequencies --    942.8230               967.1574              1009.1396
 Red. masses --      6.6884                 1.3907                 1.2852
 Frc consts  --      3.5029                 0.7664                 0.7711
 IR Inten    --     35.7167                 9.7230                 0.2279

                     31                     32                     33
                      A                      A                      A
 Frequencies --   1079.8493              1134.5229              1160.2553
 Red. masses --      2.1158                 2.1210                 3.5084
 Frc consts  --      1.4536                 1.6085                 2.7827
 IR Inten    --     75.1934                 9.5451                88.8346

                     34                     35                     36
                      A                      A                      A
 Frequencies --   1171.2087              1249.6881              1309.5643
 Red. masses --      1.6966                 1.5836                 2.4096
 Frc consts  --      1.3712                 1.4571                 2.4347
 IR Inten    --     15.3016                27.5978               163.1281

                     37                     38                     39
                      A                      A                      A
 Frequencies --   1320.3343              1358.9602              1388.1123
 Red. masses --      1.1390                 4.6070                11.0078
 Frc consts  --      1.1699                 5.0129                12.4968
 IR Inten    --      0.4658               201.0309               551.5977

                     40                     41                     42
                      A                      A                      A
 Frequencies --   1400.9447              1466.1723              1486.8501
 Red. masses --      4.5704                 4.7446                 2.6754
 Frc consts  --      5.2850                 6.0092                 3.4848
 IR Inten    --     21.5818                18.9515                79.4652

                     43                     44                     45
                      A                      A                      A
 Frequencies --   1558.7834              1600.1757              1622.2471
 Red. masses --      3.7463                 9.6405                 3.4564
 Frc consts  --      5.3633                14.5440                 5.3593
 IR Inten    --    107.7147                28.0538                31.5466

                     46                     47                     48
                      A                      A                      A
 Frequencies --   1654.6710              1669.6584              1707.9090
 Red. masses --      8.5660                 4.1524                 1.3731
 Frc consts  --     13.8181                 6.8203                 2.3599
 IR Inten    --    293.7665               187.8626               157.1472

                     49                     50                     51
                      A                      A                      A
 Frequencies --   3240.6466              3254.4212              3270.2111
 Red. masses --      1.0893                 1.0938                 1.0910
 Frc consts  --      6.7398                 6.8257                 6.8745
 IR Inten    --      1.8599                 0.9416                19.7242

                     52                     53                     54
                      A                      A                      A
 Frequencies --   3475.5314              3525.6743              3563.4549
 Red. masses --      1.0460                 1.0786                 1.0982
 Frc consts  --      7.4446                 7.8993                 8.2164
 IR Inten    --      0.5528               120.9978                 4.2319

 - Thermochemistry -
 -------------------
 Temperature   298.150 Kelvin.  Pressure   1.00000 Atm.
 Atom     1 has atomic number  8 and mass  15.99491

 Molecular mass:   198.03890 amu.
 Principal axes and moments of inertia in atomic units:
                           1         2         3
     Eigenvalues --  1651.092963715.407815356.69158
           X            0.99954  -0.03041   0.00001
           Y            0.03041   0.99954  -0.00001
           Z           -0.00001   0.00001   1.00000
 This molecule is an asymmetric top.
 Rotational symmetry number  1.
 Warning -- assumption of classical behavior for rotation
           may cause significant error
 Rotational temperatures (Kelvin)      0.05246     0.02331     0.01617
 Rotational constants (GHZ):           1.09306     0.48575     0.33691
 Zero-point vibrational energy     367275.3 (Joules/Mol)
                                   87.78091 (Kcal/Mol)
 Warning -- explicit consideration of  17 degrees of freedom as
           vibrations may cause significant error
 Vibrational temperatures:     82.89    92.72   112.93   186.11   239.80
          (Kelvin)            244.19   337.60   384.51   447.40   457.53
                              504.37   562.73   633.20   644.02   758.78
                              772.18   889.29   921.23   962.63  1007.33
                             1037.01  1079.33  1099.63  1181.21  1216.10
                             1249.01  1333.70  1356.51  1391.52  1451.93
                             1553.66  1632.32  1669.35  1685.11  1798.02
                             1884.17  1899.66  1955.24  1997.18  2015.64
                             2109.49  2139.24  2242.74  2302.29  2334.05
                             2380.70  2402.26  2457.30  4662.56  4682.38
                             4705.10  5000.51  5072.65  5127.01

 Zero-point correction=                           0.139888 (Hartree/Particle)
 Thermal correction to Energy=                    0.151783
 Thermal correction to Enthalpy=                  0.152727
 Thermal correction to Gibbs Free Energy=         0.100950
 Sum of electronic and zero-point Energies=           -751.799599
 Sum of electronic and thermal Energies=              -751.787704
 Sum of electronic and thermal Enthalpies=            -751.786759
 Sum of electronic and thermal Free Energies=         -751.838537

                     E (Thermal)             CV                S
                      KCal/Mol        Cal/Mol-Kelvin    Cal/Mol-Kelvin
 Total                   95.245             44.115            108.974
 Electronic               0.000              0.000              0.000
 Translational            0.889              2.981             41.755
 Rotational               0.889              2.981             31.864
 Vibrational             93.468             38.153             35.356
 Vibration     1          0.596              1.974              4.537
 Vibration     2          0.597              1.971              4.316
 Vibration     3          0.600              1.964              3.928
 Vibration     4          0.612              1.924              2.956
 Vibration     5          0.624              1.883              2.473
 Vibration     6          0.625              1.880              2.439
 Vibration     7          0.654              1.788              1.843
 Vibration     8          0.672              1.733              1.614
 Vibration     9          0.700              1.653              1.357
 Vibration    10          0.704              1.639              1.320
 Vibration    11          0.727              1.574              1.164
 Vibration    12          0.759              1.489              0.996
 Vibration    13          0.800              1.383              0.826
 Vibration    14          0.807              1.366              0.803
 Vibration    15          0.882              1.189              0.593
 Vibration    16          0.892              1.169              0.572
 Vibration    17          0.978              0.994              0.420

 Normal termination of Gaussian 09 at Fri Aug 20 15:46:18 2021.
