 Gaussian 09, Revision E.01,
 Gaussian 09:  ES64L-G09RevE.01 30-Nov-2015

 -------------------------
 #P OPT Freq B3LYP/6-31G**
 -------------------------

 ------
 VUYKUV
 ------
 Symbolic Z-matrix:
 Charge =  0 Multiplicity = 1

 SCF Done:  E(RB3LYP) =  -663.924570401     A.U. after   16 cycles
 SCF Done:  E(RB3LYP) =  -664.073898389     A.U. after   13 cycles
 SCF Done:  E(RB3LYP) =  -664.191685216     A.U. after   14 cycles
 SCF Done:  E(RB3LYP) =  -664.199185423     A.U. after   13 cycles
 SCF Done:  E(RB3LYP) =  -664.195605354     A.U. after   14 cycles
 SCF Done:  E(RB3LYP) =  -664.199347253     A.U. after   10 cycles
 SCF Done:  E(RB3LYP) =  -664.199730829     A.U. after   14 cycles
 SCF Done:  E(RB3LYP) =  -664.199900645     A.U. after   12 cycles
 SCF Done:  E(RB3LYP) =  -664.199937598     A.U. after   11 cycles
 SCF Done:  E(RB3LYP) =  -664.199953817     A.U. after   10 cycles
 SCF Done:  E(RB3LYP) =  -664.199998531     A.U. after   11 cycles
 SCF Done:  E(RB3LYP) =  -664.200016096     A.U. after   11 cycles
 SCF Done:  E(RB3LYP) =  -664.200031124     A.U. after   11 cycles
 SCF Done:  E(RB3LYP) =  -664.200043686     A.U. after   10 cycles
 SCF Done:  E(RB3LYP) =  -664.200062053     A.U. after   11 cycles
 SCF Done:  E(RB3LYP) =  -664.200065152     A.U. after   11 cycles
 SCF Done:  E(RB3LYP) =  -664.200067302     A.U. after   10 cycles
 SCF Done:  E(RB3LYP) =  -664.200067995     A.U. after    9 cycles
 SCF Done:  E(RB3LYP) =  -664.200068681     A.U. after    9 cycles
 Optimization completed.
    -- Stationary point found.
 Normal termination of Gaussian 09 at Fri Aug 20 16:05:39 2021.

 ----------------------------------------------------------------------
 #P Geom=AllCheck Guess=TCheck SCRF=Check GenChk RB3LYP/6-31G(d,p) Freq
 ----------------------------------------------------------------------

 Structure from the checkpoint file:  "/public/home/users/caep010/.cache/gau_scr/Gau-206169.chk"
 ------
 VUYKUV
 ------
 Charge =  0 Multiplicity = 1

                         Standard orientation:
 ---------------------------------------------------------------------
 Center     Atomic      Atomic             Coordinates (Angstroms)
 Number     Number       Type             X           Y           Z
 ---------------------------------------------------------------------
      1          6           0       -2.535001   -0.291307    0.198618
      2          1           0       -2.224419   -1.213353    0.705469
      3          7           0       -3.877814   -0.184163    0.048260
      4          6           0       -4.782828   -1.136938    0.662885
      5          6           0       -4.472086    0.976450   -0.596693
      6          7           0       -1.700567    0.609673   -0.197477
      7          6           0       -0.335167    0.356810   -0.132645
      8          6           0        0.523564    1.435797    0.170162
      9          6           0        1.895812    1.260543    0.240545
     10          6           0        2.433170   -0.005415   -0.009959
     11          6           0        0.242834   -0.903910   -0.404962
     12          7           0        3.878948   -0.196507    0.059041
     13          6           0        1.617037   -1.088162   -0.338030
     14          8           0        4.324495   -1.324755   -0.168461
     15          8           0        4.577369    0.779862    0.343943
     16          1           0        2.071833   -2.048622   -0.546272
     17          1           0        2.561749    2.079034    0.483321
     18          1           0        0.078583    2.407076    0.357280
     19          1           0       -5.365850   -0.671240    1.468740
     20          1           0       -0.393120   -1.731974   -0.701946
     21          1           0       -3.678264    1.564015   -1.055254
     22          1           0       -5.186648    0.654295   -1.362627
     23          1           0       -5.485226   -1.534568   -0.079334
     24          1           0       -4.217370   -1.970811    1.084314
     25          1           0       -5.004169    1.599057    0.134160
 ---------------------------------------------------------------------

 SCF Done:  E(RB3LYP) =  -664.200068681     A.U. after    1 cycles

 The electronic state is 1-A.
 Alpha  occ. eigenvalues --  -19.16148 -19.16133 -14.55346 -14.39164 -14.32466
 Alpha  occ. eigenvalues --  -10.27862 -10.24650 -10.23855 -10.23338 -10.23168
 Alpha  occ. eigenvalues --  -10.20736 -10.20519 -10.20021 -10.19526  -1.20371
 Alpha  occ. eigenvalues --   -1.03017  -0.99277  -0.92308  -0.86662  -0.78706
 Alpha  occ. eigenvalues --   -0.75991  -0.74889  -0.72748  -0.67229  -0.62498
 Alpha  occ. eigenvalues --   -0.59556  -0.57274  -0.55001  -0.53322  -0.51603
 Alpha  occ. eigenvalues --   -0.51280  -0.49539  -0.49194  -0.46354  -0.45713
 Alpha  occ. eigenvalues --   -0.45207  -0.43278  -0.42569  -0.42416  -0.40705
 Alpha  occ. eigenvalues --   -0.40383  -0.38931  -0.36434  -0.35190  -0.30194
 Alpha  occ. eigenvalues --   -0.29168  -0.29033  -0.27268  -0.26446  -0.25754
 Alpha  occ. eigenvalues --   -0.21904
 Alpha virt. eigenvalues --   -0.07280  -0.01275  -0.00674   0.04414   0.07068
 Alpha virt. eigenvalues --    0.09689   0.09823   0.12351   0.13172   0.13639
 Alpha virt. eigenvalues --    0.13934   0.14970   0.15923   0.16335   0.16876

 Mulliken charges:
               1
     1  C    0.339520
     2  H    0.096415
     3  N   -0.409111
     4  C   -0.173886
     5  C   -0.181200
     6  N   -0.547482
     7  C    0.274604
     8  C   -0.112343
     9  C   -0.096132
    10  C    0.243380
    11  C   -0.119837
    12  N    0.376485
    13  C   -0.102085
    14  O   -0.411700
    15  O   -0.409377
    16  H    0.131164
    17  H    0.131500
    18  H    0.098610
    19  H    0.126320
    20  H    0.087697
    21  H    0.166141
    22  H    0.118375
    23  H    0.126399
    24  H    0.125620
    25  H    0.120926
 Sum of Mulliken charges =  -0.00000

 Dipole moment (field-independent basis, Debye):
    X=             -9.1797    Y=             -0.9178    Z=              0.5164  Tot=              9.2399
 Quadrupole moment (field-independent basis, Debye-Ang):
   XX=            -86.3190   YY=            -77.4084   ZZ=            -80.9368
   XY=              6.0700   XZ=             -2.4224   YZ=             -0.4977

  Exact polarizability: 252.978   3.218 118.395   2.232   6.602  62.160
 Approx polarizability: 353.860   8.068 221.353   7.166  19.168  95.658

                      1                      2                      3
                      A                      A                      A
 Frequencies --     46.3654                53.8266                70.8118
 Red. masses --      4.2169                 4.2045                 1.9147
 Frc consts  --      0.0053                 0.0072                 0.0057
 IR Inten    --      0.9102                 0.3141                 0.5167

                      4                      5                      6
                      A                      A                      A
 Frequencies --     72.8921                94.6678               145.1184
 Red. masses --      5.6701                 2.3312                 3.5746
 Frc consts  --      0.0178                 0.0123                 0.0444
 IR Inten    --      0.1962                 0.1432                 5.1642

                      7                      8                      9
                      A                      A                      A
 Frequencies --    165.5996               222.8792               231.3316
 Red. masses --      1.3780                 2.2623                 4.6007
 Frc consts  --      0.0223                 0.0662                 0.1451
 IR Inten    --      0.7712                 3.5500                 0.7296

                     10                     11                     12
                      A                      A                      A
 Frequencies --    245.9181               309.6543               346.8959
 Red. masses --      3.2661                 5.5495                 2.9902
 Frc consts  --      0.1164                 0.3135                 0.2120
 IR Inten    --      0.6323                 1.1745                17.5726

                     13                     14                     15
                      A                      A                      A
 Frequencies --    383.6290               400.4029               431.4640
 Red. masses --      4.4771                 3.2357                 3.1951
 Frc consts  --      0.3882                 0.3056                 0.3505
 IR Inten    --      2.7276                 0.3077                 0.4266

                     16                     17                     18
                      A                      A                      A
 Frequencies --    477.4395               526.7233               534.8031
 Red. masses --      4.5394                 3.4178                 5.7829
 Frc consts  --      0.6097                 0.5587                 0.9745
 IR Inten    --      6.2080                 5.5487                 4.6456

                     19                     20                     21
                      A                      A                      A
 Frequencies --    562.6262               647.0635               691.5472
 Red. masses --      4.5952                 7.1262                 6.8185
 Frc consts  --      0.8570                 1.7579                 1.9212
 IR Inten    --      2.7818                 0.1811                 4.1889

                     22                     23                     24
                      A                      A                      A
 Frequencies --    710.8236               763.5134               836.5707
 Red. masses --      3.8138                 6.6235                 1.6312
 Frc consts  --      1.1353                 2.2749                 0.6726
 IR Inten    --     11.9254                18.3601                 1.8812

                     25                     26                     27
                      A                      A                      A
 Frequencies --    839.1920               869.7229               874.4193
 Red. masses --      3.0961                 2.1295                 4.1652
 Frc consts  --      1.2847                 0.9490                 1.8764
 IR Inten    --      3.6471                28.9422                53.2521

                     28                     29                     30
                      A                      A                      A
 Frequencies --    917.3993               977.7061               990.6544
 Red. masses --      4.0657                 1.3171                 1.2999
 Frc consts  --      2.0161                 0.7418                 0.7516
 IR Inten    --      3.2930                 0.6651                 1.2989

                     31                     32                     33
                      A                      A                      A
 Frequencies --    994.9819              1023.7206              1090.4052
 Red. masses --      1.4857                 2.6692                 1.3839
 Frc consts  --      0.8666                 1.6481                 0.9695
 IR Inten    --     66.7627                 0.0996                 8.6174

                     34                     35                     36
                      A                      A                      A
 Frequencies --   1122.4932              1128.9608              1133.6943
 Red. masses --      1.9024                 1.2583                 1.2326
 Frc consts  --      1.4123                 0.9449                 0.9334
 IR Inten    --    440.0715                32.7558                 7.3755

                     37                     38                     39
                      A                      A                      A
 Frequencies --   1135.8338              1178.7786              1199.1829
 Red. masses --      2.1972                 1.3648                 1.3570
 Frc consts  --      1.6701                 1.1173                 1.1498
 IR Inten    --      2.5628                 7.3988                17.1930

                     40                     41                     42
                      A                      A                      A
 Frequencies --   1257.9140              1291.2272              1317.0907
 Red. masses --      3.9670                 3.0215                 1.4316
 Frc consts  --      3.6984                 2.9681                 1.4632
 IR Inten    --     24.4157                76.5018                20.8159

                     43                     44                     45
                      A                      A                      A
 Frequencies --   1363.1632              1386.2012              1415.1313
 Red. masses --      7.0878                10.3371                 1.4627
 Frc consts  --      7.7600                11.7031                 1.7258
 IR Inten    --     10.3546               931.7171                45.3879

                     46                     47                     48
                      A                      A                      A
 Frequencies --   1449.6742              1453.5506              1465.7119
 Red. masses --      1.1593                 3.0334                 2.3148
 Frc consts  --      1.4355                 3.7761                 2.9299
 IR Inten    --      4.9889                14.4109                62.7786

                     49                     50                     51
                      A                      A                      A
 Frequencies --   1481.0003              1489.2602              1508.7126
 Red. masses --      1.2868                 1.0422                 1.0697
 Frc consts  --      1.6630                 1.3620                 1.4346
 IR Inten    --     30.7554                 4.0573                17.3953

                     52                     53                     54
                      A                      A                      A
 Frequencies --   1516.8016              1533.4888              1557.9626
 Red. masses --      1.0894                 1.7598                 1.6794
 Frc consts  --      1.4768                 2.4382                 2.4017
 IR Inten    --     11.5571                30.8905                29.6182

                     55                     56                     57
                      A                      A                      A
 Frequencies --   1595.4671              1640.8983              1653.7556
 Red. masses --      9.8267                 5.9169                 9.6018
 Frc consts  --     14.7379                 9.3866                15.4720
 IR Inten    --     77.4793               563.4553               195.4984

                     58                     59                     60
                      A                      A                      A
 Frequencies --   1715.0318              3019.7082              3029.3419
 Red. masses --      5.8693                 1.0385                 1.0402
 Frc consts  --     10.1714                 5.5795                 5.6243
 IR Inten    --    822.8019                61.7017               111.3605

                     61                     62                     63
                      A                      A                      A
 Frequencies --   3064.2265              3074.8892              3085.1658
 Red. masses --      1.0871                 1.1015                 1.1026
 Frc consts  --      6.0139                 6.1362                 6.1832
 IR Inten    --     31.8722                39.9818                22.4534

                     64                     65                     66
                      A                      A                      A
 Frequencies --   3139.1176              3179.8418              3196.6830
 Red. masses --      1.0998                 1.0982                 1.0896
 Frc consts  --      6.3852                 6.5424                 6.5601
 IR Inten    --     16.3249                 0.6919                 9.5790

                     67                     68                     69
                      A                      A                      A
 Frequencies --   3212.5683              3240.9668              3243.7468
 Red. masses --      1.0902                 1.0927                 1.0933
 Frc consts  --      6.6295                 6.7624                 6.7778
 IR Inten    --      4.7773                 0.4793                 0.7527

 - Thermochemistry -
 -------------------
 Temperature   298.150 Kelvin.  Pressure   1.00000 Atm.
 Atom     1 has atomic number  6 and mass  12.00000

 Molecular mass:   193.08513 amu.
 Principal axes and moments of inertia in atomic units:
                           1         2         3
     Eigenvalues --   707.314187212.971987737.49459
           X            0.99999   0.00431  -0.00155
           Y           -0.00433   0.99990  -0.01348
           Z            0.00149   0.01349   0.99991
 This molecule is an asymmetric top.
 Rotational symmetry number  1.
 Warning -- assumption of classical behavior for rotation
           may cause significant error
 Rotational temperatures (Kelvin)      0.12245     0.01201     0.01119
 Rotational constants (GHZ):           2.55154     0.25021     0.23325
 Zero-point vibrational energy     520543.1 (Joules/Mol)
                                  124.41279 (Kcal/Mol)
 Warning -- explicit consideration of  19 degrees of freedom as
           vibrations may cause significant error
 Vibrational temperatures:     66.71    77.44   101.88   104.88   136.21
          (Kelvin)            208.79   238.26   320.67   332.83   353.82
                              445.52   499.11   551.96   576.09   620.78
                              686.93   757.84   769.46   809.49   930.98
                              994.98  1022.72  1098.52  1203.64  1207.41
                             1251.34  1258.09  1319.93  1406.70  1425.33
                             1431.56  1472.90  1568.85  1615.02  1624.32
                             1631.13  1634.21  1696.00  1725.35  1809.86
                             1857.79  1895.00  1961.29  1994.43  2036.06
                             2085.76  2091.33  2108.83  2130.83  2142.71
                             2170.70  2182.34  2206.35  2241.56  2295.52
                             2360.88  2379.38  2467.55  4344.68  4358.54
                             4408.73  4424.07  4438.86  4516.48  4575.08
                             4599.31  4622.16  4663.02  4667.02

 Zero-point correction=                           0.198264 (Hartree/Particle)
 Thermal correction to Energy=                    0.211577
 Thermal correction to Enthalpy=                  0.212521
 Thermal correction to Gibbs Free Energy=         0.157046
 Sum of electronic and zero-point Energies=           -664.001804
 Sum of electronic and thermal Energies=              -663.988492
 Sum of electronic and thermal Enthalpies=            -663.987548
 Sum of electronic and thermal Free Energies=         -664.043023

                     E (Thermal)             CV                S
                      KCal/Mol        Cal/Mol-Kelvin    Cal/Mol-Kelvin
 Total                  132.766             48.312            116.757
 Electronic               0.000              0.000              0.000
 Translational            0.889              2.981             41.679
 Rotational               0.889              2.981             32.046
 Vibrational            130.989             42.350             43.032
 Vibration     1          0.595              1.979              4.967
 Vibration     2          0.596              1.976              4.672
 Vibration     3          0.598              1.968              4.131
 Vibration     4          0.599              1.967              4.074
 Vibration     5          0.603              1.953              3.561
 Vibration     6          0.617              1.908              2.735
 Vibration     7          0.624              1.885              2.485
 Vibration     8          0.649              1.806              1.936
 Vibration     9          0.653              1.793              1.869
 Vibration    10          0.660              1.770              1.760
 Vibration    11          0.699              1.655              1.364
 Vibration    12          0.725              1.582              1.180
 Vibration    13          0.753              1.505              1.025
 Vibration    14          0.766              1.469              0.961
 Vibration    15          0.793              1.402              0.854
 Vibration    16          0.834              1.300              0.717
 Vibration    17          0.882              1.191              0.595
 Vibration    18          0.890              1.173              0.577
 Vibration    19          0.918              1.112              0.519

 Optimization completed.
    -- Stationary point found.
 Normal termination of Gaussian 09 at Fri Aug 20 16:06:21 2021.
