 Gaussian 09, Revision E.01,
 Gaussian 09:  ES64L-G09RevE.01 30-Nov-2015

 -------------------------
 #P OPT Freq B3LYP/6-31G**
 -------------------------

 ------
 TECSAX
 ------
 Symbolic Z-matrix:
 Charge =  0 Multiplicity = 1

 SCF Done:  E(RB3LYP) =  -701.106157533     A.U. after   17 cycles
 SCF Done:  E(RB3LYP) =  -701.209232333     A.U. after   14 cycles
 SCF Done:  E(RB3LYP) =  -701.267332183     A.U. after   15 cycles
 SCF Done:  E(RB3LYP) =  -701.269752795     A.U. after   14 cycles
 SCF Done:  E(RB3LYP) =  -701.260520991     A.U. after   17 cycles
 SCF Done:  E(RB3LYP) =  -701.270061814     A.U. after   11 cycles
 SCF Done:  E(RB3LYP) =  -701.270182930     A.U. after   13 cycles
 SCF Done:  E(RB3LYP) =  -701.270328674     A.U. after   13 cycles
 SCF Done:  E(RB3LYP) =  -701.270363127     A.U. after   11 cycles
 SCF Done:  E(RB3LYP) =  -701.270392196     A.U. after   13 cycles
 SCF Done:  E(RB3LYP) =  -701.270405298     A.U. after   12 cycles
 SCF Done:  E(RB3LYP) =  -701.270423608     A.U. after   13 cycles
 SCF Done:  E(RB3LYP) =  -701.270433520     A.U. after   12 cycles
 SCF Done:  E(RB3LYP) =  -701.270436430     A.U. after   11 cycles
 SCF Done:  E(RB3LYP) =  -701.270437186     A.U. after   10 cycles
 SCF Done:  E(RB3LYP) =  -701.270437454     A.U. after    9 cycles
 SCF Done:  E(RB3LYP) =  -701.270437602     A.U. after   10 cycles
 SCF Done:  E(RB3LYP) =  -701.270437696     A.U. after    9 cycles
 SCF Done:  E(RB3LYP) =  -701.270437753     A.U. after    8 cycles
 Optimization completed.
    -- Stationary point found.
 Normal termination of Gaussian 09 at Fri Aug 20 16:08:01 2021.

 ----------------------------------------------------------------------
 #P Geom=AllCheck Guess=TCheck SCRF=Check GenChk RB3LYP/6-31G(d,p) Freq
 ----------------------------------------------------------------------

 Structure from the checkpoint file:  "/public/home/users/caep010/.cache/gau_scr/Gau-47020.chk"
 ------
 TECSAX
 ------
 Charge =  0 Multiplicity = 1

                         Standard orientation:
 ---------------------------------------------------------------------
 Center     Atomic      Atomic             Coordinates (Angstroms)
 Number     Number       Type             X           Y           Z
 ---------------------------------------------------------------------
      1          8           0        1.605854    2.613797   -0.035910
      2          7           0        0.716387    1.683868   -0.050652
      3          6           0        1.139021    0.367504   -0.233676
      4          6           0        0.180266   -0.638202   -0.231138
      5          6           0       -1.170557   -0.330233   -0.065632
      6          6           0       -1.609070    0.997884    0.108255
      7          1           0        0.466290   -1.672291   -0.357561
      8          6           0       -0.607075    1.960625    0.107004
      9          1           0       -0.802574    3.016639    0.235775
     10          7           0        2.473295    0.246967   -0.421025
     11          1           0        2.952961    1.131782   -0.280630
     12          6           0        3.197217   -1.013065   -0.435735
     13          1           0        4.154234   -0.823287   -0.930819
     14          1           0        2.658051   -1.721009   -1.076021
     15          6           0        3.432670   -1.621202    0.952099
     16          1           0        2.486661   -1.831408    1.459877
     17          1           0        3.986833   -2.561339    0.865626
     18          7           0       -2.097150   -1.463404   -0.079691
     19          8           0       -1.620778   -2.593307   -0.216640
     20          8           0       -3.303098   -1.236441    0.044803
     21          6           0       -3.031947    1.462461    0.296752
     22          1           0       -3.659035    1.187281   -0.554358
     23          1           0       -3.490027    1.004724    1.176501
     24          1           0       -3.051455    2.549109    0.413265
     25          1           0        4.011355   -0.939250    1.582327
 ---------------------------------------------------------------------

 SCF Done:  E(RB3LYP) =  -701.270437753     A.U. after    2 cycles

 The electronic state is 1-A.
 Alpha  occ. eigenvalues --  -19.18017 -19.17916 -19.13880 -14.57277 -14.48893
 Alpha  occ. eigenvalues --  -14.37199 -10.29247 -10.26225 -10.24905 -10.24541
 Alpha  occ. eigenvalues --  -10.23776 -10.22419 -10.19891 -10.19597  -1.22308
 Alpha  occ. eigenvalues --   -1.12195  -1.04905  -0.96505  -0.91353  -0.84035
 Alpha  occ. eigenvalues --   -0.81142  -0.77227  -0.73743  -0.70822  -0.66518
 Alpha  occ. eigenvalues --   -0.64292  -0.60719  -0.57196  -0.55431  -0.53297
 Alpha  occ. eigenvalues --   -0.51547  -0.50532  -0.49786  -0.48716  -0.48135
 Alpha  occ. eigenvalues --   -0.47702  -0.44744  -0.43514  -0.42629  -0.42091
 Alpha  occ. eigenvalues --   -0.40923  -0.39679  -0.38862  -0.37063  -0.35448
 Alpha  occ. eigenvalues --   -0.32746  -0.30850  -0.30834  -0.28896  -0.26948
 Alpha  occ. eigenvalues --   -0.25462  -0.21358
 Alpha virt. eigenvalues --   -0.09597  -0.02587  -0.00909   0.07350   0.08816
 Alpha virt. eigenvalues --    0.10085   0.11152   0.11786   0.13004   0.13751
 Alpha virt. eigenvalues --    0.14639   0.14752   0.16278   0.16872   0.18793

 Mulliken charges:
               1
     1  O   -0.527992
     2  N   -0.100490
     3  C    0.576499
     4  C   -0.173728
     5  C    0.236261
     6  C    0.060377
     7  H    0.147066
     8  C    0.090713
     9  H    0.140571
    10  N   -0.580684
    11  H    0.292824
    12  C   -0.060327
    13  H    0.122713
    14  H    0.122190
    15  C   -0.315582
    16  H    0.121376
    17  H    0.114938
    18  N    0.382215
    19  O   -0.406075
    20  O   -0.409505
    21  C   -0.346349
    22  H    0.145867
    23  H    0.145017
    24  H    0.104227
    25  H    0.117877
 Sum of Mulliken charges =  -0.00000

 Dipole moment (field-independent basis, Debye):
    X=              2.5727    Y=              0.4752    Z=              0.2081  Tot=              2.6245
 Quadrupole moment (field-independent basis, Debye-Ang):
   XX=            -78.2350   YY=            -91.0990   ZZ=            -80.7853
   XY=            -17.0011   XZ=             -0.9529   YZ=              0.5048

  Exact polarizability: 178.782   4.599 145.259  -6.458   5.388  61.194
 Approx polarizability: 309.137  48.357 292.936 -15.727  14.674  92.089

                      1                      2                      3
                      A                      A                      A
 Frequencies --     33.6615                42.9135                63.4349
 Red. masses --      8.6794                 3.7449                 2.9267
 Frc consts  --      0.0058                 0.0041                 0.0069
 IR Inten    --      0.4706                 2.7293                 0.2105

                      4                      5                      6
                      A                      A                      A
 Frequencies --     96.5606               152.8562               164.7871
 Red. masses --      6.8099                 2.5839                 3.1286
 Frc consts  --      0.0374                 0.0356                 0.0501
 IR Inten    --      3.1773                 1.3574                 0.9781

                      7                      8                      9
                      A                      A                      A
 Frequencies --    228.2792               232.6762               260.4352
 Red. masses --      1.1784                 1.5690                 2.9921
 Frc consts  --      0.0362                 0.0500                 0.1196
 IR Inten    --      0.2814                 0.8519                 0.1422

                     10                     11                     12
                      A                      A                      A
 Frequencies --    284.8940               329.6823               343.8037
 Red. masses --      2.9998                 3.8088                 4.5076
 Frc consts  --      0.1435                 0.2439                 0.3139
 IR Inten    --      6.8348                 0.4906                 3.5711

                     13                     14                     15
                      A                      A                      A
 Frequencies --    366.2932               380.9145               441.3712
 Red. masses --      7.9238                 5.8655                 3.2861
 Frc consts  --      0.6264                 0.5014                 0.3772
 IR Inten    --      0.9346                 3.2894                14.2500

                     16                     17                     18
                      A                      A                      A
 Frequencies --    464.3286               485.0413               506.9634
 Red. masses --      3.7248                 6.1364                 2.4118
 Frc consts  --      0.4731                 0.8506                 0.3652
 IR Inten    --      2.7874                 1.0719                40.3359

                     19                     20                     21
                      A                      A                      A
 Frequencies --    567.3170               605.8811               636.0703
 Red. masses --      1.4564                 5.3087                 4.8975
 Frc consts  --      0.2762                 1.1482                 1.1674
 IR Inten    --     52.9885                 6.7232                13.6442

                     22                     23                     24
                      A                      A                      A
 Frequencies --    676.1414               694.5691               738.2386
 Red. masses --      5.4359                 7.1156                 5.6207
 Frc consts  --      1.4642                 2.0225                 1.8048
 IR Inten    --     21.8703                 0.3252                 2.4575

                     25                     26                     27
                      A                      A                      A
 Frequencies --    756.7670               785.8789               834.6462
 Red. masses --      7.5824                 1.4753                 3.8341
 Frc consts  --      2.5585                 0.5368                 1.5737
 IR Inten    --     13.1995                12.3883                11.3475

                     28                     29                     30
                      A                      A                      A
 Frequencies --    854.4478               880.2663               892.8851
 Red. masses --      1.2892                 1.4347                 2.6966
 Frc consts  --      0.5546                 0.6550                 1.2666
 IR Inten    --      2.2681                27.1056                 2.7914

                     31                     32                     33
                      A                      A                      A
 Frequencies --    924.8790              1037.5288              1061.6734
 Red. masses --      2.3644                 1.5430                 1.4556
 Frc consts  --      1.1916                 0.9787                 0.9667
 IR Inten    --      1.6420                 7.5806                 3.2258

                     34                     35                     36
                      A                      A                      A
 Frequencies --   1068.9641              1088.7491              1126.3431
 Red. masses --      2.9493                 3.0405                 2.0596
 Frc consts  --      1.9856                 2.1235                 1.5395
 IR Inten    --     10.2833                69.8120                42.2022

                     37                     38                     39
                      A                      A                      A
 Frequencies --   1168.3822              1198.8027              1242.5461
 Red. masses --      1.8975                 2.1950                 2.3814
 Frc consts  --      1.5262                 1.8586                 2.1662
 IR Inten    --     12.2463                 4.5700                 7.4476

                     40                     41                     42
                      A                      A                      A
 Frequencies --   1269.9030              1299.0154              1334.1981
 Red. masses --      2.0056                 2.5177                 1.2070
 Frc consts  --      1.9057                 2.5031                 1.2659
 IR Inten    --    100.8600                74.0797                35.2135

                     43                     44                     45
                      A                      A                      A
 Frequencies --   1370.7163              1393.0876              1405.6414
 Red. masses --      8.5022                 1.4099                 4.4708
 Frc consts  --      9.4119                 1.6122                 5.2046
 IR Inten    --    521.6448                44.5082                 3.5479

                     46                     47                     48
                      A                      A                      A
 Frequencies --   1426.8714              1434.5366              1441.8844
 Red. masses --      1.2562                 1.2208                 2.9093
 Frc consts  --      1.5069                 1.4803                 3.5637
 IR Inten    --     13.3912                 0.6505                 2.0140

                     49                     50                     51
                      A                      A                      A
 Frequencies --   1486.7485              1495.3746              1502.9950
 Red. masses --      1.0448                 1.4918                 1.1443
 Frc consts  --      1.3607                 1.9655                 1.5230
 IR Inten    --      6.1233                19.0449                42.0703

                     52                     53                     54
                      A                      A                      A
 Frequencies --   1505.7653              1510.1077              1521.6060
 Red. masses --      1.0620                 1.4254                 1.0908
 Frc consts  --      1.4187                 1.9151                 1.4880
 IR Inten    --      0.5920                 1.2894                 9.2351

                     55                     56                     57
                      A                      A                      A
 Frequencies --   1569.3003              1589.4065              1636.4800
 Red. masses --      7.6655                 3.8067                11.6802
 Frc consts  --     11.1225                 5.6659                18.4298
 IR Inten    --     13.0300               336.1176               268.2322

                     58                     59                     60
                      A                      A                      A
 Frequencies --   1695.0486              3051.0436              3053.0482
 Red. masses --      7.0791                 1.0408                 1.0585
 Frc consts  --     11.9837                 5.7083                 5.8132
 IR Inten    --    231.0119                18.5860                33.0347

                     61                     62                     63
                      A                      A                      A
 Frequencies --   3063.4123              3098.3907              3126.4811
 Red. masses --      1.0357                 1.1017                 1.1024
 Frc consts  --      5.7267                 6.2311                 6.3487
 IR Inten    --     18.2211                 8.5412                30.7937

                     64                     65                     66
                      A                      A                      A
 Frequencies --   3133.3637              3136.6673              3140.8676
 Red. masses --      1.1041                 1.1009                 1.1038
 Frc consts  --      6.3865                 6.3818                 6.4154
 IR Inten    --     31.7376                 5.5405                15.1445

                     67                     68                     69
                      A                      A                      A
 Frequencies --   3256.2923              3264.7744              3544.1549
 Red. masses --      1.0922                 1.0904                 1.0749
 Frc consts  --      6.8231                 6.8475                 7.9549
 IR Inten    --      0.1883                 6.8202                55.0932

 - Thermochemistry -
 -------------------
 Temperature   298.150 Kelvin.  Pressure   1.00000 Atm.
 Atom     1 has atomic number  8 and mass  15.99491

 Molecular mass:   197.08004 amu.
 Principal axes and moments of inertia in atomic units:
                           1         2         3
     Eigenvalues --  1818.700733550.454365163.34864
           X            0.99627  -0.08624   0.00258
           Y            0.08625   0.99627  -0.00284
           Z           -0.00232   0.00305   0.99999
 This molecule is an asymmetric top.
 Rotational symmetry number  1.
 Warning -- assumption of classical behavior for rotation
           may cause significant error
 Rotational temperatures (Kelvin)      0.04762     0.02440     0.01677
 Rotational constants (GHZ):           0.99232     0.50831     0.34953
 Zero-point vibrational energy     517247.7 (Joules/Mol)
                                  123.62516 (Kcal/Mol)
 Warning -- explicit consideration of  20 degrees of freedom as
           vibrations may cause significant error
 Vibrational temperatures:     48.43    61.74    91.27   138.93   219.93
          (Kelvin)            237.09   328.44   334.77   374.71   409.90
                              474.34   494.66   527.01   548.05   635.03
                              668.06   697.87   729.41   816.24   871.73
                              915.16   972.82   999.33  1062.16  1088.82
                             1130.70  1200.87  1229.36  1266.51  1284.66
                             1330.69  1492.77  1527.51  1538.00  1566.47
                             1620.55  1681.04  1724.81  1787.74  1827.10
                             1868.99  1919.61  1972.15  2004.34  2022.40
                             2052.95  2063.98  2074.55  2139.10  2151.51
                             2162.47  2166.46  2172.71  2189.25  2257.87
                             2286.80  2354.53  2438.79  4389.77  4392.65
                             4407.56  4457.89  4498.30  4508.21  4512.96
                             4519.00  4685.07  4697.28  5099.24

 Zero-point correction=                           0.197009 (Hartree/Particle)
 Thermal correction to Energy=                    0.210296
 Thermal correction to Enthalpy=                  0.211240
 Thermal correction to Gibbs Free Energy=         0.156128
 Sum of electronic and zero-point Energies=           -701.073429
 Sum of electronic and thermal Energies=              -701.060142
 Sum of electronic and thermal Enthalpies=            -701.059198
 Sum of electronic and thermal Free Energies=         -701.114309

                     E (Thermal)             CV                S
                      KCal/Mol        Cal/Mol-Kelvin    Cal/Mol-Kelvin
 Total                  131.963             49.583            115.992
 Electronic               0.000              0.000              0.000
 Translational            0.889              2.981             41.740
 Rotational               0.889              2.981             31.878
 Vibrational            130.185             43.621             42.374
 Vibration     1          0.594              1.983              5.601
 Vibration     2          0.595              1.980              5.120
 Vibration     3          0.597              1.972              4.347
 Vibration     4          0.603              1.952              3.523
 Vibration     5          0.619              1.900              2.636
 Vibration     6          0.623              1.886              2.494
 Vibration     7          0.651              1.798              1.892
 Vibration     8          0.653              1.791              1.858
 Vibration     9          0.668              1.745              1.659
 Vibration    10          0.683              1.702              1.504
 Vibration    11          0.712              1.616              1.262
 Vibration    12          0.723              1.588              1.194
 Vibration    13          0.739              1.542              1.095
 Vibration    14          0.751              1.511              1.036
 Vibration    15          0.801              1.380              0.822
 Vibration    16          0.822              1.329              0.754
 Vibration    17          0.841              1.283              0.697
 Vibration    18          0.862              1.235              0.641
 Vibration    19          0.923              1.102              0.509
 Vibration    20          0.965              1.019              0.440

 Normal termination of Gaussian 09 at Fri Aug 20 16:08:50 2021.
