 Gaussian 09, Revision E.01,
 Gaussian 09:  ES64L-G09RevE.01 30-Nov-2015

 -------------------------
 #P OPT Freq B3LYP/6-31G**
 -------------------------

 ------
 GULGAV
 ------
 Symbolic Z-matrix:
 Charge =  0 Multiplicity = 1

 SCF Done:  E(RB3LYP) =  -635.139726106     A.U. after   17 cycles
 SCF Done:  E(RB3LYP) =  -635.192533137     A.U. after   15 cycles
 SCF Done:  E(RB3LYP) =  -635.194367351     A.U. after   16 cycles
 SCF Done:  E(RB3LYP) =  -635.186700556     A.U. after   18 cycles
 SCF Done:  E(RB3LYP) =  -635.197504907     A.U. after   13 cycles
 SCF Done:  E(RB3LYP) =  -635.198656128     A.U. after   14 cycles
 SCF Done:  E(RB3LYP) =  -635.196967424     A.U. after   15 cycles
 SCF Done:  E(RB3LYP) =  -635.198735599     A.U. after   11 cycles
 SCF Done:  E(RB3LYP) =  -635.198837015     A.U. after   14 cycles
 SCF Done:  E(RB3LYP) =  -635.198879911     A.U. after   14 cycles
 SCF Done:  E(RB3LYP) =  -635.198906889     A.U. after   14 cycles
 SCF Done:  E(RB3LYP) =  -635.198911770     A.U. after   10 cycles
 SCF Done:  E(RB3LYP) =  -635.198912605     A.U. after   10 cycles
 SCF Done:  E(RB3LYP) =  -635.198912933     A.U. after   10 cycles
 Optimization completed.
    -- Stationary point found.
 Normal termination of Gaussian 09 at Fri Aug 20 15:40:09 2021.

 ----------------------------------------------------------------------
 #P Geom=AllCheck Guess=TCheck SCRF=Check GenChk RB3LYP/6-31G(d,p) Freq
 ----------------------------------------------------------------------

 Structure from the checkpoint file:  "/public/home/users/caep010/.cache/gau_scr/Gau-138526.chk"
 ------
 GULGAV
 ------
 Charge =  0 Multiplicity = 1

                         Standard orientation:
 ---------------------------------------------------------------------
 Center     Atomic      Atomic             Coordinates (Angstroms)
 Number     Number       Type             X           Y           Z
 ---------------------------------------------------------------------
      1          8           0       -1.562985   -1.553490    0.763083
      2          7           0       -1.751703   -0.570077    0.054346
      3          8           0       -2.747630   -0.326958   -0.615104
      4          6           0       -0.688732    0.429388    0.025450
      5          7           0       -0.993791    1.745774    0.060421
      6          6           0        0.171608    2.371781    0.070848
      7          1           0        0.303737    3.443493    0.104279
      8          7           0        1.213465    1.503893    0.037189
      9          1           0        2.210307    1.682927    0.025559
     10          6           0        0.682609    0.240649    0.011583
     11          7           0        1.563549   -0.884446   -0.097979
     12          8           0        1.074781   -1.985081   -0.312580
     13          8           0        2.769885   -0.627388    0.020231
 ---------------------------------------------------------------------

 SCF Done:  E(RB3LYP) =  -635.198912933     A.U. after    1 cycles

 The electronic state is 1-A.
 Alpha  occ. eigenvalues --  -19.21348 -19.21109 -19.20003 -19.19992 -14.61079
 Alpha  occ. eigenvalues --  -14.59327 -14.46302 -14.38484 -10.32465 -10.31352
 Alpha  occ. eigenvalues --  -10.31328  -1.25920  -1.24537  -1.09707  -1.08355
 Alpha  occ. eigenvalues --   -1.07337  -0.95186  -0.86517  -0.79285  -0.72500
 Alpha  occ. eigenvalues --   -0.68812  -0.60984  -0.60621  -0.57221  -0.56426
 Alpha  occ. eigenvalues --   -0.56027  -0.54524  -0.53001  -0.52303  -0.49252
 Alpha  occ. eigenvalues --   -0.48985  -0.35934  -0.35728  -0.33823  -0.33679
 Alpha  occ. eigenvalues --   -0.32795  -0.32016  -0.31632  -0.31575  -0.29337
 Alpha virt. eigenvalues --   -0.12563  -0.07840  -0.02112   0.03232   0.04154
 Alpha virt. eigenvalues --    0.08958   0.10870   0.13852   0.17942   0.20673
 Alpha virt. eigenvalues --    0.22986   0.24747   0.27406   0.29581   0.35430

 Mulliken charges:
               1
     1  O   -0.362118
     2  N    0.357932
     3  O   -0.347884
     4  C    0.420713
     5  N   -0.426926
     6  C    0.300237
     7  H    0.158933
     8  N   -0.517310
     9  H    0.310597
    10  C    0.534411
    11  N    0.346936
    12  O   -0.361871
    13  O   -0.413650
 Sum of Mulliken charges =  -0.00000

 Dipole moment (field-independent basis, Debye):
    X=              3.5684    Y=              5.3877    Z=              0.1076  Tot=              6.4632
 Quadrupole moment (field-independent basis, Debye-Ang):
   XX=            -69.2982   YY=            -56.4946   ZZ=            -59.1875
   XY=              8.0084   XZ=             -0.9911   YZ=              1.0684

  Exact polarizability:  89.727  -1.191  87.001   4.437  -1.473  34.377
 Approx polarizability: 171.478  -4.683 159.375  18.894  -9.472  64.471

                      1                      2                      3
                      A                      A                      A
 Frequencies --     46.4813                75.1780               167.1495
 Red. masses --     14.8266                15.6961                14.9426
 Frc consts  --      0.0189                 0.0523                 0.2460
 IR Inten    --      0.7150                 0.4088                 1.4551

                      4                      5                      6
                      A                      A                      A
 Frequencies --    179.1810               208.8852               268.4789
 Red. masses --      8.7395                 7.6992                 8.2183
 Frc consts  --      0.1653                 0.1979                 0.3490
 IR Inten    --      6.0207                 1.3795                 3.8636

                      7                      8                      9
                      A                      A                      A
 Frequencies --    384.6776               421.4526               500.8822
 Red. masses --     11.5026                12.2057                10.9067
 Frc consts  --      1.0029                 1.2774                 1.6122
 IR Inten    --      0.6418                 3.2167                 3.7877

                     10                     11                     12
                      A                      A                      A
 Frequencies --    591.5464               614.6548               667.0546
 Red. masses --      7.7873                 3.3144                 1.7592
 Frc consts  --      1.6055                 0.7378                 0.4612
 IR Inten    --     10.2952                59.1941                43.1316

                     13                     14                     15
                      A                      A                      A
 Frequencies --    702.0973               747.8991               786.5572
 Red. masses --      3.0173                 9.8137                11.4593
 Frc consts  --      0.8763                 3.2342                 4.1770
 IR Inten    --      5.2051                16.1975                 5.0689

                     16                     17                     18
                      A                      A                      A
 Frequencies --    811.4273               853.4861               859.2373
 Red. masses --     13.6157                 1.4274                13.5203
 Frc consts  --      5.2819                 0.6126                 5.8812
 IR Inten    --     61.9535                 9.0300                35.7697

                     19                     20                     21
                      A                      A                      A
 Frequencies --    951.0273              1086.7541              1150.5949
 Red. masses --      7.7128                 1.8647                 3.0901
 Frc consts  --      4.1100                 1.2975                 2.4103
 IR Inten    --      0.1521                27.4240                23.5736

                     22                     23                     24
                      A                      A                      A
 Frequencies --   1245.1299              1305.3009              1375.2700
 Red. masses --      1.7270                 7.9385                10.4983
 Frc consts  --      1.5775                 7.9691                11.6990
 IR Inten    --      3.3250                36.3576               138.6576

                     25                     26                     27
                      A                      A                      A
 Frequencies --   1393.5764              1421.0516              1459.5266
 Red. masses --      9.8259                12.0039                 3.7665
 Frc consts  --     11.2430                14.2821                 4.7273
 IR Inten    --    250.5138               104.4207                47.6793

                     28                     29                     30
                      A                      A                      A
 Frequencies --   1518.9070              1578.8737              1641.8191
 Red. masses --      4.2924                 7.2998                13.9828
 Frc consts  --      5.8346                10.7216                22.2073
 IR Inten    --     87.6828                40.2472               220.0277

                     31                     32                     33
                      A                      A                      A
 Frequencies --   1670.0402              3281.9353              3625.2298
 Red. masses --     14.5750                 1.0985                 1.0820
 Frc consts  --     23.9503                 6.9714                 8.3785
 IR Inten    --    192.6346                 1.5379               140.5007

 - Thermochemistry -
 -------------------
 Temperature   298.150 Kelvin.  Pressure   1.00000 Atm.
 Atom     1 has atomic number  8 and mass  15.99491

 Molecular mass:   158.00760 amu.
 Principal axes and moments of inertia in atomic units:
                           1         2         3
     Eigenvalues --  1077.195891595.219482549.13077
           X            0.99945   0.03315   0.00024
           Y           -0.03315   0.99945   0.00150
           Z           -0.00019  -0.00151   1.00000
 This molecule is an asymmetric top.
 Rotational symmetry number  1.
 Warning -- assumption of classical behavior for rotation
           may cause significant error
 Rotational temperatures (Kelvin)      0.08041     0.05430     0.03398
 Rotational constants (GHZ):           1.67541     1.13134     0.70798
 Zero-point vibrational energy     200921.0 (Joules/Mol)
                                   48.02126 (Kcal/Mol)
 Warning -- explicit consideration of  11 degrees of freedom as
           vibrations may cause significant error
 Vibrational temperatures:     66.88   108.16   240.49   257.80   300.54
          (Kelvin)            386.28   553.46   606.38   720.66   851.10
                              884.35   959.74  1010.16  1076.06  1131.68
                             1167.46  1227.97  1236.25  1368.31  1563.59
                             1655.45  1791.46  1878.03  1978.70  2005.04
                             2044.57  2099.93  2185.37  2271.64  2362.21
                             2402.81  4721.97  5215.89

 Zero-point correction=                           0.076527 (Hartree/Particle)
 Thermal correction to Energy=                    0.085131
 Thermal correction to Enthalpy=                  0.086075
 Thermal correction to Gibbs Free Energy=         0.041469
 Sum of electronic and zero-point Energies=           -635.122386
 Sum of electronic and thermal Energies=              -635.113782
 Sum of electronic and thermal Enthalpies=            -635.112838
 Sum of electronic and thermal Free Energies=         -635.157444

                     E (Thermal)             CV                S
                      KCal/Mol        Cal/Mol-Kelvin    Cal/Mol-Kelvin
 Total                   53.420             30.238             93.880
 Electronic               0.000              0.000              0.000
 Translational            0.889              2.981             41.082
 Rotational               0.889              2.981             29.861
 Vibrational             51.643             24.276             22.937
 Vibration     1          0.595              1.979              4.962
 Vibration     2          0.599              1.966              4.013
 Vibration     3          0.624              1.883              2.467
 Vibration     4          0.629              1.868              2.337
 Vibration     5          0.642              1.827              2.053
 Vibration     6          0.673              1.731              1.606
 Vibration     7          0.754              1.503              1.021
 Vibration     8          0.784              1.424              0.887
 Vibration     9          0.856              1.248              0.656
 Vibration    10          0.949              1.050              0.464
 Vibration    11          0.974              1.001              0.425

 Normal termination of Gaussian 09 at Fri Aug 20 15:40:26 2021.
