 Gaussian 09, Revision E.01,
 Gaussian 09:  ES64L-G09RevE.01 30-Nov-2015

 -------------------------
 #P OPT Freq B3LYP/6-31G**
 -------------------------

 ------
 ZEVQUM
 ------
 Symbolic Z-matrix:
 Charge =  0 Multiplicity = 1

 SCF Done:  E(RB3LYP) =  -582.147597843     A.U. after   16 cycles
 SCF Done:  E(RB3LYP) =  -582.214715055     A.U. after   14 cycles
 SCF Done:  E(RB3LYP) =  -582.233843179     A.U. after   14 cycles
 SCF Done:  E(RB3LYP) =  -582.233463830     A.U. after   14 cycles
 SCF Done:  E(RB3LYP) =  -582.234464560     A.U. after   10 cycles
 SCF Done:  E(RB3LYP) =  -582.233157580     A.U. after   14 cycles
 SCF Done:  E(RB3LYP) =  -582.234896799     A.U. after    9 cycles
 SCF Done:  E(RB3LYP) =  -582.234971522     A.U. after   12 cycles
 SCF Done:  E(RB3LYP) =  -582.231648635     A.U. after   15 cycles
 SCF Done:  E(RB3LYP) =  -582.234978352     A.U. after   10 cycles
 SCF Done:  E(RB3LYP) =  -582.234989321     A.U. after   10 cycles
 SCF Done:  E(RB3LYP) =  -582.234991539     A.U. after   10 cycles
 SCF Done:  E(RB3LYP) =  -582.234991956     A.U. after    9 cycles
 Optimization completed.
    -- Stationary point found.
 Normal termination of Gaussian 09 at Fri Aug 20 15:58:42 2021.

 ----------------------------------------------------------------------
 #P Geom=AllCheck Guess=TCheck SCRF=Check GenChk RB3LYP/6-31G(d,p) Freq
 ----------------------------------------------------------------------

 Structure from the checkpoint file:  "/public/home/users/caep010/.cache/gau_scr/Gau-97249.chk"
 ------
 ZEVQUM
 ------
 Charge =  0 Multiplicity = 1

                         Standard orientation:
 ---------------------------------------------------------------------
 Center     Atomic      Atomic             Coordinates (Angstroms)
 Number     Number       Type             X           Y           Z
 ---------------------------------------------------------------------
      1          7           0        2.230555    0.000002    0.093990
      2          7           0        0.864704   -0.000009    0.325381
      3          6           0       -0.980430    0.000012   -0.703467
      4          6           0        0.030563    1.080691   -0.237649
      5          6           0        0.030570   -1.080684   -0.237705
      6          1           0       -1.265312    0.000039   -1.751900
      7          1           0       -0.333417    1.785628    0.511049
      8          1           0       -0.333406   -1.785661    0.510957
      9          1           0        0.520694    1.612812   -1.056963
     10          1           0        0.520704   -1.612760   -1.057046
     11          7           0       -2.259586   -0.000008    0.084902
     12          8           0       -2.160953   -0.000068    1.308586
     13          8           0       -3.304756    0.000049   -0.555770
     14          8           0        2.767660   -1.101873    0.022747
     15          8           0        2.767650    1.101884    0.022802
 ---------------------------------------------------------------------

 SCF Done:  E(RB3LYP) =  -582.234991956     A.U. after    1 cycles

 The electronic state is 1-A.
 Alpha  occ. eigenvalues --  -19.20998 -19.20871 -19.19433 -19.19431 -14.61154
 Alpha  occ. eigenvalues --  -14.59524 -14.43017 -10.29232 -10.27902 -10.27902
 Alpha  occ. eigenvalues --   -1.25542  -1.25099  -1.08100  -1.07492  -1.02151
 Alpha  occ. eigenvalues --   -0.86607  -0.76323  -0.75002  -0.63803  -0.59505
 Alpha  occ. eigenvalues --   -0.58196  -0.58071  -0.56332  -0.55678  -0.53472
 Alpha  occ. eigenvalues --   -0.53159  -0.47259  -0.47029  -0.46368  -0.45788
 Alpha  occ. eigenvalues --   -0.39838  -0.33808  -0.33561  -0.32625  -0.32358
 Alpha  occ. eigenvalues --   -0.31749  -0.30605  -0.30070
 Alpha virt. eigenvalues --   -0.09289  -0.06398   0.04095   0.05557   0.06895
 Alpha virt. eigenvalues --    0.09722   0.12552   0.13725   0.14772   0.14811
 Alpha virt. eigenvalues --    0.16902   0.19697   0.24539   0.25881   0.26777

 Mulliken charges:
               1
     1  N    0.615217
     2  N   -0.283387
     3  C   -0.048892
     4  C   -0.007141
     5  C   -0.007141
     6  H    0.159764
     7  H    0.169255
     8  H    0.169255
     9  H    0.156960
    10  H    0.156960
    11  N    0.455357
    12  O   -0.361708
    13  O   -0.372306
    14  O   -0.401097
    15  O   -0.401097
 Sum of Mulliken charges =  -0.00000

 Dipole moment (field-independent basis, Debye):
    X=             -1.1391    Y=              0.0000    Z=             -2.4166  Tot=              2.6716
 Quadrupole moment (field-independent basis, Debye-Ang):
   XX=            -78.9076   YY=            -53.4468   ZZ=            -55.4402
   XY=              0.0000   XZ=              1.3252   YZ=              0.0002

  Exact polarizability:  84.571  -0.000  59.999   2.850  -0.000  51.008
 Approx polarizability: 121.414  -0.001 107.988  12.505  -0.001  96.256

                      1                      2                      3
                      A                      A                      A
 Frequencies --     35.3236                59.6213               124.7346
 Red. masses --     10.3671                 6.4344                 6.8113
 Frc consts  --      0.0076                 0.0135                 0.0624
 IR Inten    --      1.3905                 7.7765                 5.6174

                      4                      5                      6
                      A                      A                      A
 Frequencies --    175.0748               214.0147               320.2046
 Red. masses --      7.2443                 9.1415                 3.2503
 Frc consts  --      0.1308                 0.2467                 0.1964
 IR Inten    --      5.5071                 1.1947                 0.9454

                      7                      8                      9
                      A                      A                      A
 Frequencies --    326.8382               392.0560               546.2783
 Red. masses --      2.6066                 9.1812                 6.1022
 Frc consts  --      0.1641                 0.8315                 1.0729
 IR Inten    --     17.4880                 6.6571                 7.8258

                     10                     11                     12
                      A                      A                      A
 Frequencies --    607.7746               645.2676               730.4057
 Red. masses --      6.4829                 2.9576                 5.6035
 Frc consts  --      1.4109                 0.7255                 1.7613
 IR Inten    --      4.1668                 7.0543                 2.1421

                     13                     14                     15
                      A                      A                      A
 Frequencies --    768.7978               810.1925               862.0750
 Red. masses --     11.5590                 7.8710                 5.0601
 Frc consts  --      4.0253                 3.0441                 2.2157
 IR Inten    --     21.9938                 3.4423                42.3423

                     16                     17                     18
                      A                      A                      A
 Frequencies --    872.3263               916.8835              1011.0519
 Red. masses --      1.5281                 5.8797                 3.0469
 Frc consts  --      0.6851                 2.9123                 1.8351
 IR Inten    --      2.3738                 1.8345                31.3745

                     19                     20                     21
                      A                      A                      A
 Frequencies --   1025.1454              1094.3992              1138.7790
 Red. masses --      2.7125                 2.1916                 1.1703
 Frc consts  --      1.6796                 1.5465                 0.8942
 IR Inten    --      0.0828                 0.0035                 1.0469

                     22                     23                     24
                      A                      A                      A
 Frequencies --   1171.8956              1181.4086              1203.5425
 Red. masses --      3.2052                 2.8370                 1.4000
 Frc consts  --      2.5935                 2.3330                 1.1948
 IR Inten    --     25.2253                 4.9588                51.6066

                     25                     26                     27
                      A                      A                      A
 Frequencies --   1263.5022              1292.8940              1302.2419
 Red. masses --      1.7273                 1.3457                 1.6320
 Frc consts  --      1.6247                 1.3253                 1.6307
 IR Inten    --      6.5897                 0.2525               184.5577

                     28                     29                     30
                      A                      A                      A
 Frequencies --   1334.2268              1383.3821              1427.5071
 Red. masses --      1.6174                 4.7120                 8.8810
 Frc consts  --      1.6964                 5.3130                10.6627
 IR Inten    --     47.0976               228.3626               123.6729

                     31                     32                     33
                      A                      A                      A
 Frequencies --   1497.5013              1517.4368              1665.9822
 Red. masses --      1.0753                 1.1453                14.2539
 Frc consts  --      1.4208                 1.5538                23.3090
 IR Inten    --      8.0512                 4.2630               256.8708

                     34                     35                     36
                      A                      A                      A
 Frequencies --   1676.3100              3091.3386              3096.4829
 Red. masses --      9.9744                 1.0570                 1.0603
 Frc consts  --     16.5137                 5.9512                 5.9900
 IR Inten    --    217.0092                10.6012                 5.7268

                     37                     38                     39
                      A                      A                      A
 Frequencies --   3159.8871              3160.0186              3187.3410
 Red. masses --      1.1118                 1.1093                 1.0900
 Frc consts  --      6.5408                 6.5265                 6.5242
 IR Inten    --      3.4115                 1.5859                 0.6772

 - Thermochemistry -
 -------------------
 Temperature   298.150 Kelvin.  Pressure   1.00000 Atm.
 Atom     1 has atomic number  7 and mass  14.00307

 Molecular mass:   147.02801 amu.
 Principal axes and moments of inertia in atomic units:
                           1         2         3
     Eigenvalues --   448.895792525.301962637.34230
           X            1.00000  -0.00000   0.00127
           Y            0.00000   1.00000   0.00000
           Z           -0.00127  -0.00000   1.00000
 This molecule is an asymmetric top.
 Rotational symmetry number  1.
 Warning -- assumption of classical behavior for rotation
           may cause significant error
 Rotational temperatures (Kelvin)      0.19295     0.03430     0.03284
 Rotational constants (GHZ):           4.02040     0.71466     0.68430
 Zero-point vibrational energy     276876.5 (Joules/Mol)
                                   66.17508 (Kcal/Mol)
 Warning -- explicit consideration of  10 degrees of freedom as
           vibrations may cause significant error
 Vibrational temperatures:     50.82    85.78   179.47   251.89   307.92
          (Kelvin)            460.70   470.25   564.08   785.97   874.45
                              928.39  1050.89  1106.13  1165.68  1240.33
                             1255.08  1319.19  1454.68  1474.95  1574.59
                             1638.45  1686.09  1699.78  1731.63  1817.90
                             1860.18  1873.63  1919.65  1990.38  2053.86
                             2154.57  2183.25  2396.97  2411.83  4447.74
                             4455.14  4546.37  4546.56  4585.87

 Zero-point correction=                           0.105457 (Hartree/Particle)
 Thermal correction to Energy=                    0.114064
 Thermal correction to Enthalpy=                  0.115008
 Thermal correction to Gibbs Free Energy=         0.070137
 Sum of electronic and zero-point Energies=           -582.129535
 Sum of electronic and thermal Energies=              -582.120928
 Sum of electronic and thermal Enthalpies=            -582.119984
 Sum of electronic and thermal Free Energies=         -582.164855

                     E (Thermal)             CV                S
                      KCal/Mol        Cal/Mol-Kelvin    Cal/Mol-Kelvin
 Total                   71.576             29.990             94.440
 Electronic               0.000              0.000              0.000
 Translational            0.889              2.981             40.867
 Rotational               0.889              2.981             29.482
 Vibrational             69.799             24.028             24.091
 Vibration     1          0.594              1.982              5.505
 Vibration     2          0.597              1.974              4.470
 Vibration     3          0.610              1.928              3.026
 Vibration     4          0.627              1.873              2.380
 Vibration     5          0.644              1.820              2.009
 Vibration     6          0.706              1.635              1.309
 Vibration     7          0.711              1.622              1.276
 Vibration     8          0.759              1.487              0.992
 Vibration     9          0.901              1.148              0.552
 Vibration    10          0.967              1.015              0.436

 Optimization completed.
    -- Stationary point found.
 Normal termination of Gaussian 09 at Fri Aug 20 15:58:59 2021.
