 Gaussian 09, Revision E.01,
 Gaussian 09:  ES64L-G09RevE.01 30-Nov-2015

 -------------------------
 #P OPT Freq B3LYP/6-31G**
 -------------------------

 ------
 ESIRIJ
 ------
 Symbolic Z-matrix:
 Charge =  0 Multiplicity = 1

 SCF Done:  E(RB3LYP) =  -530.057401192     A.U. after   15 cycles
 SCF Done:  E(RB3LYP) =  -530.138646055     A.U. after   14 cycles
 SCF Done:  E(RB3LYP) =  -530.166811291     A.U. after   15 cycles
 SCF Done:  E(RB3LYP) =  -530.155502060     A.U. after   17 cycles
 SCF Done:  E(RB3LYP) =  -530.167602160     A.U. after   11 cycles
 SCF Done:  E(RB3LYP) =  -530.168117154     A.U. after   13 cycles
 SCF Done:  E(RB3LYP) =  -530.168364259     A.U. after   12 cycles
 SCF Done:  E(RB3LYP) =  -530.168383872     A.U. after   11 cycles
 SCF Done:  E(RB3LYP) =  -530.168389390     A.U. after    9 cycles
 SCF Done:  E(RB3LYP) =  -530.168392397     A.U. after    9 cycles
 Optimization completed.
    -- Stationary point found.
 Normal termination of Gaussian 09 at Fri Aug 20 15:52:04 2021.

 ----------------------------------------------------------------------
 #P Geom=AllCheck Guess=TCheck SCRF=Check GenChk RB3LYP/6-31G(d,p) Freq
 ----------------------------------------------------------------------

 Structure from the checkpoint file:  "/public/home/users/caep010/.cache/gau_scr/Gau-153289.chk"
 ------
 ESIRIJ
 ------
 Charge =  0 Multiplicity = 1

                         Standard orientation:
 ---------------------------------------------------------------------
 Center     Atomic      Atomic             Coordinates (Angstroms)
 Number     Number       Type             X           Y           Z
 ---------------------------------------------------------------------
      1          8           0       -2.949014    0.523484   -0.008597
      2          7           0       -2.001595   -0.261108   -0.000304
      3          6           0       -0.646796    0.287383   -0.009190
      4          8           0       -2.101981   -1.490311    0.014423
      5          6           0       -0.429483    1.675892    0.000500
      6          1           0       -1.284996    2.339077    0.003772
      7          6           0        0.875224    2.174810    0.014634
      8          1           0        1.016888    3.251027    0.030104
      9          6           0        2.010651    1.340364    0.005650
     10          1           0        3.013153    1.754728    0.013498
     11          6           0        1.744045   -0.021420   -0.013522
     12          7           0        2.387621   -1.284338   -0.125960
     13          1           0        3.103012   -1.527838    0.554432
     14          6           0        1.029134   -1.942763    0.016318
     15          1           0        0.886915   -2.485189    0.955426
     16          1           0        0.776033   -2.590125   -0.826133
     17          6           0        0.449686   -0.545757    0.003299
 ---------------------------------------------------------------------

 SCF Done:  E(RB3LYP) =  -530.168392397     A.U. after    1 cycles

 The electronic state is 1-A.
 Alpha  occ. eigenvalues --  -19.17906 -19.17800 -14.56921 -14.35991 -10.25384
 Alpha  occ. eigenvalues --  -10.24716 -10.24070 -10.21635 -10.21557 -10.21488
 Alpha  occ. eigenvalues --  -10.21140  -1.22075  -1.04817  -0.97747  -0.87093
 Alpha  occ. eigenvalues --   -0.80474  -0.74555  -0.72170  -0.67987  -0.61180
 Alpha  occ. eigenvalues --   -0.59784  -0.55671  -0.52949  -0.51508  -0.50637
 Alpha  occ. eigenvalues --   -0.49528  -0.48221  -0.44825  -0.42753  -0.41626
 Alpha  occ. eigenvalues --   -0.38653  -0.37825  -0.35941  -0.31490  -0.30685
 Alpha  occ. eigenvalues --   -0.30191  -0.28878  -0.27458  -0.23124
 Alpha virt. eigenvalues --   -0.08671  -0.01397   0.00770   0.06759   0.09128
 Alpha virt. eigenvalues --    0.11011   0.13003   0.13503   0.14868   0.16428
 Alpha virt. eigenvalues --    0.17737   0.19179   0.19824   0.25493   0.27012

 Mulliken charges:
               1
     1  O   -0.394237
     2  N    0.384197
     3  C    0.162814
     4  O   -0.416635
     5  C   -0.084822
     6  H    0.127035
     7  C   -0.113737
     8  H    0.102921
     9  C   -0.092139
    10  H    0.103358
    11  C    0.303954
    12  N   -0.612119
    13  H    0.252971
    14  C   -0.050721
    15  H    0.139085
    16  H    0.147237
    17  C    0.040839
 Sum of Mulliken charges =  -0.00000

 Dipole moment (field-independent basis, Debye):
    X=              4.4572    Y=              0.6299    Z=              1.1814  Tot=              4.6539
 Quadrupole moment (field-independent basis, Debye-Ang):
   XX=            -67.2111   YY=            -55.8126   ZZ=            -62.0475
   XY=             -2.3319   XZ=              3.9362   YZ=             -1.8439

  Exact polarizability: 114.992  -2.540 116.130   1.508  -0.517  38.648
 Approx polarizability: 195.069 -12.340 213.156   1.235   0.285  59.982

                      1                      2                      3
                      A                      A                      A
 Frequencies --     67.0472               150.0024               180.9729
 Red. masses --     11.7863                 4.8858                 7.0171
 Frc consts  --      0.0312                 0.0648                 0.1354
 IR Inten    --      0.0641                 1.7579                 2.1586

                      4                      5                      6
                      A                      A                      A
 Frequencies --    221.9372               264.9350               374.4323
 Red. masses --      2.8491                 2.8604                 8.3236
 Frc consts  --      0.0827                 0.1183                 0.6876
 IR Inten    --      4.5803                 7.1509                 2.2299

                      7                      8                      9
                      A                      A                      A
 Frequencies --    422.6748               455.1254               527.3362
 Red. masses --      6.7694                 4.3787                 6.0693
 Frc consts  --      0.7125                 0.5344                 0.9944
 IR Inten    --      0.3924                 3.5868                16.4512

                     10                     11                     12
                      A                      A                      A
 Frequencies --    535.2152               620.1905               647.2761
 Red. masses --      2.8941                 7.2655                 2.1502
 Frc consts  --      0.4885                 1.6465                 0.5308
 IR Inten    --     24.3282                 4.8734               147.1783

                     13                     14                     15
                      A                      A                      A
 Frequencies --    679.9357               700.7396               748.8059
 Red. masses --      3.7644                 2.3596                 3.1206
 Frc consts  --      1.0254                 0.6827                 1.0309
 IR Inten    --     50.1291                23.4518                52.7603

                     16                     17                     18
                      A                      A                      A
 Frequencies --    810.1051               817.0046               878.2893
 Red. masses --      2.0357                 7.2557                 3.3486
 Frc consts  --      0.7871                 2.8535                 1.5219
 IR Inten    --     20.9308                25.4559                10.8702

                     19                     20                     21
                      A                      A                      A
 Frequencies --    907.0011               930.6304               977.5197
 Red. masses --      1.4048                 4.0201                 1.2804
 Frc consts  --      0.6809                 2.0514                 0.7209
 IR Inten    --      1.0821                 9.5062                 0.6510

                     22                     23                     24
                      A                      A                      A
 Frequencies --   1009.3152              1045.2212              1066.6650
 Red. masses --      2.3078                 3.2539                 1.9132
 Frc consts  --      1.3852                 2.0945                 1.2825
 IR Inten    --     18.1024                 8.3844                 6.6673

                     25                     26                     27
                      A                      A                      A
 Frequencies --   1113.0947              1151.8889              1182.4705
 Red. masses --      1.1749                 3.0900                 1.2612
 Frc consts  --      0.8577                 2.4156                 1.0390
 IR Inten    --     11.3561                 2.4976                 0.6691

                     28                     29                     30
                      A                      A                      A
 Frequencies --   1225.9773              1234.8649              1279.4185
 Red. masses --      2.0111                 2.3485                 1.4295
 Frc consts  --      1.7809                 2.1100                 1.3787
 IR Inten    --      4.6092                25.9090                 6.2616

                     31                     32                     33
                      A                      A                      A
 Frequencies --   1329.8129              1403.9396              1418.3961
 Red. masses --      1.7075                13.6076                 3.1745
 Frc consts  --      1.7790                15.8027                 3.7628
 IR Inten    --     33.6422               279.0364                 6.1966

                     34                     35                     36
                      A                      A                      A
 Frequencies --   1486.8161              1497.0424              1503.9359
 Red. masses --      2.2119                 1.4050                 2.8505
 Frc consts  --      2.8809                 1.8552                 3.7987
 IR Inten    --      9.9032                 3.0290                 2.6608

                     37                     38                     39
                      A                      A                      A
 Frequencies --   1629.8786              1661.9604              1686.7624
 Red. masses --     11.8948                 7.5680                 9.9333
 Frc consts  --     18.6173                12.3160                16.6514
 IR Inten    --    279.2079                 1.5885                 2.7013

                     40                     41                     42
                      A                      A                      A
 Frequencies --   3081.8846              3140.4375              3197.4128
 Red. masses --      1.0584                 1.1090                 1.0883
 Frc consts  --      5.9227                 6.4442                 6.5552
 IR Inten    --     20.0930                10.8369                 7.5077

                     43                     44                     45
                      A                      A                      A
 Frequencies --   3216.1950              3244.6499              3536.6897
 Red. masses --      1.0944                 1.0923                 1.0767
 Frc consts  --      6.6695                 6.7752                 7.9348
 IR Inten    --      8.7378                 1.8935                 4.1657

 - Thermochemistry -
 -------------------
 Temperature   298.150 Kelvin.  Pressure   1.00000 Atm.
 Atom     1 has atomic number  8 and mass  15.99491

 Molecular mass:   150.04293 amu.
 Principal axes and moments of inertia in atomic units:
                           1         2         3
     Eigenvalues --   937.557041739.345202661.62198
           X            0.99988  -0.01462   0.00420
           Y            0.01463   0.99989  -0.00370
           Z           -0.00414   0.00376   0.99998
 This molecule is an asymmetric top.
 Rotational symmetry number  1.
 Warning -- assumption of classical behavior for rotation
           may cause significant error
 Rotational temperatures (Kelvin)      0.09238     0.04980     0.03254
 Rotational constants (GHZ):           1.92494     1.03760     0.67806
 Zero-point vibrational energy     330539.6 (Joules/Mol)
                                   79.00086 (Kcal/Mol)
 Warning -- explicit consideration of  11 degrees of freedom as
           vibrations may cause significant error
 Vibrational temperatures:     96.47   215.82   260.38   319.32   381.18
          (Kelvin)            538.72   608.13   654.82   758.72   770.05
                              892.31   931.28   978.27  1008.21  1077.36
                             1165.56  1175.49  1263.66  1304.97  1338.97
                             1406.43  1452.18  1503.84  1534.69  1601.49
                             1657.31  1701.31  1763.91  1776.69  1840.80
                             1913.30  2019.95  2040.75  2139.19  2153.91
                             2163.83  2345.03  2391.19  2426.87  4434.14
                             4518.38  4600.36  4627.38  4668.32  5088.50

 Zero-point correction=                           0.125896 (Hartree/Particle)
 Thermal correction to Energy=                    0.134249
 Thermal correction to Enthalpy=                  0.135193
 Thermal correction to Gibbs Free Energy=         0.092113
 Sum of electronic and zero-point Energies=           -530.042497
 Sum of electronic and thermal Energies=              -530.034144
 Sum of electronic and thermal Enthalpies=            -530.033199
 Sum of electronic and thermal Free Energies=         -530.076280

                     E (Thermal)             CV                S
                      KCal/Mol        Cal/Mol-Kelvin    Cal/Mol-Kelvin
 Total                   84.242             32.355             90.671
 Electronic               0.000              0.000              0.000
 Translational            0.889              2.981             40.928
 Rotational               0.889              2.981             29.852
 Vibrational             82.465             26.393             19.891
 Vibration     1          0.598              1.970              4.238
 Vibration     2          0.618              1.903              2.672
 Vibration     3          0.630              1.866              2.318
 Vibration     4          0.648              1.808              1.943
 Vibration     5          0.671              1.737              1.629
 Vibration     6          0.746              1.525              1.062
 Vibration     7          0.785              1.421              0.883
 Vibration     8          0.813              1.350              0.780
 Vibration     9          0.882              1.189              0.593
 Vibration    10          0.890              1.172              0.576
 Vibration    11          0.980              0.989              0.416

 Normal termination of Gaussian 09 at Fri Aug 20 15:52:28 2021.
