 Gaussian 09, Revision E.01,
 Gaussian 09:  ES64L-G09RevE.01 30-Nov-2015

 -------------------------
 #P OPT Freq B3LYP/6-31G**
 -------------------------

 ------
 MENOIM
 ------
 Symbolic Z-matrix:
 Charge =  0 Multiplicity = 1

 SCF Done:  E(RB3LYP) =  -469.861478852     A.U. after   16 cycles
 SCF Done:  E(RB3LYP) =  -469.988468599     A.U. after   15 cycles
 SCF Done:  E(RB3LYP) =  -470.041534049     A.U. after   15 cycles
 SCF Done:  E(RB3LYP) =  -470.046469706     A.U. after   14 cycles
 SCF Done:  E(RB3LYP) =  -470.046948775     A.U. after   13 cycles
 SCF Done:  E(RB3LYP) =  -470.046253114     A.U. after   13 cycles
 SCF Done:  E(RB3LYP) =  -470.046992987     A.U. after    9 cycles
 SCF Done:  E(RB3LYP) =  -470.047020308     A.U. after   12 cycles
 SCF Done:  E(RB3LYP) =  -470.047064110     A.U. after   11 cycles
 SCF Done:  E(RB3LYP) =  -470.047079122     A.U. after   10 cycles
 SCF Done:  E(RB3LYP) =  -470.047107335     A.U. after   12 cycles
 SCF Done:  E(RB3LYP) =  -470.047122881     A.U. after   11 cycles
 SCF Done:  E(RB3LYP) =  -470.047149376     A.U. after   11 cycles
 SCF Done:  E(RB3LYP) =  -470.047174567     A.U. after   12 cycles
 SCF Done:  E(RB3LYP) =  -470.047178261     A.U. after   11 cycles
 SCF Done:  E(RB3LYP) =  -470.047179123     A.U. after    9 cycles
 SCF Done:  E(RB3LYP) =  -470.047179550     A.U. after    8 cycles
 SCF Done:  E(RB3LYP) =  -470.047179618     A.U. after    8 cycles
 Optimization completed.
    -- Stationary point found.
 Normal termination of Gaussian 09 at Fri Aug 20 15:56:04 2021.

 ----------------------------------------------------------------------
 #P Geom=AllCheck Guess=TCheck SCRF=Check GenChk RB3LYP/6-31G(d,p) Freq
 ----------------------------------------------------------------------

 Structure from the checkpoint file:  "/public/home/users/caep010/.cache/gau_scr/Gau-92636.chk"
 ------
 MENOIM
 ------
 Charge =  0 Multiplicity = 1

                         Standard orientation:
 ---------------------------------------------------------------------
 Center     Atomic      Atomic             Coordinates (Angstroms)
 Number     Number       Type             X           Y           Z
 ---------------------------------------------------------------------
      1          8           0       -2.173265   -1.414488   -0.000302
      2          7           0       -1.849761   -0.231946    0.000017
      3          8           0       -2.632229    0.726924    0.000343
      4          6           0       -0.445420    0.096758    0.000020
      5          7           0        0.535607   -0.851421    0.000104
      6          6           0        1.662332   -0.172812    0.000017
      7          7           0        1.415731    1.186218   -0.000183
      8          6           0        0.059222    1.374536   -0.000146
      9          6           0        3.036854   -0.754317    0.000140
     10          1           0        2.110968    1.918609   -0.000168
     11          1           0       -0.418593    2.339657   -0.000308
     12          1           0        2.951074   -1.841152    0.000025
     13          1           0        3.605885   -0.450690   -0.885755
     14          1           0        3.605652   -0.450855    0.886127
 ---------------------------------------------------------------------

 SCF Done:  E(RB3LYP) =  -470.047179618     A.U. after    1 cycles

 The electronic state is 1-A.
 Alpha  occ. eigenvalues --  -19.16777 -19.16429 -14.56081 -14.42518 -14.34209
 Alpha  occ. eigenvalues --  -10.27830 -10.26025 -10.25531 -10.21615  -1.21067
 Alpha  occ. eigenvalues --   -1.04965  -1.03710  -0.90847  -0.81996  -0.75633
 Alpha  occ. eigenvalues --   -0.70413  -0.63199  -0.58630  -0.55908  -0.52304
 Alpha  occ. eigenvalues --   -0.51569  -0.49818  -0.47512  -0.46968  -0.43649
 Alpha  occ. eigenvalues --   -0.42152  -0.41710  -0.31533  -0.30199  -0.29441
 Alpha  occ. eigenvalues --   -0.29428  -0.27733  -0.25580
 Alpha virt. eigenvalues --   -0.06957   0.00140   0.04685   0.07312   0.10257
 Alpha virt. eigenvalues --    0.12043   0.13619   0.15672   0.18321   0.19277
 Alpha virt. eigenvalues --    0.22128   0.25069   0.27283   0.30977   0.34867

 Mulliken charges:
               1
     1  O   -0.382613
     2  N    0.351347
     3  O   -0.418682
     4  C    0.382297
     5  N   -0.468462
     6  C    0.477493
     7  N   -0.531296
     8  C    0.116437
     9  C   -0.389004
    10  H    0.277435
    11  H    0.154829
    12  H    0.164713
    13  H    0.132738
    14  H    0.132768
 Sum of Mulliken charges =  -0.00000

 Dipole moment (field-independent basis, Debye):
    X=              6.6698    Y=              3.9340    Z=             -0.0003  Tot=              7.7436
 Quadrupole moment (field-independent basis, Debye-Ang):
   XX=            -50.3328   YY=            -48.5430   ZZ=            -50.2152
   XY=              1.8726   XZ=              0.0008   YZ=             -0.0019

  Exact polarizability:  94.672   0.506  72.870  -0.002   0.000  32.550
 Approx polarizability: 135.825   4.173 147.324  -0.006   0.006  48.963

                      1                      2                      3
                      A                      A                      A
 Frequencies --     70.0101                74.2448               164.9792
 Red. masses --      1.0509                 7.6352                 5.1187
 Frc consts  --      0.0030                 0.0248                 0.0821
 IR Inten    --      0.0076                 2.3908                 2.7209

                      4                      5                      6
                      A                      A                      A
 Frequencies --    192.3661               297.0665               356.3568
 Red. masses --      5.4048                 4.3051                 3.4222
 Frc consts  --      0.1178                 0.2238                 0.2561
 IR Inten    --      0.0345                 3.9450                 5.3930

                      7                      8                      9
                      A                      A                      A
 Frequencies --    425.2324               550.4852               571.4846
 Red. masses --      8.7261                 6.4187                 1.6310
 Frc consts  --      0.9297                 1.1460                 0.3138
 IR Inten    --      0.3810                 0.8836                71.7640

                     10                     11                     12
                      A                      A                      A
 Frequencies --    634.3790               689.0689               701.1097
 Red. masses --      2.5836                 3.4494                 4.8626
 Frc consts  --      0.6126                 0.9650                 1.4083
 IR Inten    --     25.6669                 0.4742                 2.4386

                     13                     14                     15
                      A                      A                      A
 Frequencies --    756.5875               809.7461               834.7141
 Red. masses --      2.9582                 2.0570                12.1430
 Frc consts  --      0.9977                 0.7947                 4.9849
 IR Inten    --     24.8992                 4.7610                52.0698

                     16                     17                     18
                      A                      A                      A
 Frequencies --    964.1966              1003.4676              1047.3990
 Red. masses --      1.8660                 6.7602                 2.4706
 Frc consts  --      1.0221                 4.0107                 1.5969
 IR Inten    --      0.7264                 1.5051                 1.7212

                     19                     20                     21
                      A                      A                      A
 Frequencies --   1066.1773              1105.5117              1229.1661
 Red. masses --      1.4829                 1.3952                 2.0982
 Frc consts  --      0.9932                 1.0047                 1.8678
 IR Inten    --      1.8567                42.4213                 0.6309

                     22                     23                     24
                      A                      A                      A
 Frequencies --   1311.3557              1397.6923              1407.9636
 Red. masses --      6.2215                 4.0732                 4.4348
 Frc consts  --      6.3036                 4.6883                 5.1797
 IR Inten    --     33.0129                36.9489               219.1912

                     25                     26                     27
                      A                      A                      A
 Frequencies --   1425.4079              1439.9779              1495.5800
 Red. masses --      1.5434                 3.3144                 1.0424
 Frc consts  --      1.8475                 4.0492                 1.3737
 IR Inten    --     20.9999                54.4040                 9.0468

                     28                     29                     30
                      A                      A                      A
 Frequencies --   1502.1164              1566.0649              1611.5684
 Red. masses --      1.2081                 5.3169                 5.1937
 Frc consts  --      1.6061                 7.6829                 7.9474
 IR Inten    --     10.1421                45.7836                38.0963

                     31                     32                     33
                      A                      A                      A
 Frequencies --   1645.1930              3046.8587              3101.9022
 Red. masses --     12.4393                 1.0398                 1.1018
 Frc consts  --     19.8371                 5.6872                 6.2460
 IR Inten    --    222.7783                20.1550                13.1731

                     34                     35                     36
                      A                      A                      A
 Frequencies --   3168.7634              3318.7152              3650.2385
 Red. masses --      1.0985                 1.1002                 1.0815
 Frc consts  --      6.4988                 7.1394                 8.4899
 IR Inten    --      1.4471                 6.4836                64.6187

 - Thermochemistry -
 -------------------
 Temperature   298.150 Kelvin.  Pressure   1.00000 Atm.
 Atom     1 has atomic number  8 and mass  15.99491

 Molecular mass:   127.03818 amu.
 Principal axes and moments of inertia in atomic units:
                           1         2         3
     Eigenvalues --   412.682961617.170252018.55386
           X            0.99987  -0.01610   0.00000
           Y            0.01610   0.99987  -0.00001
           Z           -0.00000   0.00001   1.00000
 This molecule is an asymmetric top.
 Rotational symmetry number  1.
 Rotational temperatures (Kelvin)      0.20988     0.05356     0.04291
 Rotational constants (GHZ):           4.37319     1.11599     0.89408
 Zero-point vibrational energy     266965.5 (Joules/Mol)
                                   63.80629 (Kcal/Mol)
 Warning -- explicit consideration of   9 degrees of freedom as
           vibrations may cause significant error
 Vibrational temperatures:    100.73   106.82   237.37   276.77   427.41
          (Kelvin)            512.72   611.81   792.02   822.24   912.73
                              991.42  1008.74  1088.56  1165.04  1200.97
                             1387.26  1443.76  1506.97  1533.99  1590.58
                             1768.49  1886.75  2010.97  2025.74  2050.84
                             2071.80  2151.80  2161.21  2253.22  2318.68
                             2367.06  4383.74  4462.94  4559.14  4774.88
                             5251.87

 Zero-point correction=                           0.101682 (Hartree/Particle)
 Thermal correction to Energy=                    0.109556
 Thermal correction to Enthalpy=                  0.110500
 Thermal correction to Gibbs Free Energy=         0.068342
 Sum of electronic and zero-point Energies=           -469.945498
 Sum of electronic and thermal Energies=              -469.937624
 Sum of electronic and thermal Enthalpies=            -469.936680
 Sum of electronic and thermal Free Energies=         -469.978838

                     E (Thermal)             CV                S
                      KCal/Mol        Cal/Mol-Kelvin    Cal/Mol-Kelvin
 Total                   68.747             27.851             88.729
 Electronic               0.000              0.000              0.000
 Translational            0.889              2.981             40.431
 Rotational               0.889              2.981             28.690
 Vibrational             66.970             21.890             19.608
 Vibration     1          0.598              1.968              4.153
 Vibration     2          0.599              1.966              4.038
 Vibration     3          0.623              1.885              2.492
 Vibration     4          0.634              1.850              2.205
 Vibration     5          0.691              1.679              1.433
 Vibration     6          0.732              1.562              1.138
 Vibration     7          0.787              1.415              0.874
 Vibration     8          0.906              1.139              0.543
 Vibration     9          0.928              1.093              0.501

 Optimization completed.
    -- Stationary point found.
 Normal termination of Gaussian 09 at Fri Aug 20 15:56:18 2021.
