 Gaussian 09, Revision E.01,
 Gaussian 09:  ES64L-G09RevE.01 30-Nov-2015

 -------------------------
 #P OPT Freq B3LYP/6-31G**
 -------------------------

 ------
 SIYWIH
 ------
 Symbolic Z-matrix:
 Charge =  0 Multiplicity = 1

 SCF Done:  E(RB3LYP) =  -751.841311059     A.U. after   16 cycles
 SCF Done:  E(RB3LYP) =  -751.948366682     A.U. after   14 cycles
 SCF Done:  E(RB3LYP) =  -751.989362188     A.U. after   16 cycles
 SCF Done:  E(RB3LYP) =  -751.982117385     A.U. after   17 cycles
 SCF Done:  E(RB3LYP) =  -751.990283517     A.U. after   13 cycles
 SCF Done:  E(RB3LYP) =  -751.990258882     A.U. after   15 cycles
 SCF Done:  E(RB3LYP) =  -751.990830206     A.U. after   10 cycles
 SCF Done:  E(RB3LYP) =  -751.990930794     A.U. after   13 cycles
 SCF Done:  E(RB3LYP) =  -751.990932641     A.U. after   13 cycles
 SCF Done:  E(RB3LYP) =  -751.990860908     A.U. after   13 cycles
 SCF Done:  E(RB3LYP) =  -751.991006802     A.U. after    9 cycles
 SCF Done:  E(RB3LYP) =  -751.991063691     A.U. after   12 cycles
 SCF Done:  E(RB3LYP) =  -751.991064964     A.U. after   10 cycles
 SCF Done:  E(RB3LYP) =  -751.991065238     A.U. after   10 cycles
 SCF Done:  E(RB3LYP) =  -751.991065407     A.U. after    8 cycles
 Optimization completed.
    -- Stationary point found.
 Normal termination of Gaussian 09 at Fri Aug 20 15:58:21 2021.

 ----------------------------------------------------------------------
 #P Geom=AllCheck Guess=TCheck SCRF=Check GenChk RB3LYP/6-31G(d,p) Freq
 ----------------------------------------------------------------------

 Structure from the checkpoint file:  "/public/home/users/caep010/.cache/gau_scr/Gau-84744.chk"
 ------
 SIYWIH
 ------
 Charge =  0 Multiplicity = 1

                         Standard orientation:
 ---------------------------------------------------------------------
 Center     Atomic      Atomic             Coordinates (Angstroms)
 Number     Number       Type             X           Y           Z
 ---------------------------------------------------------------------
      1          6           0       -1.237168    1.247558   -0.000299
      2          7           0       -2.387080    1.954240   -0.001392
      3          1           0       -2.361688    2.959938    0.001967
      4          1           0       -3.260889    1.445705    0.000646
      5          6           0       -0.000007    1.908131    0.000018
      6          6           0        1.237139    1.247524    0.000391
      7          6           0        1.211877   -0.190835    0.000250
      8          7           0        2.387090    1.954134    0.001749
      9          6           0       -0.000030   -0.864635    0.000074
     10          1           0        2.361741    2.959829   -0.002573
     11          1           0        3.260867    1.445549   -0.001202
     12          7           0        2.412969   -0.994785   -0.000174
     13          6           0       -1.211925   -0.190813   -0.000117
     14          7           0       -2.412973   -0.994825    0.000093
     15          8           0       -3.519736   -0.419352    0.000493
     16          1           0       -0.000010    2.994580    0.000043
     17          1           0       -0.000046   -1.945806    0.000075
     18          8           0        3.519678   -0.419217   -0.001143
     19          8           0        2.303186   -2.220247    0.000343
     20          8           0       -2.303046   -2.220274   -0.000040
 ---------------------------------------------------------------------

 SCF Done:  E(RB3LYP) =  -751.991065407     A.U. after    2 cycles

 The electronic state is 1-A.
 Alpha  occ. eigenvalues --  -19.18192 -19.18191 -19.17968 -19.17968 -14.57521
 Alpha  occ. eigenvalues --  -14.57521 -14.37875 -14.37874 -10.28694 -10.28693
 Alpha  occ. eigenvalues --  -10.25712 -10.25711 -10.23616 -10.21401  -1.22312
 Alpha  occ. eigenvalues --   -1.22296  -1.04840  -1.04817  -0.97089  -0.95718
 Alpha  occ. eigenvalues --   -0.88391  -0.82669  -0.79403  -0.71983  -0.69674
 Alpha  occ. eigenvalues --   -0.65121  -0.61528  -0.57468  -0.57438  -0.56694
 Alpha  occ. eigenvalues --   -0.53560  -0.53547  -0.53129  -0.52706  -0.51795
 Alpha  occ. eigenvalues --   -0.50464  -0.47065  -0.46549  -0.44810  -0.43061
 Alpha  occ. eigenvalues --   -0.40726  -0.38259  -0.33546  -0.31664  -0.31052
 Alpha  occ. eigenvalues --   -0.30996  -0.30851  -0.29355  -0.29215  -0.24550
 Alpha  occ. eigenvalues --   -0.24454
 Alpha virt. eigenvalues --   -0.09446  -0.07678  -0.00779   0.01862   0.06339
 Alpha virt. eigenvalues --    0.06364   0.09041   0.12326   0.14803   0.15168
 Alpha virt. eigenvalues --    0.16483   0.16941   0.20229   0.22529   0.24209

 Mulliken charges:
               1
     1  C    0.359821
     2  N   -0.673723
     3  H    0.273604
     4  H    0.313893
     5  C   -0.195355
     6  C    0.359804
     7  C    0.236840
     8  N   -0.673719
     9  C   -0.130962
    10  H    0.273596
    11  H    0.313908
    12  N    0.369579
    13  C    0.236824
    14  N    0.369581
    15  O   -0.447698
    16  H    0.080413
    17  H    0.184245
    18  O   -0.447705
    19  O   -0.401475
    20  O   -0.401471
 Sum of Mulliken charges =  -0.00000

 Dipole moment (field-independent basis, Debye):
    X=             -0.0002    Y=              7.7024    Z=             -0.0023  Tot=              7.7024
 Quadrupole moment (field-independent basis, Debye-Ang):
   XX=            -89.9274   YY=            -70.6753   ZZ=            -78.7223
   XY=             -0.0008   XZ=             -0.0445   YZ=             -0.0058

  Exact polarizability: 179.840  -0.001 133.744   0.011  -0.003  37.149
 Approx polarizability: 334.773  -0.003 251.778   0.060  -0.010  58.692

                      1                      2                      3
                      A                      A                      A
 Frequencies --     56.0133                64.8180                82.0729
 Red. masses --     11.4580                13.7197                12.0987
 Frc consts  --      0.0212                 0.0340                 0.0480
 IR Inten    --      0.0000                 1.9188                 0.0010

                      4                      5                      6
                      A                      A                      A
 Frequencies --    142.4304               191.5174               200.4724
 Red. masses --      5.3622                12.7041                 5.1407
 Frc consts  --      0.0641                 0.2745                 0.1217
 IR Inten    --      2.2027                 3.3715                65.8336

                      7                      8                      9
                      A                      A                      A
 Frequencies --    245.9004               285.7483               330.5478
 Red. masses --      1.1049                 1.2277                 7.3867
 Frc consts  --      0.0394                 0.0591                 0.4755
 IR Inten    --      0.0270               356.1467                 0.6144

                     10                     11                     12
                      A                      A                      A
 Frequencies --    343.5970               352.9723               362.8766
 Red. masses --      9.3407                 8.4362                 3.9701
 Frc consts  --      0.6497                 0.6193                 0.3080
 IR Inten    --      0.0013                 0.5659                 6.5111

                     13                     14                     15
                      A                      A                      A
 Frequencies --    384.8630               419.0002               450.3470
 Red. masses --      7.1182                 5.3639                 3.2349
 Frc consts  --      0.6212                 0.5548                 0.3866
 IR Inten    --      5.6871                 0.4728                 0.0566

                     16                     17                     18
                      A                      A                      A
 Frequencies --    508.7929               601.9689               612.5795
 Red. masses --      9.0313                 1.0896                 7.3140
 Frc consts  --      1.3775                 0.2326                 1.6171
 IR Inten    --      1.4768                38.6474                 6.5412

                     19                     20                     21
                      A                      A                      A
 Frequencies --    615.1169               629.6187               675.3482
 Red. masses --      3.5666                 1.2166                 4.1503
 Frc consts  --      0.7951                 0.2842                 1.1153
 IR Inten    --      0.9467                 0.0036                 0.0003

                     22                     23                     24
                      A                      A                      A
 Frequencies --    677.8742               731.2841               742.4077
 Red. masses --      2.8363                 8.0764                 9.8743
 Frc consts  --      0.7679                 2.5447                 3.2066
 IR Inten    --      2.5758                35.4672                25.6023

                     25                     26                     27
                      A                      A                      A
 Frequencies --    761.3266               769.5058               808.9671
 Red. masses --     13.0878                 6.2804                 1.6053
 Frc consts  --      4.4695                 2.1911                 0.6190
 IR Inten    --      0.0000                 1.2003                25.1245

                     28                     29                     30
                      A                      A                      A
 Frequencies --    842.3669               885.7115               978.3443
 Red. masses --     13.3493                 4.7957                 1.3364
 Frc consts  --      5.5810                 2.2166                 0.7536
 IR Inten    --     14.9028                 6.5704                 9.4301

                     31                     32                     33
                      A                      A                      A
 Frequencies --   1047.2315              1065.8339              1132.7578
 Red. masses --      1.5624                 2.3053                 1.4643
 Frc consts  --      1.0095                 1.5430                 1.1070
 IR Inten    --      2.0937               123.3333                 4.3252

                     34                     35                     36
                      A                      A                      A
 Frequencies --   1171.3612              1272.3618              1295.8750
 Red. masses --      8.0915                 1.9514                 1.7583
 Frc consts  --      6.5412                 1.8613                 1.7397
 IR Inten    --     14.7199                60.9322                88.1275

                     37                     38                     39
                      A                      A                      A
 Frequencies --   1350.5469              1359.3591              1387.0085
 Red. masses --      4.6668                 6.9529                 5.7942
 Frc consts  --      5.0152                 7.5698                 6.5676
 IR Inten    --    863.1509               196.7917                21.5815

                     40                     41                     42
                      A                      A                      A
 Frequencies --   1437.2194              1505.4041              1532.0625
 Red. masses --      6.4448                 3.0213                 2.3377
 Frc consts  --      7.8434                 4.0342                 3.2329
 IR Inten    --     72.5509               210.3414                13.7543

                     43                     44                     45
                      A                      A                      A
 Frequencies --   1562.0980              1563.4761              1632.4844
 Red. masses --      5.6862                 5.7631                 1.7744
 Frc consts  --      8.1750                 8.3002                 2.7862
 IR Inten    --      3.2892                20.2631                80.3481

                     46                     47                     48
                      A                      A                      A
 Frequencies --   1637.3634              1642.8246              1691.3352
 Red. masses --      8.5483                 1.8656                 7.7625
 Frc consts  --     13.5026                 2.9666                13.0832
 IR Inten    --    333.2481               244.6539               766.9822

                     49                     50                     51
                      A                      A                      A
 Frequencies --   3180.0357              3268.4510              3560.3500
 Red. masses --      1.0898                 1.0902                 1.0482
 Frc consts  --      6.4932                 6.8616                 7.8287
 IR Inten    --     11.0658                21.5593               295.7884

                     52                     53                     54
                      A                      A                      A
 Frequencies --   3562.7192              3731.6954              3732.2569
 Red. masses --      1.0488                 1.1019                 1.1021
 Frc consts  --      7.8435                 9.0407                 9.0448
 IR Inten    --      3.4643                10.4308               153.7546

 - Thermochemistry -
 -------------------
 Temperature   298.150 Kelvin.  Pressure   1.00000 Atm.
 Atom     1 has atomic number  6 and mass  12.00000

 Molecular mass:   198.03890 amu.
 Principal axes and moments of inertia in atomic units:
                           1         2         3
     Eigenvalues --  1510.991373547.108535058.09909
           X            1.00000  -0.00000  -0.00002
           Y            0.00000   1.00000  -0.00001
           Z            0.00002   0.00001   1.00000
 This molecule is an asymmetric top.
 Rotational symmetry number  1.
 Warning -- assumption of classical behavior for rotation
           may cause significant error
 Rotational temperatures (Kelvin)      0.05732     0.02442     0.01712
 Rotational constants (GHZ):           1.19441     0.50879     0.35680
 Zero-point vibrational energy     365318.6 (Joules/Mol)
                                   87.31324 (Kcal/Mol)
 Warning -- explicit consideration of  19 degrees of freedom as
           vibrations may cause significant error
 Vibrational temperatures:     80.59    93.26   118.08   204.93   275.55
          (Kelvin)            288.43   353.80   411.13   475.58   494.36
                              507.85   522.10   553.73   602.85   647.95
                              732.04   866.10   881.36   885.01   905.88
                              971.67   975.31  1052.15  1068.16  1095.38
                             1107.15  1163.92  1211.98  1274.34  1407.62
                             1506.73  1533.50  1629.78  1685.33  1830.64
                             1864.47  1943.13  1955.81  1995.59  2067.84
                             2165.94  2204.29  2247.51  2249.49  2348.78
                             2355.80  2363.66  2433.45  4575.36  4702.57
                             5122.54  5125.95  5369.07  5369.88

 Zero-point correction=                           0.139143 (Hartree/Particle)
 Thermal correction to Energy=                    0.151298
 Thermal correction to Enthalpy=                  0.152242
 Thermal correction to Gibbs Free Energy=         0.100428
 Sum of electronic and zero-point Energies=           -751.851923
 Sum of electronic and thermal Energies=              -751.839768
 Sum of electronic and thermal Enthalpies=            -751.838823
 Sum of electronic and thermal Free Energies=         -751.890637

                     E (Thermal)             CV                S
                      KCal/Mol        Cal/Mol-Kelvin    Cal/Mol-Kelvin
 Total                   94.941             45.931            109.052
 Electronic               0.000              0.000              0.000
 Translational            0.889              2.981             41.755
 Rotational               0.889              2.981             31.672
 Vibrational             93.163             39.969             35.625
 Vibration     1          0.596              1.975              4.593
 Vibration     2          0.597              1.971              4.305
 Vibration     3          0.600              1.961              3.841
 Vibration     4          0.616              1.911              2.771
 Vibration     5          0.634              1.852              2.213
 Vibration     6          0.638              1.839              2.129
 Vibration     7          0.660              1.770              1.760
 Vibration     8          0.684              1.700              1.499
 Vibration     9          0.713              1.614              1.257
 Vibration    10          0.722              1.588              1.195
 Vibration    11          0.729              1.569              1.153
 Vibration    12          0.737              1.549              1.110
 Vibration    13          0.754              1.502              1.020
 Vibration    14          0.782              1.429              0.895
 Vibration    15          0.809              1.360              0.795
 Vibration    16          0.864              1.231              0.637
 Vibration    17          0.960              1.028              0.446
 Vibration    18          0.972              1.005              0.429
 Vibration    19          0.975              1.000              0.424

 Normal termination of Gaussian 09 at Fri Aug 20 15:58:58 2021.
