 Gaussian 09, Revision E.01,
 Gaussian 09:  ES64L-G09RevE.01 30-Nov-2015

 -------------------------
 #P OPT Freq B3LYP/6-31G**
 -------------------------

 --------
 HOFDOV01
 --------
 Symbolic Z-matrix:
 Charge =  0 Multiplicity = 1

 SCF Done:  E(RB3LYP) =  -622.449784570     A.U. after   17 cycles
 SCF Done:  E(RB3LYP) =  -622.549410930     A.U. after   14 cycles
 SCF Done:  E(RB3LYP) =  -622.590663818     A.U. after   15 cycles
 SCF Done:  E(RB3LYP) =  -622.595694658     A.U. after   13 cycles
 SCF Done:  E(RB3LYP) =  -622.596363541     A.U. after   12 cycles
 SCF Done:  E(RB3LYP) =  -622.594623045     A.U. after   14 cycles
 SCF Done:  E(RB3LYP) =  -622.596453274     A.U. after   10 cycles
 SCF Done:  E(RB3LYP) =  -622.596507329     A.U. after   12 cycles
 SCF Done:  E(RB3LYP) =  -622.596541548     A.U. after   13 cycles
 SCF Done:  E(RB3LYP) =  -622.596579859     A.U. after   13 cycles
 SCF Done:  E(RB3LYP) =  -622.597128065     A.U. after   13 cycles
 SCF Done:  E(RB3LYP) =  -622.597429575     A.U. after   14 cycles
 SCF Done:  E(RB3LYP) =  -622.597291887     A.U. after   14 cycles
 SCF Done:  E(RB3LYP) =  -622.597500108     A.U. after   11 cycles
 SCF Done:  E(RB3LYP) =  -622.597587242     A.U. after   12 cycles
 SCF Done:  E(RB3LYP) =  -622.597601372     A.U. after   10 cycles
 SCF Done:  E(RB3LYP) =  -622.597604476     A.U. after    9 cycles
 SCF Done:  E(RB3LYP) =  -622.597605032     A.U. after    9 cycles
 SCF Done:  E(RB3LYP) =  -622.597605229     A.U. after    9 cycles
 Optimization completed.
    -- Stationary point found.
 Normal termination of Gaussian 09 at Fri Aug 20 15:56:49 2021.

 ----------------------------------------------------------------------
 #P Geom=AllCheck Guess=TCheck SCRF=Check GenChk RB3LYP/6-31G(d,p) Freq
 ----------------------------------------------------------------------

 Structure from the checkpoint file:  "/public/home/users/caep010/.cache/gau_scr/Gau-36327.chk"
 --------
 HOFDOV01
 --------
 Charge =  0 Multiplicity = 1

                         Standard orientation:
 ---------------------------------------------------------------------
 Center     Atomic      Atomic             Coordinates (Angstroms)
 Number     Number       Type             X           Y           Z
 ---------------------------------------------------------------------
      1          8           0       -3.992951   -0.189277   -0.137053
      2          7           0       -2.729488   -0.069349   -0.049096
      3          6           0       -1.962784   -1.065486    0.511958
      4          6           0       -0.594976   -0.951293    0.630190
      5          6           0        0.063682    0.192192    0.156084
      6          7           0        1.464238    0.368357    0.310307
      7          6           0       -2.092716    1.056930   -0.506899
      8          7           0        2.332949   -0.582891   -0.234986
      9          6           0       -0.720915    1.196833   -0.421667
     10          8           0        1.853642   -1.655924   -0.588449
     11          8           0        3.519196   -0.263978   -0.279877
     12          6           0        2.055969    1.676718    0.579814
     13          1           0        2.320660    2.212131   -0.338774
     14          1           0       -0.039044   -1.761820    1.081748
     15          1           0       -2.536518   -1.917055    0.849839
     16          1           0       -0.273360    2.102113   -0.815902
     17          1           0        2.958714    1.546584    1.175354
     18          1           0       -2.758000    1.791949   -0.937915
     19          1           0        1.324988    2.251345    1.148221
 ---------------------------------------------------------------------

 SCF Done:  E(RB3LYP) =  -622.597605229     A.U. after    1 cycles

 The electronic state is 1-A.
 Alpha  occ. eigenvalues --  -19.18813 -19.18650 -19.12916 -14.60822 -14.49551
 Alpha  occ. eigenvalues --  -14.43602 -10.26928 -10.25270 -10.25217 -10.25011
 Alpha  occ. eigenvalues --  -10.23756 -10.23259  -1.24964  -1.11879  -1.06863
 Alpha  occ. eigenvalues --   -0.99866  -0.91245  -0.81434  -0.80627  -0.76517
 Alpha  occ. eigenvalues --   -0.69546  -0.68581  -0.61290  -0.57572  -0.56448
 Alpha  occ. eigenvalues --   -0.55202  -0.52876  -0.52048  -0.49872  -0.48250
 Alpha  occ. eigenvalues --   -0.47976  -0.46754  -0.45973  -0.44123  -0.42682
 Alpha  occ. eigenvalues --   -0.40941  -0.37473  -0.33358  -0.31859  -0.30389
 Alpha  occ. eigenvalues --   -0.29809  -0.29177  -0.25690  -0.22071
 Alpha virt. eigenvalues --   -0.06873  -0.04216  -0.03940   0.06575   0.08393
 Alpha virt. eigenvalues --    0.09375   0.11555   0.12109   0.12883   0.14157
 Alpha virt. eigenvalues --    0.14985   0.16832   0.17604   0.18924   0.21934

 Mulliken charges:
               1
     1  O   -0.504872
     2  N   -0.023256
     3  C    0.117205
     4  C   -0.095382
     5  C    0.297215
     6  N   -0.399732
     7  C    0.121644
     8  N    0.643328
     9  C   -0.137001
    10  O   -0.419305
    11  O   -0.412633
    12  C   -0.171782
    13  H    0.139668
    14  H    0.135546
    15  H    0.147393
    16  H    0.118440
    17  H    0.163710
    18  H    0.144986
    19  H    0.134826
 Sum of Mulliken charges =  -0.00000

 Dipole moment (field-independent basis, Debye):
    X=              1.2142    Y=              3.3319    Z=              1.5239  Tot=              3.8598
 Quadrupole moment (field-independent basis, Debye-Ang):
   XX=            -93.9577   YY=            -61.3794   ZZ=            -66.4643
   XY=              5.3139   XZ=              2.6778   YZ=             -4.2928

  Exact polarizability: 158.282   4.488  91.794   2.963  -8.787  51.454
 Approx polarizability: 300.117  14.621 160.073   8.841 -15.473  82.730

                      1                      2                      3
                      A                      A                      A
 Frequencies --     52.8695                70.1247               100.7364
 Red. masses --      4.9970                 6.9506                 7.7113
 Frc consts  --      0.0082                 0.0201                 0.0461
 IR Inten    --      2.8751                 1.3792                 3.5899

                      4                      5                      6
                      A                      A                      A
 Frequencies --    149.9105               189.6452               205.2076
 Red. masses --      2.4665                 1.4719                 6.6356
 Frc consts  --      0.0327                 0.0312                 0.1646
 IR Inten    --      3.0976                 1.1679                 8.5720

                      7                      8                      9
                      A                      A                      A
 Frequencies --    311.5432               356.2609               394.4677
 Red. masses --      4.4345                 7.0987                 7.9453
 Frc consts  --      0.2536                 0.5308                 0.7284
 IR Inten    --      2.9197                 2.2674                 3.5269

                     10                     11                     12
                      A                      A                      A
 Frequencies --    416.5843               431.0221               497.9966
 Red. masses --      3.7747                 3.1749                 5.4037
 Frc consts  --      0.3860                 0.3475                 0.7896
 IR Inten    --      1.0849                 0.6532                 5.6309

                     13                     14                     15
                      A                      A                      A
 Frequencies --    535.2954               621.5333               634.4018
 Red. masses --      2.7519                 6.2116                 5.5176
 Frc consts  --      0.4646                 1.4138                 1.3084
 IR Inten    --      7.2536                38.9931                 6.7819

                     16                     17                     18
                      A                      A                      A
 Frequencies --    674.1013               724.5023               757.2427
 Red. masses --      6.8620                 4.8095                12.9781
 Frc consts  --      1.8372                 1.4874                 4.3846
 IR Inten    --      0.5084                 3.7761                15.3536

                     19                     20                     21
                      A                      A                      A
 Frequencies --    799.4842               816.8945               850.8463
 Red. masses --      5.8214                 1.2585                 1.7704
 Frc consts  --      2.1923                 0.4948                 0.7551
 IR Inten    --      4.6254                 1.8895                51.2015

                     22                     23                     24
                      A                      A                      A
 Frequencies --    872.4074               937.8596               947.9858
 Red. masses --      6.1737                 1.3251                 1.8614
 Frc consts  --      2.7684                 0.6867                 0.9856
 IR Inten    --      5.8181                 6.9978                53.8417

                     25                     26                     27
                      A                      A                      A
 Frequencies --    956.9985              1043.4026              1115.7513
 Red. masses --      1.9315                 2.7020                 1.7357
 Frc consts  --      1.0422                 1.7331                 1.2731
 IR Inten    --     57.9404                 7.1943                12.6885

                     28                     29                     30
                      A                      A                      A
 Frequencies --   1127.5829              1147.1414              1189.3264
 Red. masses --      1.9910                 1.4884                 1.9854
 Frc consts  --      1.4915                 1.1540                 1.6546
 IR Inten    --     45.6437                 5.0974                25.2966

                     31                     32                     33
                      A                      A                      A
 Frequencies --   1200.0090              1275.0108              1323.6080
 Red. masses --      1.1534                 6.1233                 5.4566
 Frc consts  --      0.9786                 5.8649                 5.6324
 IR Inten    --     36.7518                 3.0486               419.8187

                     34                     35                     36
                      A                      A                      A
 Frequencies --   1331.6258              1357.4628              1386.6491
 Red. masses --      1.3861                 3.3244                 8.7964
 Frc consts  --      1.4481                 3.6092                 9.9653
 IR Inten    --     24.4086                56.7550               114.9569

                     37                     38                     39
                      A                      A                      A
 Frequencies --   1464.4120              1493.5552              1499.1921
 Red. masses --      1.2140                 1.2403                 2.3070
 Frc consts  --      1.5339                 1.6302                 3.0550
 IR Inten    --     57.0438                 8.7254                26.3398

                     40                     41                     42
                      A                      A                      A
 Frequencies --   1520.0019              1532.3723              1573.6388
 Red. masses --      1.1796                 2.2874                 7.4787
 Frc consts  --      1.6057                 3.1647                10.9115
 IR Inten    --     27.6998               145.2697                 2.3034

                     43                     44                     45
                      A                      A                      A
 Frequencies --   1667.3948              1684.3898              3053.9596
 Red. masses --     12.6140                 5.8311                 1.0430
 Frc consts  --     20.6623                 9.7474                 5.7315
 IR Inten    --    284.0507                 8.0251                21.8134

                     46                     47                     48
                      A                      A                      A
 Frequencies --   3143.5902              3182.0642              3220.2060
 Red. masses --      1.0930                 1.1059                 1.0910
 Frc consts  --      6.3640                 6.5973                 6.6655
 IR Inten    --      9.4936                 3.5711                 2.1643

                     49                     50                     51
                      A                      A                      A
 Frequencies --   3250.6774              3265.8554              3269.2527
 Red. masses --      1.0907                 1.0943                 1.0962
 Frc consts  --      6.7908                 6.8769                 6.9029
 IR Inten    --      0.1163                 0.6457                 0.5877

 - Thermochemistry -
 -------------------
 Temperature   298.150 Kelvin.  Pressure   1.00000 Atm.
 Atom     1 has atomic number  8 and mass  15.99491

 Molecular mass:   169.04874 amu.
 Principal axes and moments of inertia in atomic units:
                           1         2         3
     Eigenvalues --   717.891073363.986123847.05439
           X            0.99985   0.01639   0.00515
           Y           -0.01626   0.99960  -0.02294
           Z           -0.00553   0.02285   0.99972
 This molecule is an asymmetric top.
 Rotational symmetry number  1.
 Warning -- assumption of classical behavior for rotation
           may cause significant error
 Rotational temperatures (Kelvin)      0.12065     0.02575     0.02251
 Rotational constants (GHZ):           2.51395     0.53649     0.46912
 Zero-point vibrational energy     368593.7 (Joules/Mol)
                                   88.09601 (Kcal/Mol)
 Warning -- explicit consideration of  13 degrees of freedom as
           vibrations may cause significant error
 Vibrational temperatures:     76.07   100.89   144.94   215.69   272.86
          (Kelvin)            295.25   448.24   512.58   567.55   599.37
                              620.14   716.51   770.17   894.25   912.76
                              969.88  1042.40  1089.50  1150.28  1175.33
                             1224.18  1255.20  1349.37  1363.94  1376.91
                             1501.22  1605.32  1622.34  1650.48  1711.17
                             1726.54  1834.45  1904.37  1915.91  1953.08
                             1995.08  2106.96  2148.89  2157.00  2186.94
                             2204.74  2264.11  2399.01  2423.46  4393.96
                             4522.92  4578.27  4633.15  4676.99  4698.83
                             4703.72

 Zero-point correction=                           0.140390 (Hartree/Particle)
 Thermal correction to Energy=                    0.150660
 Thermal correction to Enthalpy=                  0.151604
 Thermal correction to Gibbs Free Energy=         0.103653
 Sum of electronic and zero-point Energies=           -622.457215
 Sum of electronic and thermal Energies=              -622.446945
 Sum of electronic and thermal Enthalpies=            -622.446001
 Sum of electronic and thermal Free Energies=         -622.493952

                     E (Thermal)             CV                S
                      KCal/Mol        Cal/Mol-Kelvin    Cal/Mol-Kelvin
 Total                   94.541             38.126            100.922
 Electronic               0.000              0.000              0.000
 Translational            0.889              2.981             41.283
 Rotational               0.889              2.981             30.608
 Vibrational             92.763             32.164             29.031
 Vibration     1          0.596              1.976              4.707
 Vibration     2          0.598              1.968              4.150
 Vibration     3          0.604              1.949              3.440
 Vibration     4          0.618              1.903              2.673
 Vibration     5          0.633              1.854              2.231
 Vibration     6          0.640              1.832              2.086
 Vibration     7          0.700              1.652              1.354
 Vibration     8          0.732              1.562              1.138
 Vibration     9          0.761              1.482              0.983
 Vibration    10          0.780              1.434              0.904
 Vibration    11          0.792              1.403              0.855
 Vibration    12          0.853              1.254              0.663
 Vibration    13          0.890              1.172              0.575

 Normal termination of Gaussian 09 at Fri Aug 20 15:57:17 2021.
