 Gaussian 09, Revision E.01,
 Gaussian 09:  ES64L-G09RevE.01 30-Nov-2015

 -------------------------
 #P OPT Freq B3LYP/6-31G**
 -------------------------

 --------
 DNBENZ10
 --------
 Symbolic Z-matrix:
 Charge =  0 Multiplicity = 1

 SCF Done:  E(RB3LYP) =  -641.095168065     A.U. after   17 cycles
 SCF Done:  E(RB3LYP) =  -641.189877180     A.U. after   15 cycles
 SCF Done:  E(RB3LYP) =  -641.239885752     A.U. after   16 cycles
 SCF Done:  E(RB3LYP) =  -641.235892118     A.U. after   17 cycles
 SCF Done:  E(RB3LYP) =  -641.245836853     A.U. after   13 cycles
 SCF Done:  E(RB3LYP) =  -641.248666696     A.U. after   15 cycles
 SCF Done:  E(RB3LYP) =  -641.247451883     A.U. after   15 cycles
 SCF Done:  E(RB3LYP) =  -641.250231753     A.U. after   12 cycles
 SCF Done:  E(RB3LYP) =  -641.249815169     A.U. after   16 cycles
 SCF Done:  E(RB3LYP) =  -641.252044630     A.U. after   12 cycles
 SCF Done:  E(RB3LYP) =  -641.252514722     A.U. after   15 cycles
 SCF Done:  E(RB3LYP) =  -641.252598530     A.U. after   14 cycles
 SCF Done:  E(RB3LYP) =  -641.252601802     A.U. after   12 cycles
 SCF Done:  E(RB3LYP) =  -641.252601873     A.U. after    8 cycles
 Optimization completed.
    -- Stationary point found.
 Normal termination of Gaussian 09 at Fri Aug 20 15:39:59 2021.

 ----------------------------------------------------------------------
 #P Geom=AllCheck Guess=TCheck SCRF=Check GenChk RB3LYP/6-31G(d,p) Freq
 ----------------------------------------------------------------------

 Structure from the checkpoint file:  "/public/home/users/caep010/.cache/gau_scr/Gau-175079.chk"
 --------
 DNBENZ10
 --------
 Charge =  0 Multiplicity = 1

                         Standard orientation:
 ---------------------------------------------------------------------
 Center     Atomic      Atomic             Coordinates (Angstroms)
 Number     Number       Type             X           Y           Z
 ---------------------------------------------------------------------
      1          6           0        1.185073    0.148910    0.000002
      2          6           0        0.000006   -0.577208   -0.000040
      3          6           0       -1.185098    0.148867    0.000007
      4          6           0       -1.209570    1.542667    0.000000
      5          7           0        2.465025   -0.587806   -0.000059
      6          8           0        3.498647    0.077519    0.000286
      7          1           0        0.000043   -1.658433   -0.000219
      8          6           0       -0.000059    2.236476    0.000070
      9          1           0       -0.000100    3.320929   -0.000049
     10          6           0        1.209481    1.542726    0.000095
     11          1           0       -2.163577    2.054683   -0.000049
     12          1           0        2.163424    2.054766    0.000137
     13          7           0       -2.465005   -0.587865    0.000044
     14          8           0       -3.498601    0.077497   -0.000507
     15          8           0       -2.411997   -1.814843    0.000634
     16          8           0        2.412085   -1.814783   -0.000478
 ---------------------------------------------------------------------

 SCF Done:  E(RB3LYP) =  -641.252601873     A.U. after    1 cycles

 The electronic state is 1-A.
 Alpha  occ. eigenvalues --  -19.20172 -19.20172 -19.20161 -19.20161 -14.59317
 Alpha  occ. eigenvalues --  -14.59317 -10.28365 -10.28364 -10.25414 -10.25228
 Alpha  occ. eigenvalues --  -10.25225 -10.24697  -1.24553  -1.24543  -1.07342
 Alpha  occ. eigenvalues --   -1.07327  -0.92921  -0.85156  -0.82163  -0.73863
 Alpha  occ. eigenvalues --   -0.72739  -0.64836  -0.60580  -0.58843  -0.55422
 Alpha  occ. eigenvalues --   -0.55065  -0.54817  -0.53947  -0.53419  -0.52456
 Alpha  occ. eigenvalues --   -0.49746  -0.48556  -0.42773  -0.42078  -0.41428
 Alpha  occ. eigenvalues --   -0.33124  -0.33039  -0.32907  -0.32423  -0.31355
 Alpha  occ. eigenvalues --   -0.31167  -0.31062  -0.30933
 Alpha virt. eigenvalues --   -0.11536  -0.10527  -0.03918  -0.01141   0.05625
 Alpha virt. eigenvalues --    0.11623   0.11644   0.11984   0.15158   0.16973
 Alpha virt. eigenvalues --    0.17360   0.23658   0.24683   0.25117   0.25228

 Mulliken charges:
               1
     1  C    0.227442
     2  C   -0.084607
     3  C    0.227436
     4  C   -0.067694
     5  N    0.396530
     6  O   -0.387240
     7  H    0.182769
     8  C   -0.105797
     9  H    0.124842
    10  C   -0.067686
    11  H    0.153066
    12  H    0.153055
    13  N    0.396552
    14  O   -0.387244
    15  O   -0.380716
    16  O   -0.380708
 Sum of Mulliken charges =  -0.00000

 Dipole moment (field-independent basis, Debye):
    X=             -0.0004    Y=              4.2005    Z=             -0.0001  Tot=              4.2005
 Quadrupole moment (field-independent basis, Debye-Ang):
   XX=            -86.6994   YY=            -63.4523   ZZ=            -64.8134
   XY=             -0.0001   XZ=             -0.0008   YZ=              0.0007

  Exact polarizability: 124.407  -0.001 106.525   0.005  -0.000  31.876
 Approx polarizability: 208.457  -0.001 219.297   0.020  -0.004  50.166

                      1                      2                      3
                      A                      A                      A
 Frequencies --     51.7024                57.6039               155.6537
 Red. masses --     15.9313                12.4431                 6.0562
 Frc consts  --      0.0251                 0.0243                 0.0865
 IR Inten    --      0.0001                 1.5212                 3.6359

                      4                      5                      6
                      A                      A                      A
 Frequencies --    162.7007               196.0397               304.4101
 Red. masses --     12.9578                 4.8025                 7.6469
 Frc consts  --      0.2021                 0.1087                 0.4175
 IR Inten    --      3.7789                 0.0000                 0.3218

                      7                      8                      9
                      A                      A                      A
 Frequencies --    353.5243               408.7294               438.3844
 Red. masses --     12.9272                 8.1085                 3.2482
 Frc consts  --      0.9519                 0.7981                 0.3678
 IR Inten    --      1.0623                 1.7156                 0.0003

                     10                     11                     12
                      A                      A                      A
 Frequencies --    479.1510               516.2856               569.8919
 Red. masses --      5.6004                11.1671                 5.7654
 Frc consts  --      0.7576                 1.7538                 1.1032
 IR Inten    --      0.0000                 3.2069                 0.8067

                     13                     14                     15
                      A                      A                      A
 Frequencies --    665.4116               668.2808               724.4230
 Red. masses --      7.1614                 3.4109                 3.2646
 Frc consts  --      1.8682                 0.8975                 1.0094
 IR Inten    --      2.3984                 1.1551                59.4538

                     16                     17                     18
                      A                      A                      A
 Frequencies --    737.8785               770.5660               834.6977
 Red. masses --     10.5480                 9.2789                 1.5071
 Frc consts  --      3.3837                 3.2461                 0.6186
 IR Inten    --     47.2049                 0.0000                11.2641

                     19                     20                     21
                      A                      A                      A
 Frequencies --    847.5123               920.2702               963.0771
 Red. masses --     13.4727                 7.1632                 1.4581
 Frc consts  --      5.7016                 3.5743                 0.7968
 IR Inten    --     18.3973                31.4309                11.0240

                     22                     23                     24
                      A                      A                      A
 Frequencies --    972.9700              1013.1947              1020.5007
 Red. masses --      1.3863                 1.3257                 6.2919
 Frc consts  --      0.7732                 0.8018                 3.8606
 IR Inten    --      0.0000                 0.4102                 0.2016

                     25                     26                     27
                      A                      A                      A
 Frequencies --   1083.5210              1107.2639              1166.1980
 Red. masses --      1.5194                 1.4891                 6.9447
 Frc consts  --      1.0510                 1.0757                 5.5648
 IR Inten    --     65.7599                16.9420                10.3750

                     28                     29                     30
                      A                      A                      A
 Frequencies --   1185.8449              1293.0588              1386.9367
 Red. masses --      1.1261                 1.3930                 8.8116
 Frc consts  --      0.9330                 1.3722                 9.9866
 IR Inten    --      5.6990                 1.4317                 2.8343

                     31                     32                     33
                      A                      A                      A
 Frequencies --   1395.0443              1405.5096              1476.4908
 Red. masses --     14.2395                14.7863                 3.1819
 Frc consts  --     16.3276                17.2099                 4.0869
 IR Inten    --    406.2105                97.8004                 0.8303

                     34                     35                     36
                      A                      A                      A
 Frequencies --   1507.0437              1627.5933              1632.2768
 Red. masses --      2.3659                 9.2036                 8.5463
 Frc consts  --      3.1659                14.3648                13.4158
 IR Inten    --      4.5095               164.7795                26.2992

                     37                     38                     39
                      A                      A                      A
 Frequencies --   1667.9269              1684.9954              3216.5480
 Red. masses --      9.4423                10.2603                 1.0905
 Frc consts  --     15.4768                17.1635                 6.6474
 IR Inten    --     76.3670               140.9149                 3.8843

                     40                     41                     42
                      A                      A                      A
 Frequencies --   3248.1590              3250.0710              3270.8986
 Red. masses --      1.0918                 1.0948                 1.0919
 Frc consts  --      6.7868                 6.8138                 6.8829
 IR Inten    --      7.2400                 0.1722                20.5222

 - Thermochemistry -
 -------------------
 Temperature   298.150 Kelvin.  Pressure   1.00000 Atm.
 Atom     1 has atomic number  6 and mass  12.00000

 Molecular mass:   168.01711 amu.
 Principal axes and moments of inertia in atomic units:
                           1         2         3
     Eigenvalues --   925.269932950.084423875.35424
           X            1.00000  -0.00000   0.00000
           Y            0.00000   1.00000   0.00000
           Z           -0.00000  -0.00000   1.00000
 This molecule is an asymmetric top.
 Rotational symmetry number  1.
 Warning -- assumption of classical behavior for rotation
           may cause significant error
 Rotational temperatures (Kelvin)      0.09361     0.02936     0.02235
 Rotational constants (GHZ):           1.95050     0.61176     0.46570
 Zero-point vibrational energy     277762.4 (Joules/Mol)
                                   66.38680 (Kcal/Mol)
 Warning -- explicit consideration of  12 degrees of freedom as
           vibrations may cause significant error
 Vibrational temperatures:     74.39    82.88   223.95   234.09   282.06
          (Kelvin)            437.98   508.64   588.07   630.74   689.39
                              742.82   819.95   957.38   961.51  1042.28
                             1061.64  1108.67  1200.94  1219.38  1324.06
                             1385.65  1399.89  1457.76  1468.27  1558.94
                             1593.10  1677.90  1706.16  1860.42  1995.49
                             2007.16  2022.21  2124.34  2168.30  2341.74
                             2348.48  2399.77  2424.33  4627.89  4673.37
                             4676.12  4706.09

 Zero-point correction=                           0.105794 (Hartree/Particle)
 Thermal correction to Energy=                    0.115098
 Thermal correction to Enthalpy=                  0.116042
 Thermal correction to Gibbs Free Energy=         0.069758
 Sum of electronic and zero-point Energies=           -641.146808
 Sum of electronic and thermal Energies=              -641.137504
 Sum of electronic and thermal Enthalpies=            -641.136560
 Sum of electronic and thermal Free Energies=         -641.182844

                     E (Thermal)             CV                S
                      KCal/Mol        Cal/Mol-Kelvin    Cal/Mol-Kelvin
 Total                   72.225             34.253             97.413
 Electronic               0.000              0.000              0.000
 Translational            0.889              2.981             41.265
 Rotational               0.889              2.981             30.737
 Vibrational             70.447             28.292             25.411
 Vibration     1          0.596              1.977              4.751
 Vibration     2          0.596              1.974              4.538
 Vibration     3          0.620              1.896              2.602
 Vibration     4          0.623              1.888              2.518
 Vibration     5          0.636              1.845              2.170
 Vibration     6          0.695              1.665              1.393
 Vibration     7          0.730              1.568              1.150
 Vibration     8          0.773              1.451              0.931
 Vibration     9          0.799              1.386              0.832
 Vibration    10          0.836              1.296              0.712
 Vibration    11          0.871              1.214              0.619
 Vibration    12          0.926              1.096              0.504

 Optimization completed.
    -- Stationary point found.
 Normal termination of Gaussian 09 at Fri Aug 20 15:40:20 2021.
