 Gaussian 09, Revision E.01,
 Gaussian 09:  ES64L-G09RevE.01 30-Nov-2015

 -------------------------
 #P OPT Freq B3LYP/6-31G**
 -------------------------

 ------
 AMNPHA
 ------
 Symbolic Z-matrix:
 Charge =  0 Multiplicity = 1

 SCF Done:  E(RB3LYP) =  -567.255523779     A.U. after   15 cycles
 SCF Done:  E(RB3LYP) =  -567.323969038     A.U. after   14 cycles
 SCF Done:  E(RB3LYP) =  -567.340544428     A.U. after   14 cycles
 SCF Done:  E(RB3LYP) =  -567.339844402     A.U. after   14 cycles
 SCF Done:  E(RB3LYP) =  -567.341034165     A.U. after   10 cycles
 SCF Done:  E(RB3LYP) =  -567.339646335     A.U. after   15 cycles
 SCF Done:  E(RB3LYP) =  -567.341688979     A.U. after   10 cycles
 SCF Done:  E(RB3LYP) =  -567.341949609     A.U. after   12 cycles
 SCF Done:  E(RB3LYP) =  -567.342126550     A.U. after   13 cycles
 SCF Done:  E(RB3LYP) =  -567.342187036     A.U. after   11 cycles
 SCF Done:  E(RB3LYP) =  -567.342203326     A.U. after   11 cycles
 SCF Done:  E(RB3LYP) =  -567.342205453     A.U. after   10 cycles
 Optimization completed.
    -- Stationary point found.
 Normal termination of Gaussian 09 at Fri Aug 20 15:42:37 2021.

 ----------------------------------------------------------------------
 #P Geom=AllCheck Guess=TCheck SCRF=Check GenChk RB3LYP/6-31G(d,p) Freq
 ----------------------------------------------------------------------

 Structure from the checkpoint file:  "/public/home/users/caep010/.cache/gau_scr/Gau-84682.chk"
 ------
 AMNPHA
 ------
 Charge =  0 Multiplicity = 1

                         Standard orientation:
 ---------------------------------------------------------------------
 Center     Atomic      Atomic             Coordinates (Angstroms)
 Number     Number       Type             X           Y           Z
 ---------------------------------------------------------------------
      1          8           0        2.212950    1.782012    0.002701
      2          6           0        1.281448    0.774416   -0.005463
      3          6           0       -0.083612    0.986783   -0.003381
      4          6           0        1.815571   -0.541155   -0.007001
      5          6           0        0.920690   -1.623730   -0.002504
      6          6           0       -0.454070   -1.421054   -0.000787
      7          1           0        1.763732    2.636840    0.019830
      8          7           0        3.179382   -0.701902   -0.054645
      9          6           0       -0.944825   -0.118078   -0.002351
     10          7           0       -2.380663    0.111865    0.001701
     11          8           0       -2.778023    1.282219    0.000549
     12          8           0       -3.125777   -0.872178    0.006596
     13          1           0        3.737583    0.105991    0.176955
     14          1           0        3.559120   -1.592613    0.225474
     15          1           0        1.318105   -2.634427   -0.005073
     16          1           0       -1.148774   -2.250728    0.002474
     17          1           0       -0.505205    1.985686    0.001115
 ---------------------------------------------------------------------

 SCF Done:  E(RB3LYP) =  -567.342205453     A.U. after    1 cycles

 The electronic state is 1-A.
 Alpha  occ. eigenvalues --  -19.20139 -19.16289 -19.16284 -14.55566 -14.36596
 Alpha  occ. eigenvalues --  -10.26778 -10.25643 -10.23730 -10.21219 -10.20881
 Alpha  occ. eigenvalues --  -10.20658  -1.20507  -1.08123  -1.03145  -0.94245
 Alpha  occ. eigenvalues --   -0.87174  -0.78565  -0.76355  -0.69192  -0.65200
 Alpha  occ. eigenvalues --   -0.59430  -0.56072  -0.54595  -0.53468  -0.52068
 Alpha  occ. eigenvalues --   -0.51502  -0.49095  -0.46035  -0.45130  -0.43673
 Alpha  occ. eigenvalues --   -0.42907  -0.39266  -0.37728  -0.36523  -0.33324
 Alpha  occ. eigenvalues --   -0.29328  -0.29307  -0.27425  -0.25661  -0.21780
 Alpha virt. eigenvalues --   -0.07207  -0.01011   0.02578   0.04755   0.07798
 Alpha virt. eigenvalues --    0.09015   0.13114   0.15231   0.16205   0.17495
 Alpha virt. eigenvalues --    0.20489   0.22538   0.24399   0.28368   0.29867

 Mulliken charges:
               1
     1  O   -0.585645
     2  C    0.307205
     3  C   -0.145082
     4  C    0.306252
     5  C   -0.134526
     6  C   -0.099220
     7  H    0.328679
     8  N   -0.661095
     9  C    0.235514
    10  N    0.373711
    11  O   -0.417681
    12  O   -0.412606
    13  H    0.288099
    14  H    0.269081
    15  H    0.090721
    16  H    0.131486
    17  H    0.125106
 Sum of Mulliken charges =   0.00000

 Dipole moment (field-independent basis, Debye):
    X=              6.2344    Y=             -0.0523    Z=              0.8187  Tot=              6.2882
 Quadrupole moment (field-independent basis, Debye-Ang):
   XX=            -68.3782   YY=            -51.9113   ZZ=            -63.5277
   XY=             -1.0881   XZ=              3.2101   YZ=             -0.6161

  Exact polarizability: 145.052  -4.863  99.179   0.015  -0.115  31.549
 Approx polarizability: 255.369  -6.551 188.824  -1.976  -0.032  48.784

                      1                      2                      3
                      A                      A                      A
 Frequencies --     71.9630               113.9583               213.7422
 Red. masses --     11.4206                 5.7371                 7.1870
 Frc consts  --      0.0348                 0.0439                 0.1935
 IR Inten    --      0.0286                 0.4193                 2.2025

                      4                      5                      6
                      A                      A                      A
 Frequencies --    214.6590               301.5528               318.6929
 Red. masses --      5.4440                 1.2101                 3.7997
 Frc consts  --      0.1478                 0.0648                 0.2274
 IR Inten    --      0.4835               146.1279                17.5925

                      7                      8                      9
                      A                      A                      A
 Frequencies --    340.4180               363.3042               390.2796
 Red. masses --      2.6362                 8.7454                 1.3544
 Frc consts  --      0.1800                 0.6801                 0.1215
 IR Inten    --     16.0503                12.2506               164.6907

                     10                     11                     12
                      A                      A                      A
 Frequencies --    432.3426               443.9448               462.4427
 Red. masses --      4.2241                 1.2660                 2.8815
 Frc consts  --      0.4652                 0.1470                 0.3631
 IR Inten    --     17.9104               139.7580                65.6519

                     13                     14                     15
                      A                      A                      A
 Frequencies --    556.2219               567.8016               582.4423
 Red. masses --      7.2924                 4.8840                 4.5868
 Frc consts  --      1.3293                 0.9277                 0.9168
 IR Inten    --      1.7888                 0.3434                 6.2698

                     16                     17                     18
                      A                      A                      A
 Frequencies --    660.5815               708.9580               749.9037
 Red. masses --      7.2479                 5.2542                 6.0057
 Frc consts  --      1.8634                 1.5559                 1.9899
 IR Inten    --      5.1753                 0.1985                31.8131

                     19                     20                     21
                      A                      A                      A
 Frequencies --    803.9053               825.3538               828.5090
 Red. masses --      5.0185                 2.5287                 2.4668
 Frc consts  --      1.9109                 1.0149                 0.9977
 IR Inten    --     11.5506                14.7333                16.1472

                     22                     23                     24
                      A                      A                      A
 Frequencies --    882.4236               954.6299               965.6676
 Red. masses --      1.4285                 1.2909                 4.5535
 Frc consts  --      0.6554                 0.6931                 2.5018
 IR Inten    --     24.8082                 0.7155                13.4772

                     25                     26                     27
                      A                      A                      A
 Frequencies --   1070.9056              1115.6848              1159.9655
 Red. masses --      1.5467                 1.9568                 1.3443
 Frc consts  --      1.0451                 1.4351                 1.0657
 IR Inten    --      3.4124                58.2915               117.2482

                     28                     29                     30
                      A                      A                      A
 Frequencies --   1185.6016              1280.7266              1336.6339
 Red. masses --      1.3588                 2.3259                 1.6960
 Frc consts  --      1.1253                 2.2477                 1.7853
 IR Inten    --    153.1584                33.7670                32.2607

                     31                     32                     33
                      A                      A                      A
 Frequencies --   1357.6406              1385.8494              1422.0662
 Red. masses --      2.8252                10.6656                 5.4049
 Frc consts  --      3.0681                12.0689                 6.4399
 IR Inten    --    272.9142               483.6161                 6.4393

                     34                     35                     36
                      A                      A                      A
 Frequencies --   1491.7813              1564.4832              1609.1002
 Red. masses --      4.2608                 3.4242                10.8621
 Frc consts  --      5.5866                 4.9380                16.5703
 IR Inten    --     29.3352                80.5038               240.0214

                     37                     38                     39
                      A                      A                      A
 Frequencies --   1639.1062              1663.0866              1675.4590
 Red. masses --      1.6870                 8.3275                 2.6013
 Frc consts  --      2.6704                13.5705                 4.3023
 IR Inten    --     13.3416                24.1803               238.6922

                     40                     41                     42
                      A                      A                      A
 Frequencies --   3192.3272              3223.0916              3249.7552
 Red. masses --      1.0902                 1.0913                 1.0927
 Frc consts  --      6.5461                 6.6792                 6.7992
 IR Inten    --     11.8544                 3.8908                 1.3604

                     43                     44                     45
                      A                      A                      A
 Frequencies --   3600.8420              3722.8095              3834.6159
 Red. masses --      1.0459                 1.1023                 1.0663
 Frc consts  --      7.9904                 9.0008                 9.2378
 IR Inten    --     83.9602                36.0413                63.2307

 - Thermochemistry -
 -------------------
 Temperature   298.150 Kelvin.  Pressure   1.00000 Atm.
 Atom     1 has atomic number  8 and mass  15.99491

 Molecular mass:   154.03784 amu.
 Principal axes and moments of inertia in atomic units:
                           1         2         3
     Eigenvalues --   716.012222480.591723195.73015
           X            0.99998  -0.00519   0.00217
           Y            0.00519   0.99999  -0.00143
           Z           -0.00216   0.00144   1.00000
 This molecule is an asymmetric top.
 Rotational symmetry number  1.
 Warning -- assumption of classical behavior for rotation
           may cause significant error
 Rotational temperatures (Kelvin)      0.12097     0.03492     0.02710
 Rotational constants (GHZ):           2.52055     0.72754     0.56474
 Zero-point vibrational energy     326193.1 (Joules/Mol)
                                   77.96203 (Kcal/Mol)
 Warning -- explicit consideration of  15 degrees of freedom as
           vibrations may cause significant error
 Vibrational temperatures:    103.54   163.96   307.53   308.85   433.87
          (Kelvin)            458.53   489.79   522.71   561.52   622.04
                              638.74   665.35   800.28   816.94   838.00
                              950.43  1020.03  1078.94  1156.64  1187.50
                             1192.04  1269.61  1373.50  1389.38  1540.79
                             1605.22  1668.93  1705.81  1842.68  1923.12
                             1953.34  1993.93  2046.03  2146.34  2250.94
                             2315.13  2358.31  2392.81  2410.61  4593.04
                             4637.30  4675.67  5180.80  5356.29  5517.15

 Zero-point correction=                           0.124240 (Hartree/Particle)
 Thermal correction to Energy=                    0.133687
 Thermal correction to Enthalpy=                  0.134631
 Thermal correction to Gibbs Free Energy=         0.089657
 Sum of electronic and zero-point Energies=           -567.217965
 Sum of electronic and thermal Energies=              -567.208519
 Sum of electronic and thermal Enthalpies=            -567.207574
 Sum of electronic and thermal Free Energies=         -567.252548

                     E (Thermal)             CV                S
                      KCal/Mol        Cal/Mol-Kelvin    Cal/Mol-Kelvin
 Total                   83.890             36.492             94.655
 Electronic               0.000              0.000              0.000
 Translational            0.889              2.981             41.006
 Rotational               0.889              2.981             30.119
 Vibrational             82.112             30.530             23.530
 Vibration     1          0.598              1.967              4.099
 Vibration     2          0.607              1.938              3.200
 Vibration     3          0.644              1.820              2.011
 Vibration     4          0.645              1.819              2.004
 Vibration     5          0.694              1.671              1.408
 Vibration     6          0.705              1.638              1.317
 Vibration     7          0.720              1.595              1.210
 Vibration     8          0.737              1.548              1.108
 Vibration     9          0.758              1.491              0.999
 Vibration    10          0.793              1.400              0.851
 Vibration    11          0.803              1.374              0.814
 Vibration    12          0.820              1.333              0.759
 Vibration    13          0.912              1.126              0.531
 Vibration    14          0.924              1.101              0.508
 Vibration    15          0.939              1.069              0.481

 Normal termination of Gaussian 09 at Fri Aug 20 15:43:00 2021.
