 Gaussian 09, Revision E.01,
 Gaussian 09:  ES64L-G09RevE.01 30-Nov-2015

 -------------------------
 #P OPT Freq B3LYP/6-31G**
 -------------------------

 --------
 ZZZQSC01
 --------
 Symbolic Z-matrix:
 Charge =  0 Multiplicity = 1

 SCF Done:  E(RB3LYP) =  -680.451642740     A.U. after   16 cycles
 SCF Done:  E(RB3LYP) =  -680.530756131     A.U. after   14 cycles
 SCF Done:  E(RB3LYP) =  -680.560295970     A.U. after   16 cycles
 SCF Done:  E(RB3LYP) =  -680.547539973     A.U. after   17 cycles
 SCF Done:  E(RB3LYP) =  -680.560733533     A.U. after   12 cycles
 SCF Done:  E(RB3LYP) =  -680.560671917     A.U. after   15 cycles
 SCF Done:  E(RB3LYP) =  -680.561306482     A.U. after   10 cycles
 SCF Done:  E(RB3LYP) =  -680.560122925     A.U. after   15 cycles
 SCF Done:  E(RB3LYP) =  -680.561551870     A.U. after   11 cycles
 SCF Done:  E(RB3LYP) =  -680.561362009     A.U. after   16 cycles
 SCF Done:  E(RB3LYP) =  -680.562145950     A.U. after   12 cycles
 SCF Done:  E(RB3LYP) =  -680.562512646     A.U. after   14 cycles
 SCF Done:  E(RB3LYP) =  -680.562635301     A.U. after   14 cycles
 SCF Done:  E(RB3LYP) =  -680.562732803     A.U. after   13 cycles
 SCF Done:  E(RB3LYP) =  -680.562776741     A.U. after   13 cycles
 SCF Done:  E(RB3LYP) =  -680.562789904     A.U. after   13 cycles
 SCF Done:  E(RB3LYP) =  -680.562791096     A.U. after    9 cycles
 SCF Done:  E(RB3LYP) =  -680.562791277     A.U. after    9 cycles
 Optimization completed.
    -- Stationary point found.
 Normal termination of Gaussian 09 at Fri Aug 20 15:49:05 2021.

 ----------------------------------------------------------------------
 #P Geom=AllCheck Guess=TCheck SCRF=Check GenChk RB3LYP/6-31G(d,p) Freq
 ----------------------------------------------------------------------

 Structure from the checkpoint file:  "/public/home/users/caep010/.cache/gau_scr/Gau-6023.chk"
 --------
 ZZZQSC01
 --------
 Charge =  0 Multiplicity = 1

                         Standard orientation:
 ---------------------------------------------------------------------
 Center     Atomic      Atomic             Coordinates (Angstroms)
 Number     Number       Type             X           Y           Z
 ---------------------------------------------------------------------
      1          8           0        3.435874    0.290452    0.501023
      2          7           0        2.510742   -0.355409    0.011247
      3          8           0        2.621332   -1.475547   -0.483495
      4          6           0        1.180257    0.288199   -0.015725
      5          6           0        1.197576    1.677507   -0.137092
      6          6           0        0.000007   -0.478089    0.064974
      7          1           0        2.154797    2.182319   -0.173290
      8          6           0       -0.000074    2.378307   -0.206893
      9          1           0       -0.000155    3.457244   -0.313027
     10          6           0       -1.197690    1.677420   -0.137044
     11          1           0       -2.154923    2.182207   -0.173229
     12          6           0       -1.180309    0.288154   -0.015694
     13          7           0       -2.510756   -0.355514    0.011260
     14          8           0       -3.435930    0.290475    0.500787
     15          8           0       -2.621186   -1.475772   -0.483238
     16          6           0        0.000112   -1.968813    0.306362
     17          1           0       -0.889150   -2.273356    0.855464
     18          1           0        0.889628   -2.273285    0.855081
     19          1           0       -0.000087   -2.511645   -0.642497
 ---------------------------------------------------------------------

 SCF Done:  E(RB3LYP) =  -680.562791277     A.U. after    1 cycles

 The electronic state is 1-A.
 Alpha  occ. eigenvalues --  -19.19969 -19.19968 -19.19852 -19.19852 -14.58954
 Alpha  occ. eigenvalues --  -14.58954 -10.27960 -10.27959 -10.26831 -10.24553
 Alpha  occ. eigenvalues --  -10.24551 -10.23849 -10.20643  -1.24252  -1.24242
 Alpha  occ. eigenvalues --   -1.06965  -1.06952  -0.92581  -0.84816  -0.82669
 Alpha  occ. eigenvalues --   -0.76414  -0.71986  -0.70187  -0.63091  -0.60610
 Alpha  occ. eigenvalues --   -0.57304  -0.55992  -0.54879  -0.53893  -0.53171
 Alpha  occ. eigenvalues --   -0.52404  -0.52115  -0.49425  -0.46011  -0.44686
 Alpha  occ. eigenvalues --   -0.43204  -0.40658  -0.40597  -0.40119  -0.32807
 Alpha  occ. eigenvalues --   -0.32576  -0.32517  -0.32369  -0.31565  -0.31221
 Alpha  occ. eigenvalues --   -0.29223  -0.29066
 Alpha virt. eigenvalues --   -0.10543  -0.09872  -0.03843  -0.02100   0.05930
 Alpha virt. eigenvalues --    0.10483   0.11271   0.11428   0.13169   0.15581
 Alpha virt. eigenvalues --    0.15829   0.17826   0.17851   0.20752   0.25280

 Mulliken charges:
               1
     1  O   -0.374878
     2  N    0.358334
     3  O   -0.372725
     4  C    0.170961
     5  C   -0.052573
     6  C    0.147158
     7  H    0.147740
     8  C   -0.113081
     9  H    0.121827
    10  C   -0.052588
    11  H    0.147747
    12  C    0.170958
    13  N    0.358384
    14  O   -0.374891
    15  O   -0.372740
    16  C   -0.335215
    17  H    0.130811
    18  H    0.130813
    19  H    0.163958
 Sum of Mulliken charges =  -0.00000

 Dipole moment (field-independent basis, Debye):
    X=             -0.0003    Y=              2.9513    Z=             -0.1590  Tot=              2.9556
 Quadrupole moment (field-independent basis, Debye-Ang):
   XX=            -94.4763   YY=            -66.0042   ZZ=            -72.7925
   XY=             -0.0001   XZ=             -0.0002   YZ=             -4.1026

  Exact polarizability: 130.345  -0.000 119.794   0.000   3.246  47.306
 Approx polarizability: 212.854  -0.002 229.201   0.001  24.605  84.311

                      1                      2                      3
                      A                      A                      A
 Frequencies --     51.0557                64.4979               101.2398
 Red. masses --     10.3637                10.7457                 5.9535
 Frc consts  --      0.0159                 0.0263                 0.0360
 IR Inten    --      0.2277                 3.4669                 1.9136

                      4                      5                      6
                      A                      A                      A
 Frequencies --    177.7155               179.2475               205.6627
 Red. masses --      1.3481                 3.6255                10.6747
 Frc consts  --      0.0251                 0.0686                 0.2660
 IR Inten    --      0.5602                 0.5016                 7.3574

                      7                      8                      9
                      A                      A                      A
 Frequencies --    239.7764               314.9697               329.4955
 Red. masses --      3.9208                 4.7994                11.3192
 Frc consts  --      0.1328                 0.2805                 0.7240
 IR Inten    --      0.2654                 0.2084                 1.6483

                     10                     11                     12
                      A                      A                      A
 Frequencies --    387.4075               404.2288               469.9778
 Red. masses --      3.4998                 6.0923                 6.2569
 Frc consts  --      0.3095                 0.5865                 0.8143
 IR Inten    --      0.7546                 2.0646                 1.8856

                     13                     14                     15
                      A                      A                      A
 Frequencies --    474.2385               519.4752               590.1147
 Red. masses --      4.4989                 3.8884                 6.3541
 Frc consts  --      0.5961                 0.6182                 1.3037
 IR Inten    --      0.0001                 1.6798                 2.1047

                     16                     17                     18
                      A                      A                      A
 Frequencies --    630.2250               691.4667               724.7596
 Red. masses --      5.2940                 4.9942                 8.9549
 Frc consts  --      1.2389                 1.4069                 2.7714
 IR Inten    --      0.5062                 0.7975                42.6312

                     19                     20                     21
                      A                      A                      A
 Frequencies --    743.4419               779.5133               804.7228
 Red. masses --      2.3371                 8.6018                 5.7209
 Frc consts  --      0.7610                 3.0795                 2.1828
 IR Inten    --     43.5378                 1.1540                 2.5585

                     22                     23                     24
                      A                      A                      A
 Frequencies --    836.5559               852.9436               906.6662
 Red. masses --      1.9769                 9.6741                 5.5832
 Frc consts  --      0.8151                 4.1467                 2.7041
 IR Inten    --      9.6469                 9.1371                49.3158

                     25                     26                     27
                      A                      A                      A
 Frequencies --    958.8928               997.6017              1050.2562
 Red. masses --      1.3995                 1.3177                 1.6054
 Frc consts  --      0.7582                 0.7726                 1.0433
 IR Inten    --      2.5528                 1.2107                 3.2944

                     28                     29                     30
                      A                      A                      A
 Frequencies --   1057.4603              1113.4919              1153.6704
 Red. masses --      1.5358                 2.0236                 9.6974
 Frc consts  --      1.0118                 1.4783                 7.6045
 IR Inten    --      1.0107                10.9838                 1.1062

                     31                     32                     33
                      A                      A                      A
 Frequencies --   1190.4440              1219.4798              1247.7150
 Red. masses --      1.1817                 2.7723                 1.7536
 Frc consts  --      0.9867                 2.4290                 1.6085
 IR Inten    --      0.2344                 5.4971                10.6488

                     34                     35                     36
                      A                      A                      A
 Frequencies --   1352.6009              1396.0195              1403.3015
 Red. masses --      7.2649                13.9364                12.2985
 Frc consts  --      7.8310                16.0023                14.2694
 IR Inten    --     20.3004               379.9499                52.3633

                     37                     38                     39
                      A                      A                      A
 Frequencies --   1432.5516              1466.0952              1482.7546
 Red. masses --      1.1823                 1.5183                 2.2102
 Frc consts  --      1.4295                 1.9228                 2.8630
 IR Inten    --      7.6001                 9.0025                 1.8596

                     40                     41                     42
                      A                      A                      A
 Frequencies --   1498.7614              1503.0423              1616.6329
 Red. masses --      1.4075                 1.3503                 6.9390
 Frc consts  --      1.8629                 1.7973                10.6849
 IR Inten    --     13.3654                14.4756                 2.2504

                     43                     44                     45
                      A                      A                      A
 Frequencies --   1629.1955              1647.2043              1675.8537
 Red. masses --      8.0203                10.3600                 9.1894
 Frc consts  --     12.5426                16.5617                15.2058
 IR Inten    --    211.9517                71.8092               163.8319

                     46                     47                     48
                      A                      A                      A
 Frequencies --   3085.7518              3155.0617              3185.8429
 Red. masses --      1.0397                 1.0960                 1.1048
 Frc consts  --      5.8330                 6.4278                 6.6066
 IR Inten    --      1.6838                 5.5107                 5.5397

                     49                     50                     51
                      A                      A                      A
 Frequencies --   3218.3457              3243.5701              3246.0626
 Red. masses --      1.0899                 1.0917                 1.0957
 Frc consts  --      6.6512                 6.7674                 6.8025
 IR Inten    --      3.3088                 3.8839                 0.0794

 - Thermochemistry -
 -------------------
 Temperature   298.150 Kelvin.  Pressure   1.00000 Atm.
 Atom     1 has atomic number  8 and mass  15.99491

 Molecular mass:   182.03276 amu.
 Principal axes and moments of inertia in atomic units:
                           1         2         3
     Eigenvalues --  1145.150453115.593934120.46196
           X            1.00000  -0.00000   0.00000
           Y            0.00000   0.99990  -0.01447
           Z           -0.00000   0.01447   0.99990
 This molecule is an asymmetric top.
 Rotational symmetry number  1.
 Warning -- assumption of classical behavior for rotation
           may cause significant error
 Rotational temperatures (Kelvin)      0.07564     0.02780     0.02102
 Rotational constants (GHZ):           1.57599     0.57926     0.43799
 Zero-point vibrational energy     351146.2 (Joules/Mol)
                                   83.92595 (Kcal/Mol)
 Warning -- explicit consideration of  15 degrees of freedom as
           vibrations may cause significant error
 Vibrational temperatures:     73.46    92.80   145.66   255.69   257.90
          (Kelvin)            295.90   344.98   453.17   474.07   557.39
                              581.59   676.19   682.32   747.41   849.04
                              906.75   994.87  1042.77  1069.65  1121.54
                             1157.82  1203.62  1227.19  1304.49  1379.63
                             1435.32  1511.08  1521.45  1602.06  1659.87
                             1712.78  1754.56  1795.18  1946.09  2008.56
                             2019.04  2061.12  2109.38  2133.35  2156.38
                             2162.54  2325.97  2344.05  2369.96  2411.18
                             4439.70  4539.42  4583.71  4630.48  4666.77
                             4670.35

 Zero-point correction=                           0.133745 (Hartree/Particle)
 Thermal correction to Energy=                    0.144570
 Thermal correction to Enthalpy=                  0.145514
 Thermal correction to Gibbs Free Energy=         0.096264
 Sum of electronic and zero-point Energies=           -680.429047
 Sum of electronic and thermal Energies=              -680.418221
 Sum of electronic and thermal Enthalpies=            -680.417277
 Sum of electronic and thermal Free Energies=         -680.466527

                     E (Thermal)             CV                S
                      KCal/Mol        Cal/Mol-Kelvin    Cal/Mol-Kelvin
 Total                   90.719             40.094            103.655
 Electronic               0.000              0.000              0.000
 Translational            0.889              2.981             41.504
 Rotational               0.889              2.981             31.064
 Vibrational             88.942             34.132             31.087
 Vibration     1          0.595              1.977              4.776
 Vibration     2          0.597              1.971              4.315
 Vibration     3          0.604              1.948              3.430
 Vibration     4          0.628              1.870              2.352
 Vibration     5          0.629              1.868              2.336
 Vibration     6          0.640              1.832              2.082
 Vibration     7          0.657              1.780              1.805
 Vibration     8          0.702              1.645              1.336
 Vibration     9          0.712              1.617              1.263
 Vibration    10          0.756              1.497              1.010
 Vibration    11          0.769              1.461              0.947
 Vibration    12          0.827              1.317              0.738
 Vibration    13          0.831              1.307              0.726
 Vibration    14          0.874              1.207              0.611
 Vibration    15          0.947              1.053              0.467

 Optimization completed.
    -- Stationary point found.
 Normal termination of Gaussian 09 at Fri Aug 20 15:49:37 2021.
