 Gaussian 09, Revision E.01,
 Gaussian 09:  ES64L-G09RevE.01 30-Nov-2015

 -------------------------
 #P OPT Freq B3LYP/6-31G**
 -------------------------

 ------
 IJIVIG
 ------
 Symbolic Z-matrix:
 Charge =  0 Multiplicity = 1

 SCF Done:  E(RB3LYP) =  -583.232979658     A.U. after   16 cycles
 SCF Done:  E(RB3LYP) =  -583.277800185     A.U. after   14 cycles
 SCF Done:  E(RB3LYP) =  -583.284335136     A.U. after   14 cycles
 SCF Done:  E(RB3LYP) =  -583.284174902     A.U. after   14 cycles
 SCF Done:  E(RB3LYP) =  -583.284584909     A.U. after   10 cycles
 SCF Done:  E(RB3LYP) =  -583.284439188     A.U. after   13 cycles
 SCF Done:  E(RB3LYP) =  -583.284751284     A.U. after    9 cycles
 SCF Done:  E(RB3LYP) =  -583.284810598     A.U. after   12 cycles
 SCF Done:  E(RB3LYP) =  -583.284833629     A.U. after   10 cycles
 SCF Done:  E(RB3LYP) =  -583.284859606     A.U. after   11 cycles
 SCF Done:  E(RB3LYP) =  -583.284887266     A.U. after   13 cycles
 SCF Done:  E(RB3LYP) =  -583.284912623     A.U. after   12 cycles
 SCF Done:  E(RB3LYP) =  -583.284937395     A.U. after   13 cycles
 SCF Done:  E(RB3LYP) =  -583.284948945     A.U. after   12 cycles
 SCF Done:  E(RB3LYP) =  -583.284961315     A.U. after   13 cycles
 SCF Done:  E(RB3LYP) =  -583.284964704     A.U. after   12 cycles
 SCF Done:  E(RB3LYP) =  -583.284965168     A.U. after    9 cycles
 Optimization completed.
    -- Stationary point found.
 Normal termination of Gaussian 09 at Fri Aug 20 15:37:16 2021.

 ----------------------------------------------------------------------
 #P Geom=AllCheck Guess=TCheck SCRF=Check GenChk RB3LYP/6-31G(d,p) Freq
 ----------------------------------------------------------------------

 Structure from the checkpoint file:  "/public/home/users/caep010/.cache/gau_scr/Gau-30689.chk"
 ------
 IJIVIG
 ------
 Charge =  0 Multiplicity = 1

                         Standard orientation:
 ---------------------------------------------------------------------
 Center     Atomic      Atomic             Coordinates (Angstroms)
 Number     Number       Type             X           Y           Z
 ---------------------------------------------------------------------
      1          8           0       -2.521906   -1.885396   -0.083878
      2          7           0       -1.930278   -0.761469   -0.044288
      3          6           0       -0.570258   -0.692663   -0.225530
      4          6           0        0.090109    0.529463   -0.170379
      5          7           0        1.475573    0.646590   -0.411312
      6          6           0       -0.628387    1.715155    0.040944
      7          7           0        2.445563   -0.238879    0.059048
      8          8           0        3.582934    0.221471    0.075213
      9          8           0        2.098455   -1.371320    0.361903
     10          6           0       -2.008165    1.620527    0.199230
     11          6           0       -2.643725    0.395299    0.163366
     12          1           0        1.877921    1.574769   -0.441631
     13          1           0       -0.093660   -1.644127   -0.389861
     14          1           0       -0.122236    2.673215    0.083519
     15          1           0       -2.605768    2.509948    0.365434
     16          1           0       -3.705574    0.237776    0.286713
 ---------------------------------------------------------------------

 SCF Done:  E(RB3LYP) =  -583.284965168     A.U. after    2 cycles

 The electronic state is 1-A.
 Alpha  occ. eigenvalues --  -19.20313 -19.19950 -19.13012 -14.62496 -14.49910
 Alpha  occ. eigenvalues --  -14.44422 -10.28604 -10.24983 -10.24853 -10.23661
 Alpha  occ. eigenvalues --  -10.23231  -1.26533  -1.12131  -1.08501  -1.00410
 Alpha  occ. eigenvalues --   -0.91282  -0.81879  -0.80815  -0.72523  -0.67190
 Alpha  occ. eigenvalues --   -0.65779  -0.58460  -0.57605  -0.57010  -0.54521
 Alpha  occ. eigenvalues --   -0.52863  -0.51198  -0.48476  -0.47852  -0.46760
 Alpha  occ. eigenvalues --   -0.42734  -0.41368  -0.39771  -0.34437  -0.33582
 Alpha  occ. eigenvalues --   -0.33140  -0.31525  -0.27503  -0.25777  -0.22738
 Alpha virt. eigenvalues --   -0.07684  -0.05262  -0.03143   0.05202   0.07266
 Alpha virt. eigenvalues --    0.08963   0.12428   0.12489   0.14186   0.16554
 Alpha virt. eigenvalues --    0.19317   0.21121   0.24071   0.25275   0.26678

 Mulliken charges:
               1
     1  O   -0.495374
     2  N   -0.037427
     3  C    0.141552
     4  C    0.256641
     5  N   -0.433083
     6  C   -0.095453
     7  N    0.620935
     8  O   -0.396464
     9  O   -0.395020
    10  C   -0.130857
    11  C    0.127430
    12  H    0.294361
    13  H    0.173029
    14  H    0.105146
    15  H    0.120365
    16  H    0.144219
 Sum of Mulliken charges =  -0.00000

 Dipole moment (field-independent basis, Debye):
    X=             -1.0012    Y=              5.6354    Z=             -0.3293  Tot=              5.7331
 Quadrupole moment (field-independent basis, Debye-Ang):
   XX=            -71.3323   YY=            -61.1088   ZZ=            -62.2308
   XY=             -5.5059   XZ=             -2.8220   YZ=              0.9607

  Exact polarizability: 127.131   6.820 101.157  -2.880   1.054  33.575
 Approx polarizability: 208.107  38.287 216.625  -6.287   0.032  53.847

                      1                      2                      3
                      A                      A                      A
 Frequencies --     36.3805                75.4057               143.5701
 Red. masses --      6.7086                10.7881                 9.5625
 Frc consts  --      0.0052                 0.0361                 0.1161
 IR Inten    --      0.7472                 0.6672                 2.1475

                      4                      5                      6
                      A                      A                      A
 Frequencies --    214.4920               266.6057               326.6531
 Red. masses --      4.9505                 6.2248                 8.1182
 Frc consts  --      0.1342                 0.2607                 0.5104
 IR Inten    --      2.9061                 0.7162                 1.3592

                      7                      8                      9
                      A                      A                      A
 Frequencies --    389.5240               459.1895               515.4587
 Red. masses --      9.7249                 3.2138                 5.9958
 Frc consts  --      0.8694                 0.3993                 0.9386
 IR Inten    --      0.8861                 1.3812                10.4808

                     10                     11                     12
                      A                      A                      A
 Frequencies --    549.7959               565.5268               618.8332
 Red. masses --      2.9583                 1.7225                 4.9640
 Frc consts  --      0.5269                 0.3246                 1.1200
 IR Inten    --     35.2061                65.8783                 0.0682

                     13                     14                     15
                      A                      A                      A
 Frequencies --    663.3581               682.6646               755.7915
 Red. masses --      7.1774                 2.2007                11.5438
 Frc consts  --      1.8609                 0.6043                 3.8851
 IR Inten    --      4.7313                 9.8836                27.6863

                     16                     17                     18
                      A                      A                      A
 Frequencies --    771.3243               778.2746               829.6479
 Red. masses --      1.5909                 5.8937                 4.2740
 Frc consts  --      0.5577                 2.1033                 1.7333
 IR Inten    --     63.2036                 7.3778                13.0471

                     19                     20                     21
                      A                      A                      A
 Frequencies --    855.0040               863.9264               958.8366
 Red. masses --      1.4864                 1.5557                 1.2589
 Frc consts  --      0.6402                 0.6841                 0.6819
 IR Inten    --     15.2645                17.2164                 0.0561

                     22                     23                     24
                      A                      A                      A
 Frequencies --   1005.9097              1023.6115              1039.8717
 Red. masses --      5.0947                 5.2058                 2.5984
 Frc consts  --      3.0373                 3.2137                 1.6554
 IR Inten    --     57.6270                29.4870                47.2567

                     25                     26                     27
                      A                      A                      A
 Frequencies --   1122.9698              1187.0996              1222.4543
 Red. masses --      1.5683                 1.1224                 2.7729
 Frc consts  --      1.1652                 0.9319                 2.4415
 IR Inten    --      3.4154                34.3427               116.9774

                     28                     29                     30
                      A                      A                      A
 Frequencies --   1279.3463              1315.4014              1362.1196
 Red. masses --      3.6112                 1.5460                 9.1552
 Frc consts  --      3.4824                 1.5761                10.0080
 IR Inten    --      8.5644                 4.9332               440.7850

                     31                     32                     33
                      A                      A                      A
 Frequencies --   1381.0720              1440.7173              1504.5339
 Red. masses --      2.5317                 2.6143                 2.4558
 Frc consts  --      2.8451                 3.1972                 3.2752
 IR Inten    --     84.5330               134.3841                86.6567

                     34                     35                     36
                      A                      A                      A
 Frequencies --   1533.7127              1597.3448              1671.6937
 Red. masses --      3.2523                 5.4102                 6.0081
 Frc consts  --      4.5074                 8.1332                 9.8924
 IR Inten    --     29.8161                45.2566               101.2086

                     37                     38                     39
                      A                      A                      A
 Frequencies --   1714.7585              3208.6173              3223.4149
 Red. masses --      5.8652                 1.0887                 1.0951
 Frc consts  --     10.1611                 6.6039                 6.7042
 IR Inten    --    251.5370                 2.6864                 2.5913

                     40                     41                     42
                      A                      A                      A
 Frequencies --   3272.2684              3316.3256              3616.7807
 Red. masses --      1.0948                 1.0933                 1.0779
 Frc consts  --      6.9068                 7.0845                 8.3078
 IR Inten    --      1.2551                11.6255                53.6762

 - Thermochemistry -
 -------------------
 Temperature   298.150 Kelvin.  Pressure   1.00000 Atm.
 Atom     1 has atomic number  8 and mass  15.99491

 Molecular mass:   155.03309 amu.
 Principal axes and moments of inertia in atomic units:
                           1         2         3
     Eigenvalues --   735.614062557.467893242.55342
           X            0.99995  -0.00928  -0.00401
           Y            0.00930   0.99994   0.00605
           Z            0.00395  -0.00608   0.99997
 This molecule is an asymmetric top.
 Rotational symmetry number  1.
 Warning -- assumption of classical behavior for rotation
           may cause significant error
 Rotational temperatures (Kelvin)      0.11774     0.03387     0.02671
 Rotational constants (GHZ):           2.45338     0.70568     0.55658
 Zero-point vibrational energy     295240.1 (Joules/Mol)
                                   70.56407 (Kcal/Mol)
 Warning -- explicit consideration of  12 degrees of freedom as
           vibrations may cause significant error
 Vibrational temperatures:     52.34   108.49   206.57   308.61   383.59
          (Kelvin)            469.98   560.44   660.67   741.63   791.03
                              813.67   890.36   954.42   982.20  1087.41
                             1109.76  1119.76  1193.68  1230.16  1243.00
                             1379.55  1447.28  1472.75  1496.14  1615.70
                             1707.97  1758.84  1840.69  1892.57  1959.78
                             1987.05  2072.87  2164.69  2206.67  2298.22
                             2405.19  2467.15  4616.48  4637.77  4708.06
                             4771.45  5203.73

 Zero-point correction=                           0.112451 (Hartree/Particle)
 Thermal correction to Energy=                    0.121254
 Thermal correction to Enthalpy=                  0.122198
 Thermal correction to Gibbs Free Energy=         0.077182
 Sum of electronic and zero-point Energies=           -583.172514
 Sum of electronic and thermal Energies=              -583.163711
 Sum of electronic and thermal Enthalpies=            -583.162767
 Sum of electronic and thermal Free Energies=         -583.207783

                     E (Thermal)             CV                S
                      KCal/Mol        Cal/Mol-Kelvin    Cal/Mol-Kelvin
 Total                   76.088             32.918             94.744
 Electronic               0.000              0.000              0.000
 Translational            0.889              2.981             41.025
 Rotational               0.889              2.981             30.190
 Vibrational             74.310             26.956             23.528
 Vibration     1          0.594              1.982              5.447
 Vibration     2          0.599              1.965              4.007
 Vibration     3          0.616              1.910              2.756
 Vibration     4          0.644              1.819              2.005
 Vibration     5          0.672              1.734              1.618
 Vibration     6          0.710              1.622              1.277
 Vibration     7          0.757              1.493              1.002
 Vibration     8          0.817              1.341              0.768
 Vibration     9          0.870              1.216              0.621
 Vibration    10          0.905              1.140              0.545
 Vibration    11          0.921              1.106              0.513
 Vibration    12          0.979              0.992              0.418

 Optimization completed.
    -- Stationary point found.
 Normal termination of Gaussian 09 at Fri Aug 20 15:37:36 2021.
