 Gaussian 09, Revision E.01,
 Gaussian 09:  ES64L-G09RevE.01 30-Nov-2015

 -------------------------
 #P OPT Freq B3LYP/6-31G**
 -------------------------

 ------
 RIRMAH
 ------
 Symbolic Z-matrix:
 Charge =  0 Multiplicity = 1

 SCF Done:  E(RB3LYP) =  -547.305480935     A.U. after   15 cycles
 SCF Done:  E(RB3LYP) =  -547.418843336     A.U. after   13 cycles
 SCF Done:  E(RB3LYP) =  -547.468806897     A.U. after   15 cycles
 SCF Done:  E(RB3LYP) =  -547.456856818     A.U. after   17 cycles
 SCF Done:  E(RB3LYP) =  -547.469940776     A.U. after   11 cycles
 SCF Done:  E(RB3LYP) =  -547.470515109     A.U. after   13 cycles
 SCF Done:  E(RB3LYP) =  -547.470757241     A.U. after   12 cycles
 SCF Done:  E(RB3LYP) =  -547.472034496     A.U. after   13 cycles
 SCF Done:  E(RB3LYP) =  -547.423101141     A.U. after   15 cycles
 SCF Done:  E(RB3LYP) =  -547.472925535     A.U. after   11 cycles
 SCF Done:  E(RB3LYP) =  -547.479613708     A.U. after   11 cycles
 SCF Done:  E(RB3LYP) =  -547.480512159     A.U. after   12 cycles
 SCF Done:  E(RB3LYP) =  -547.480690127     A.U. after   11 cycles
 SCF Done:  E(RB3LYP) =  -547.480724820     A.U. after   10 cycles
 SCF Done:  E(RB3LYP) =  -547.480729455     A.U. after    9 cycles
 SCF Done:  E(RB3LYP) =  -547.480729992     A.U. after    8 cycles
 SCF Done:  E(RB3LYP) =  -547.480730340     A.U. after    8 cycles
 SCF Done:  E(RB3LYP) =  -547.480730455     A.U. after    8 cycles
 SCF Done:  E(RB3LYP) =  -547.480730553     A.U. after    8 cycles
 Optimization completed.
    -- Stationary point found.
 Normal termination of Gaussian 09 at Fri Aug 20 16:05:05 2021.

 ----------------------------------------------------------------------
 #P Geom=AllCheck Guess=TCheck SCRF=Check GenChk RB3LYP/6-31G(d,p) Freq
 ----------------------------------------------------------------------

 Structure from the checkpoint file:  "/public/home/users/caep010/.cache/gau_scr/Gau-158862.chk"
 ------
 RIRMAH
 ------
 Charge =  0 Multiplicity = 1

                         Standard orientation:
 ---------------------------------------------------------------------
 Center     Atomic      Atomic             Coordinates (Angstroms)
 Number     Number       Type             X           Y           Z
 ---------------------------------------------------------------------
      1          6           0       -0.951698   -0.113830   -0.000864
      2          7           0       -2.389345    0.129396    0.010118
      3          8           0       -2.777111    1.301447    0.041137
      4          6           0       -0.480431   -1.423757   -0.029693
      5          6           0        0.893079   -1.637436   -0.028041
      6          6           0        1.791620   -0.562057    0.000276
      7          7           0        3.169983   -0.737148   -0.007897
      8          1           0        3.671202   -0.031859    0.521482
      9          6           0        1.290382    0.768297   -0.009103
     10          8           0       -3.142347   -0.847983   -0.012467
     11          6           0       -0.081764    0.980782   -0.001410
     12          1           0       -0.495554    1.982299   -0.004601
     13          1           0        1.281784   -2.652029   -0.029814
     14          7           0        2.231740    1.816293    0.032138
     15          1           0       -1.184384   -2.245422   -0.038209
     16          1           0        1.803545    2.732970   -0.018854
     17          1           0        2.940406    1.728803   -0.691346
     18          1           0        3.484898   -1.674262    0.204471
 ---------------------------------------------------------------------

 SCF Done:  E(RB3LYP) =  -547.480730553     A.U. after    1 cycles

 The electronic state is 1-A.
 Alpha  occ. eigenvalues --  -19.16201 -19.16191 -14.55431 -14.36464 -14.35782
 Alpha  occ. eigenvalues --  -10.24989 -10.24237 -10.23454 -10.20614 -10.20542
 Alpha  occ. eigenvalues --  -10.20424  -1.20422  -1.03060  -0.95771  -0.91182
 Alpha  occ. eigenvalues --   -0.86378  -0.78022  -0.75034  -0.68344  -0.63594
 Alpha  occ. eigenvalues --   -0.58825  -0.55017  -0.54542  -0.52160  -0.51367
 Alpha  occ. eigenvalues --   -0.50308  -0.49146  -0.48025  -0.44591  -0.44138
 Alpha  occ. eigenvalues --   -0.42206  -0.39730  -0.37000  -0.33407  -0.32453
 Alpha  occ. eigenvalues --   -0.29216  -0.29138  -0.27298  -0.24871  -0.21519
 Alpha virt. eigenvalues --   -0.07043  -0.00798   0.02497   0.05722   0.08645
 Alpha virt. eigenvalues --    0.09382   0.12300   0.13179   0.16159   0.17173
 Alpha virt. eigenvalues --    0.17972   0.20726   0.23887   0.24747   0.28628

 Mulliken charges:
               1
     1  C    0.237102
     2  N    0.374864
     3  O   -0.414422
     4  C   -0.103275
     5  C   -0.130580
     6  C    0.289528
     7  N   -0.675334
     8  H    0.275052
     9  C    0.237556
    10  O   -0.411722
    11  C   -0.131518
    12  H    0.123151
    13  H    0.088261
    14  N   -0.684585
    15  H    0.129547
    16  H    0.264037
    17  H    0.267205
    18  H    0.265132
 Sum of Mulliken charges =   0.00000

 Dipole moment (field-independent basis, Debye):
    X=              6.7937    Y=             -0.1843    Z=             -0.0722  Tot=              6.7966
 Quadrupole moment (field-independent basis, Debye-Ang):
   XX=            -67.1860   YY=            -54.1118   ZZ=            -63.9504
   XY=              0.4686   XZ=              0.8088   YZ=             -2.8718

  Exact polarizability: 146.796  -1.408 104.567  -0.252   0.356  34.641
 Approx polarizability: 250.064  -2.023 197.734  -1.492   2.955  53.418

                      1                      2                      3
                      A                      A                      A
 Frequencies --     67.9779               115.8555               209.6843
 Red. masses --     10.2739                 5.7296                 3.1404
 Frc consts  --      0.0280                 0.0453                 0.0814
 IR Inten    --      0.0132                 0.2933                 1.2375

                      4                      5                      6
                      A                      A                      A
 Frequencies --    215.7126               240.1645               317.9896
 Red. masses --      5.3412                 1.2121                 3.6131
 Frc consts  --      0.1464                 0.0412                 0.2153
 IR Inten    --      2.5887                11.2195                 0.1295

                      7                      8                      9
                      A                      A                      A
 Frequencies --    334.7494               365.2137               426.9994
 Red. masses --      4.3471                 9.1403                 5.0011
 Frc consts  --      0.2870                 0.7183                 0.5372
 IR Inten    --     11.2183                 0.1147                 1.2555

                     10                     11                     12
                      A                      A                      A
 Frequencies --    449.0148               489.4510               555.2718
 Red. masses --      2.6910                 1.1026                 7.0629
 Frc consts  --      0.3197                 0.1556                 1.2831
 IR Inten    --     18.0089                 3.9312                 3.6352

                     13                     14                     15
                      A                      A                      A
 Frequencies --    563.5276               577.0128               647.5304
 Red. masses --      3.9338                 4.0917                 3.3665
 Frc consts  --      0.7360                 0.8026                 0.8317
 IR Inten    --     11.0997                 6.6316               175.6637

                     16                     17                     18
                      A                      A                      A
 Frequencies --    679.7376               713.9543               752.7942
 Red. masses --      1.8619                 3.0436                 5.9526
 Frc consts  --      0.5069                 0.9141                 1.9875
 IR Inten    --    183.1046                30.6807                49.3262

                     19                     20                     21
                      A                      A                      A
 Frequencies --    789.9274               798.9857               831.6123
 Red. masses --      1.6702                 3.4459                 3.9517
 Frc consts  --      0.6140                 1.2961                 1.6102
 IR Inten    --    323.2648                 4.1197                25.5591

                     22                     23                     24
                      A                      A                      A
 Frequencies --    834.4527               900.2580               951.3470
 Red. masses --      1.8145                 1.4389                 1.2907
 Frc consts  --      0.7444                 0.6871                 0.6883
 IR Inten    --     24.2460                31.1339                 1.3116

                     25                     26                     27
                      A                      A                      A
 Frequencies --    967.6032              1082.0373              1118.6807
 Red. masses --      4.2578                 1.6179                 1.9952
 Frc consts  --      2.3487                 1.1160                 1.4711
 IR Inten    --     11.6788                 9.4929                45.1485

                     28                     29                     30
                      A                      A                      A
 Frequencies --   1137.3058              1177.4416              1277.3180
 Red. masses --      1.2750                 1.2159                 3.0102
 Frc consts  --      0.9717                 0.9932                 2.8937
 IR Inten    --     11.0871                14.2427                18.3536

                     31                     32                     33
                      A                      A                      A
 Frequencies --   1318.6265              1341.3339              1387.9740
 Red. masses --      1.6336                 2.7885                12.1509
 Frc consts  --      1.6736                 2.9559                13.7918
 IR Inten    --      6.6374               198.4454               484.7742

                     34                     35                     36
                      A                      A                      A
 Frequencies --   1418.4674              1486.7418              1551.7005
 Red. masses --      5.2822                 3.7797                 3.3598
 Frc consts  --      6.2618                 4.9225                 4.7663
 IR Inten    --      6.6857                 1.7322                90.3827

                     37                     38                     39
                      A                      A                      A
 Frequencies --   1610.0053              1625.4684              1659.9500
 Red. masses --      9.9410                 1.7638                 4.5676
 Frc consts  --     15.1822                 2.7457                 7.4153
 IR Inten    --    210.7602                21.8311                85.9729

                     40                     41                     42
                      A                      A                      A
 Frequencies --   1668.0059              1682.1307              3186.6098
 Red. masses --      1.1860                 2.6389                 1.0903
 Frc consts  --      1.9441                 4.3994                 6.5229
 IR Inten    --     49.4698                98.2269                13.7702

                     43                     44                     45
                      A                      A                      A
 Frequencies --   3229.4853              3250.5440              3513.2975
 Red. masses --      1.0910                 1.0926                 1.0513
 Frc consts  --      6.7044                 6.8021                 7.6457
 IR Inten    --      2.7272                 1.5336                 6.5727

                     46                     47                     48
                      A                      A                      A
 Frequencies --   3538.2788              3626.9040              3658.3231
 Red. masses --      1.0491                 1.0932                 1.0969
 Frc consts  --      7.7384                 8.4729                 8.6495
 IR Inten    --     29.4583                14.2749                21.8346

 - Thermochemistry -
 -------------------
 Temperature   298.150 Kelvin.  Pressure   1.00000 Atm.
 Atom     1 has atomic number  6 and mass  12.00000

 Molecular mass:   153.05383 amu.
 Principal axes and moments of inertia in atomic units:
                           1         2         3
     Eigenvalues --   721.556642480.618923196.05301
           X            0.99999   0.00468   0.00078
           Y           -0.00467   0.99996  -0.00717
           Z           -0.00082   0.00717   0.99997
 This molecule is an asymmetric top.
 Rotational symmetry number  1.
 Warning -- assumption of classical behavior for rotation
           may cause significant error
 Rotational temperatures (Kelvin)      0.12004     0.03492     0.02710
 Rotational constants (GHZ):           2.50118     0.72754     0.56468
 Zero-point vibrational energy     360934.0 (Joules/Mol)
                                   86.26530 (Kcal/Mol)
 Warning -- explicit consideration of  14 degrees of freedom as
           vibrations may cause significant error
 Vibrational temperatures:     97.80   166.69   301.69   310.36   345.54
          (Kelvin)            457.52   481.63   525.46   614.36   646.03
                              704.21   798.91   810.79   830.19   931.65
                              977.99  1027.22  1083.10  1136.53  1149.56
                             1196.50  1200.59  1295.27  1368.77  1392.16
                             1556.81  1609.53  1636.33  1694.07  1837.77
                             1897.21  1929.88  1996.98  2040.86  2139.09
                             2232.55  2316.44  2338.68  2388.29  2399.89
                             2420.21  4584.81  4646.50  4676.80  5054.85
                             5090.79  5218.30  5263.50

 Zero-point correction=                           0.137473 (Hartree/Particle)
 Thermal correction to Energy=                    0.146888
 Thermal correction to Enthalpy=                  0.147832
 Thermal correction to Gibbs Free Energy=         0.102851
 Sum of electronic and zero-point Energies=           -547.343258
 Sum of electronic and thermal Energies=              -547.333843
 Sum of electronic and thermal Enthalpies=            -547.332899
 Sum of electronic and thermal Free Energies=         -547.377879

                     E (Thermal)             CV                S
                      KCal/Mol        Cal/Mol-Kelvin    Cal/Mol-Kelvin
 Total                   92.174             36.674             94.670
 Electronic               0.000              0.000              0.000
 Translational            0.889              2.981             40.987
 Rotational               0.889              2.981             30.127
 Vibrational             90.396             30.713             23.557
 Vibration     1          0.598              1.969              4.211
 Vibration     2          0.608              1.936              3.168
 Vibration     3          0.642              1.826              2.046
 Vibration     4          0.645              1.817              1.995
 Vibration     5          0.657              1.779              1.802
 Vibration     6          0.704              1.639              1.320
 Vibration     7          0.716              1.606              1.237
 Vibration     8          0.738              1.544              1.100
 Vibration     9          0.789              1.411              0.869
 Vibration    10          0.808              1.363              0.799
 Vibration    11          0.845              1.273              0.685
 Vibration    12          0.911              1.128              0.533
 Vibration    13          0.919              1.110              0.517
 Vibration    14          0.933              1.081              0.491

 Optimization completed.
    -- Stationary point found.
 Normal termination of Gaussian 09 at Fri Aug 20 16:05:28 2021.
