 Gaussian 09, Revision E.01,
 Gaussian 09:  ES64L-G09RevE.01 30-Nov-2015

 -------------------------
 #P OPT Freq B3LYP/6-31G**
 -------------------------

 ------
 INEZUY
 ------
 Symbolic Z-matrix:
 Charge =  0 Multiplicity = 1

 SCF Done:  E(RB3LYP) =  -557.308593557     A.U. after   16 cycles
 SCF Done:  E(RB3LYP) =  -557.387953865     A.U. after   14 cycles
 SCF Done:  E(RB3LYP) =  -557.410625154     A.U. after   15 cycles
 SCF Done:  E(RB3LYP) =  -557.413705701     A.U. after   14 cycles
 SCF Done:  E(RB3LYP) =  -557.410471144     A.U. after   15 cycles
 SCF Done:  E(RB3LYP) =  -557.414413399     A.U. after   12 cycles
 SCF Done:  E(RB3LYP) =  -557.414921237     A.U. after   12 cycles
 SCF Done:  E(RB3LYP) =  -557.414986275     A.U. after   12 cycles
 SCF Done:  E(RB3LYP) =  -557.415035471     A.U. after   12 cycles
 SCF Done:  E(RB3LYP) =  -557.415111592     A.U. after   13 cycles
 SCF Done:  E(RB3LYP) =  -557.415349073     A.U. after   13 cycles
 SCF Done:  E(RB3LYP) =  -557.415356560     A.U. after   14 cycles
 SCF Done:  E(RB3LYP) =  -557.415393462     A.U. after   12 cycles
 SCF Done:  E(RB3LYP) =  -557.415403881     A.U. after   12 cycles
 SCF Done:  E(RB3LYP) =  -557.415406462     A.U. after   10 cycles
 SCF Done:  E(RB3LYP) =  -557.415409291     A.U. after   11 cycles
 SCF Done:  E(RB3LYP) =  -557.415410779     A.U. after   10 cycles
 SCF Done:  E(RB3LYP) =  -557.415411979     A.U. after   10 cycles
 SCF Done:  E(RB3LYP) =  -557.415412134     A.U. after    8 cycles
 Optimization completed.
    -- Stationary point found.
 Normal termination of Gaussian 09 at Fri Aug 20 15:54:43 2021.

 ----------------------------------------------------------------------
 #P Geom=AllCheck Guess=TCheck SCRF=Check GenChk RB3LYP/6-31G(d,p) Freq
 ----------------------------------------------------------------------

 Structure from the checkpoint file:  "/public/home/users/caep010/.cache/gau_scr/Gau-158911.chk"
 ------
 INEZUY
 ------
 Charge =  0 Multiplicity = 1

                         Standard orientation:
 ---------------------------------------------------------------------
 Center     Atomic      Atomic             Coordinates (Angstroms)
 Number     Number       Type             X           Y           Z
 ---------------------------------------------------------------------
      1          7           0       -1.483280    1.043819   -0.019226
      2          6           0       -0.137962    1.111243    0.008129
      3          6           0        0.351721   -0.217248    0.015894
      4          7           0        1.702327   -0.641313    0.000866
      5          7           0       -1.710748   -0.276192   -0.001394
      6          7           0       -0.688943   -1.080352    0.019898
      7          7           0        0.552542    2.276229    0.062721
      8          1           0        0.072872    3.117423   -0.217052
      9          8           0        2.554971    0.270194   -0.022645
     10          7           0       -3.015439   -0.750286   -0.115062
     11          1           0       -3.553636   -0.347057    0.650573
     12          8           0        1.959082   -1.842177    0.009478
     13          1           0        1.544430    2.196982   -0.111751
     14          1           0       -2.953858   -1.758790    0.004805
 ---------------------------------------------------------------------

 SCF Done:  E(RB3LYP) =  -557.415412134     A.U. after    1 cycles

 The electronic state is 1-A.
 Alpha  occ. eigenvalues --  -19.17473 -19.17402 -14.57119 -14.51656 -14.41344
 Alpha  occ. eigenvalues --  -14.40389 -14.38375 -14.37093 -10.29118 -10.27055
 Alpha  occ. eigenvalues --   -1.21816  -1.16336  -1.04373  -0.98719  -0.95303
 Alpha  occ. eigenvalues --   -0.91328  -0.82165  -0.73318  -0.64971  -0.62966
 Alpha  occ. eigenvalues --   -0.57657  -0.55911  -0.54589  -0.53103  -0.52609
 Alpha  occ. eigenvalues --   -0.50333  -0.49420  -0.49204  -0.39382  -0.37012
 Alpha  occ. eigenvalues --   -0.33937  -0.32937  -0.30491  -0.30304  -0.29288
 Alpha  occ. eigenvalues --   -0.28656  -0.23481
 Alpha virt. eigenvalues --   -0.08085  -0.01321   0.05541   0.07115   0.08008
 Alpha virt. eigenvalues --    0.10531   0.12104   0.13982   0.18861   0.20603
 Alpha virt. eigenvalues --    0.25443   0.26074   0.26630   0.29691   0.36549

 Mulliken charges:
               1
     1  N   -0.365343
     2  C    0.527038
     3  C    0.464544
     4  N    0.331448
     5  N    0.078740
     6  N   -0.313325
     7  N   -0.672306
     8  H    0.282382
     9  O   -0.442285
    10  N   -0.383533
    11  H    0.292703
    12  O   -0.396128
    13  H    0.301682
    14  H    0.294382
 Sum of Mulliken charges =  -0.00000

 Dipole moment (field-independent basis, Debye):
    X=             -4.1546    Y=              2.1134    Z=              0.6876  Tot=              4.7117
 Quadrupole moment (field-independent basis, Debye-Ang):
   XX=            -55.7901   YY=            -51.6908   ZZ=            -55.4914
   XY=             10.2537   XZ=             -5.6611   YZ=             -2.6150

  Exact polarizability: 103.852   0.944  84.098  -1.144   0.028  28.547
 Approx polarizability: 175.195  -2.997 163.474   0.261   0.669  43.767

                      1                      2                      3
                      A                      A                      A
 Frequencies --     93.0529               120.3222               161.3539
 Red. masses --     10.4698                 1.0819                 6.5513
 Frc consts  --      0.0534                 0.0092                 0.1005
 IR Inten    --      1.4457                67.9044                 4.0693

                      4                      5                      6
                      A                      A                      A
 Frequencies --    208.8719               228.7146               306.8805
 Red. masses --      7.7570                 6.2582                 3.3598
 Frc consts  --      0.1994                 0.1929                 0.1864
 IR Inten    --      2.8938                 6.5943                10.6389

                      7                      8                      9
                      A                      A                      A
 Frequencies --    352.2595               396.4756               427.6867
 Red. masses --      2.6368                 1.7104                 5.7868
 Frc consts  --      0.1928                 0.1584                 0.6236
 IR Inten    --     35.1506               214.3189                 0.8948

                     10                     11                     12
                      A                      A                      A
 Frequencies --    447.9908               509.3568               619.2971
 Red. masses --      8.3570                 1.1924                 4.3808
 Frc consts  --      0.9882                 0.1823                 0.9899
 IR Inten    --      8.7909                56.1772                 2.0248

                     13                     14                     15
                      A                      A                      A
 Frequencies --    635.5530               662.8484               700.9845
 Red. masses --     10.2163                 6.0332                11.9431
 Frc consts  --      2.4314                 1.5618                 3.4577
 IR Inten    --      8.9240                13.2265                 2.9026

                     16                     17                     18
                      A                      A                      A
 Frequencies --    761.2889               795.1136               882.1034
 Red. masses --     13.3435                10.5360                 7.4492
 Frc consts  --      4.5564                 3.9245                 3.4151
 IR Inten    --     12.7882                61.1431                 7.2562

                     19                     20                     21
                      A                      A                      A
 Frequencies --    975.6681              1032.3612              1109.5079
 Red. masses --      1.4473                 7.0162                 1.7397
 Frc consts  --      0.8117                 4.4057                 1.2618
 IR Inten    --    241.9906                 2.8374                28.9642

                     22                     23                     24
                      A                      A                      A
 Frequencies --   1226.2232              1250.7804              1373.8720
 Red. masses --      2.3465                 4.6982                 9.8569
 Frc consts  --      2.0787                 4.3305                10.9618
 IR Inten    --     31.1528                38.1820                29.8744

                     25                     26                     27
                      A                      A                      A
 Frequencies --   1388.5209              1443.6402              1472.6796
 Red. masses --     11.6036                 4.3313                 4.0579
 Frc consts  --     13.1810                 5.3184                 5.1853
 IR Inten    --    272.1110                89.8831                39.1695

                     28                     29                     30
                      A                      A                      A
 Frequencies --   1545.7190              1557.3947              1627.7789
 Red. masses --      3.7148                 1.9887                 3.5340
 Frc consts  --      5.2293                 2.8419                 5.5171
 IR Inten    --     78.3131               104.5028               103.6526

                     31                     32                     33
                      A                      A                      A
 Frequencies --   1646.6919              1679.6057              3479.7275
 Red. masses --      1.0997                 4.2726                 1.0484
 Frc consts  --      1.7569                 7.1016                 7.4791
 IR Inten    --     38.2859               386.8778                12.9248

                     34                     35                     36
                      A                      A                      A
 Frequencies --   3587.2963              3596.8544              3725.2149
 Red. masses --      1.0455                 1.0959                 1.1036
 Frc consts  --      7.9272                 8.3535                 9.0233
 IR Inten    --     58.5773                25.8584                72.1253

 - Thermochemistry -
 -------------------
 Temperature   298.150 Kelvin.  Pressure   1.00000 Atm.
 Atom     1 has atomic number  7 and mass  14.00307

 Molecular mass:   144.03957 amu.
 Principal axes and moments of inertia in atomic units:
                           1         2         3
     Eigenvalues --   742.243571582.193262319.22712
           X            0.99911   0.04182  -0.00581
           Y           -0.04185   0.99911  -0.00579
           Z            0.00556   0.00603   0.99997
 This molecule is an asymmetric top.
 Rotational symmetry number  1.
 Warning -- assumption of classical behavior for rotation
           may cause significant error
 Rotational temperatures (Kelvin)      0.11669     0.05474     0.03735
 Rotational constants (GHZ):           2.43147     1.14066     0.77816
 Zero-point vibrational energy     251393.4 (Joules/Mol)
                                   60.08446 (Kcal/Mol)
 Warning -- explicit consideration of  12 degrees of freedom as
           vibrations may cause significant error
 Vibrational temperatures:    133.88   173.12   232.15   300.52   329.07
          (Kelvin)            441.53   506.82   570.44   615.34   644.56
                              732.85   891.03   914.42   953.69  1008.56
                             1095.32  1143.99  1269.15  1403.77  1485.34
                             1596.33  1764.26  1799.59  1976.69  1997.77
                             2077.07  2118.85  2223.94  2240.74  2342.01
                             2369.22  2416.57  5006.55  5161.31  5175.06
                             5359.75

 Zero-point correction=                           0.095751 (Hartree/Particle)
 Thermal correction to Energy=                    0.104494
 Thermal correction to Enthalpy=                  0.105438
 Thermal correction to Gibbs Free Energy=         0.061884
 Sum of electronic and zero-point Energies=           -557.319661
 Sum of electronic and thermal Energies=              -557.310918
 Sum of electronic and thermal Enthalpies=            -557.309974
 Sum of electronic and thermal Free Energies=         -557.353528

                     E (Thermal)             CV                S
                      KCal/Mol        Cal/Mol-Kelvin    Cal/Mol-Kelvin
 Total                   65.571             31.692             91.667
 Electronic               0.000              0.000              0.000
 Translational            0.889              2.981             40.806
 Rotational               0.889              2.981             29.389
 Vibrational             63.794             25.730             21.472
 Vibration     1          0.602              1.954              3.595
 Vibration     2          0.609              1.932              3.095
 Vibration     3          0.622              1.890              2.534
 Vibration     4          0.642              1.827              2.054
 Vibration     5          0.651              1.797              1.889
 Vibration     6          0.697              1.661              1.379
 Vibration     7          0.729              1.571              1.156
 Vibration     8          0.763              1.478              0.976
 Vibration     9          0.789              1.410              0.866
 Vibration    10          0.807              1.365              0.802
 Vibration    11          0.865              1.229              0.635
 Vibration    12          0.979              0.991              0.418

 Optimization completed.
    -- Stationary point found.
 Normal termination of Gaussian 09 at Fri Aug 20 15:54:58 2021.
