 Gaussian 09, Revision E.01,
 Gaussian 09:  ES64L-G09RevE.01 30-Nov-2015

 -------------------------
 #P OPT Freq B3LYP/6-31G**
 -------------------------

 ------
 CUZDEG
 ------
 Symbolic Z-matrix:
 Charge =  0 Multiplicity = 1

 SCF Done:  E(RB3LYP) =  -696.554802680     A.U. after   16 cycles
 SCF Done:  E(RB3LYP) =  -696.610741142     A.U. after   14 cycles
 SCF Done:  E(RB3LYP) =  -696.621077789     A.U. after   15 cycles
 SCF Done:  E(RB3LYP) =  -696.610949217     A.U. after   16 cycles
 SCF Done:  E(RB3LYP) =  -696.621878366     A.U. after   12 cycles
 SCF Done:  E(RB3LYP) =  -696.620796816     A.U. after   15 cycles
 SCF Done:  E(RB3LYP) =  -696.622235395     A.U. after   11 cycles
 SCF Done:  E(RB3LYP) =  -696.622282627     A.U. after   14 cycles
 SCF Done:  E(RB3LYP) =  -696.621049922     A.U. after   15 cycles
 SCF Done:  E(RB3LYP) =  -696.622368929     A.U. after   11 cycles
 SCF Done:  E(RB3LYP) =  -696.622526021     A.U. after   13 cycles
 SCF Done:  E(RB3LYP) =  -696.622535649     A.U. after   13 cycles
 SCF Done:  E(RB3LYP) =  -696.622565331     A.U. after   13 cycles
 SCF Done:  E(RB3LYP) =  -696.622568790     A.U. after   10 cycles
 SCF Done:  E(RB3LYP) =  -696.622569371     A.U. after    9 cycles
 SCF Done:  E(RB3LYP) =  -696.622569507     A.U. after    8 cycles
 Optimization completed.
    -- Stationary point found.
 Normal termination of Gaussian 09 at Fri Aug 20 15:53:37 2021.

 ----------------------------------------------------------------------
 #P Geom=AllCheck Guess=TCheck SCRF=Check GenChk RB3LYP/6-31G(d,p) Freq
 ----------------------------------------------------------------------

 Structure from the checkpoint file:  "/public/home/users/caep010/.cache/gau_scr/Gau-128210.chk"
 ------
 CUZDEG
 ------
 Charge =  0 Multiplicity = 1

                         Standard orientation:
 ---------------------------------------------------------------------
 Center     Atomic      Atomic             Coordinates (Angstroms)
 Number     Number       Type             X           Y           Z
 ---------------------------------------------------------------------
      1          8           0        2.603642   -1.598504    0.000471
      2          7           0        2.524613   -0.356969   -0.000304
      3          8           0        3.516642    0.369549   -0.001395
      4          6           0        1.208964    0.271112    0.000178
      5          6           0       -0.000025   -0.508350    0.000388
      6          7           0       -0.000034   -1.845552    0.000697
      7          6           0       -1.208990    0.271135    0.000193
      8          7           0       -2.524601   -0.356963   -0.000318
      9          8           0       -2.603568   -1.598517   -0.000076
     10          8           0       -3.516652    0.369522   -0.000977
     11          6           0        1.195544    1.664508    0.000394
     12          6           0        0.000003    2.371526    0.000633
     13          6           0       -1.195555    1.664536    0.000395
     14          1           0        2.151611    2.172069    0.000288
     15          1           0        0.000005    3.454686    0.000991
     16          1           0       -2.151619    2.172084    0.000288
     17          1           0        0.896965   -2.312782    0.000438
     18          1           0       -0.896966   -2.312862    0.000192
 ---------------------------------------------------------------------

 SCF Done:  E(RB3LYP) =  -696.622569507     A.U. after    1 cycles

 The electronic state is 1-A.
 Alpha  occ. eigenvalues --  -19.19663 -19.19663 -19.19387 -19.19387 -14.58896
 Alpha  occ. eigenvalues --  -14.58896 -14.38078 -10.30535 -10.27332 -10.27331
 Alpha  occ. eigenvalues --  -10.24323 -10.24322 -10.22543  -1.23803  -1.23784
 Alpha  occ. eigenvalues --   -1.06388  -1.06293  -0.97563  -0.89821  -0.85083
 Alpha  occ. eigenvalues --   -0.80331  -0.72645  -0.71917  -0.64138  -0.63045
 Alpha  occ. eigenvalues --   -0.57633  -0.55558  -0.55427  -0.54894  -0.54482
 Alpha  occ. eigenvalues --   -0.54460  -0.53014  -0.52033  -0.49482  -0.46730
 Alpha  occ. eigenvalues --   -0.42941  -0.42059  -0.41421  -0.36247  -0.33121
 Alpha  occ. eigenvalues --   -0.32547  -0.32251  -0.31952  -0.31180  -0.30616
 Alpha  occ. eigenvalues --   -0.30064  -0.25091
 Alpha virt. eigenvalues --   -0.11425  -0.08881  -0.02001  -0.00471   0.06410
 Alpha virt. eigenvalues --    0.10805   0.11461   0.13174   0.14218   0.16792
 Alpha virt. eigenvalues --    0.16861   0.18513   0.21979   0.25896   0.26130

 Mulliken charges:
               1
     1  O   -0.433644
     2  N    0.379507
     3  O   -0.394299
     4  C    0.226696
     5  C    0.335375
     6  N   -0.663698
     7  C    0.226714
     8  N    0.379501
     9  O   -0.433658
    10  O   -0.394304
    11  C   -0.082550
    12  C   -0.115460
    13  C   -0.082542
    14  H    0.153687
    15  H    0.115186
    16  H    0.153683
    17  H    0.314902
    18  H    0.314904
 Sum of Mulliken charges =  -0.00000

 Dipole moment (field-independent basis, Debye):
    X=              0.0001    Y=              1.8524    Z=              0.0015  Tot=              1.8524
 Quadrupole moment (field-independent basis, Debye-Ang):
   XX=            -96.3466   YY=            -63.9153   ZZ=            -71.7860
   XY=             -0.0001   XZ=              0.0005   YZ=              0.0063

  Exact polarizability: 149.390  -0.000 123.599  -0.001  -0.005  34.494
 Approx polarizability: 259.567  -0.001 257.338  -0.007  -0.040  54.546

                      1                      2                      3
                      A                      A                      A
 Frequencies --     55.8308                57.0150                96.4270
 Red. masses --     11.2795                14.8551                10.2521
 Frc consts  --      0.0207                 0.0285                 0.0562
 IR Inten    --      3.8769                 0.0016                 0.8811

                      4                      5                      6
                      A                      A                      A
 Frequencies --    196.1302               236.1324               264.5600
 Red. masses --      4.7680                12.0801                 5.4684
 Frc consts  --      0.1081                 0.3969                 0.2255
 IR Inten    --      0.0000                 8.8464                 0.0043

                      7                      8                      9
                      A                      A                      A
 Frequencies --    343.0758               351.1548               417.8741
 Red. masses --     12.8415                 9.3965                 4.3130
 Frc consts  --      0.8905                 0.6827                 0.4437
 IR Inten    --      0.1819                 0.5106                 4.3941

                     10                     11                     12
                      A                      A                      A
 Frequencies --    440.1771               455.0049               485.9210
 Red. masses --      6.2342                 5.0647                11.8257
 Frc consts  --      0.7117                 0.6178                 1.6452
 IR Inten    --      0.1665                 0.0000                 4.6310

                     13                     14                     15
                      A                      A                      A
 Frequencies --    516.0436               548.6652               609.3478
 Red. masses --      1.1369                 3.4346                 7.9218
 Frc consts  --      0.1784                 0.6092                 1.7330
 IR Inten    --    218.5355                 0.8954                 3.3605

                     16                     17                     18
                      A                      A                      A
 Frequencies --    620.7222               695.5429               725.3207
 Red. masses --      4.3713                 9.7767                 8.5265
 Frc consts  --      0.9923                 2.7867                 2.6429
 IR Inten    --     10.6704                 0.3104                17.6656

                     19                     20                     21
                      A                      A                      A
 Frequencies --    726.2043               746.9597               760.3674
 Red. masses --      1.0531                 2.9105                 9.3054
 Frc consts  --      0.3272                 0.9568                 3.1698
 IR Inten    --      0.0627                48.1345                 0.0000

                     22                     23                     24
                      A                      A                      A
 Frequencies --    815.1723               831.5846               874.8696
 Red. masses --      1.7764                 8.1924                 6.7336
 Frc consts  --      0.6955                 3.3379                 3.0366
 IR Inten    --      9.0987                 1.2910                 7.0464

                     25                     26                     27
                      A                      A                      A
 Frequencies --    913.6492               987.5381               995.7461
 Red. masses --      5.5327                 1.3597                 1.3163
 Frc consts  --      2.7211                 0.7813                 0.7690
 IR Inten    --     80.0272                 0.0001                 0.8949

                     28                     29                     30
                      A                      A                      A
 Frequencies --   1088.1057              1121.6921              1147.7286
 Red. masses --      1.8716                 1.6361                10.5700
 Frc consts  --      1.3056                 1.2128                 8.2036
 IR Inten    --     43.0451                27.9874                 0.0515

                     31                     32                     33
                      A                      A                      A
 Frequencies --   1192.0492              1286.2079              1324.8040
 Red. masses --      1.2141                 1.6263                 4.0913
 Frc consts  --      1.0164                 1.5852                 4.2308
 IR Inten    --      8.9426                 0.1456               116.2714

                     34                     35                     36
                      A                      A                      A
 Frequencies --   1328.1693              1375.2043              1410.4284
 Red. masses --      9.1695                 3.6370                 6.6451
 Frc consts  --      9.5302                 4.0526                 7.7885
 IR Inten    --    868.3064                15.9446               116.3900

                     37                     38                     39
                      A                      A                      A
 Frequencies --   1482.5381              1489.9601              1581.4668
 Red. masses --      2.3157                 2.6057                 4.3214
 Frc consts  --      2.9988                 3.4082                 6.3679
 IR Inten    --      7.8854                62.6812               257.4955

                     40                     41                     42
                      A                      A                      A
 Frequencies --   1601.9943              1618.2095              1630.0563
 Red. masses --      6.1045                 9.6108                 2.5326
 Frc consts  --      9.2304                14.8279                 3.9647
 IR Inten    --     28.4634               182.0013                 0.2650

                     43                     44                     45
                      A                      A                      A
 Frequencies --   1692.2427              3226.3209              3248.8762
 Red. masses --      8.9319                 1.0897                 1.0909
 Frc consts  --     15.0702                 6.6831                 6.7844
 IR Inten    --    338.9651                 2.5235                 9.0889

                     46                     47                     48
                      A                      A                      A
 Frequencies --   3251.1952              3521.0040              3659.5743
 Red. masses --      1.0951                 1.0427                 1.1090
 Frc consts  --      6.8199                 7.6164                 8.7508
 IR Inten    --      0.0028                92.1741               236.0927

 - Thermochemistry -
 -------------------
 Temperature   298.150 Kelvin.  Pressure   1.00000 Atm.
 Atom     1 has atomic number  8 and mass  15.99491

 Molecular mass:   183.02801 amu.
 Principal axes and moments of inertia in atomic units:
                           1         2         3
     Eigenvalues --  1101.637933111.471304213.10871
           X            1.00000   0.00000   0.00000
           Y           -0.00000   1.00000   0.00001
           Z           -0.00000  -0.00001   1.00000
 This molecule is an asymmetric top.
 Rotational symmetry number  1.
 Warning -- assumption of classical behavior for rotation
           may cause significant error
 Rotational temperatures (Kelvin)      0.07862     0.02784     0.02056
 Rotational constants (GHZ):           1.63823     0.58003     0.42836
 Zero-point vibrational energy     323260.1 (Joules/Mol)
                                   77.26101 (Kcal/Mol)
 Warning -- explicit consideration of  16 degrees of freedom as
           vibrations may cause significant error
 Vibrational temperatures:     80.33    82.03   138.74   282.19   339.74
          (Kelvin)            380.64   493.61   505.23   601.23   633.32
                              654.65   699.13   742.47   789.41   876.71
                              893.08  1000.73  1043.57  1044.84  1074.71
                             1094.00  1172.85  1196.46  1258.74  1314.54
                             1420.85  1432.65  1565.54  1613.86  1651.32
                             1715.09  1850.56  1906.10  1910.94  1978.61
                             2029.29  2133.04  2143.72  2275.38  2304.91
                             2328.24  2345.28  2434.76  4641.95  4674.40
                             4677.74  5065.93  5265.30

 Zero-point correction=                           0.123123 (Hartree/Particle)
 Thermal correction to Energy=                    0.133370
 Thermal correction to Enthalpy=                  0.134314
 Thermal correction to Gibbs Free Energy=         0.086294
 Sum of electronic and zero-point Energies=           -696.499446
 Sum of electronic and thermal Energies=              -696.489199
 Sum of electronic and thermal Enthalpies=            -696.488255
 Sum of electronic and thermal Free Energies=         -696.536276

                     E (Thermal)             CV                S
                      KCal/Mol        Cal/Mol-Kelvin    Cal/Mol-Kelvin
 Total                   83.691             39.119            101.068
 Electronic               0.000              0.000              0.000
 Translational            0.889              2.981             41.520
 Rotational               0.889              2.981             31.047
 Vibrational             81.914             33.158             28.502
 Vibration     1          0.596              1.975              4.599
 Vibration     2          0.596              1.975              4.558
 Vibration     3          0.603              1.952              3.525
 Vibration     4          0.636              1.845              2.169
 Vibration     5          0.655              1.785              1.832
 Vibration     6          0.671              1.738              1.631
 Vibration     7          0.722              1.589              1.198
 Vibration     8          0.728              1.573              1.161
 Vibration     9          0.781              1.431              0.899
 Vibration    10          0.800              1.383              0.826
 Vibration    11          0.813              1.350              0.781
 Vibration    12          0.842              1.281              0.694
 Vibration    13          0.871              1.214              0.619
 Vibration    14          0.904              1.143              0.547
 Vibration    15          0.968              1.012              0.434
 Vibration    16          0.981              0.988              0.415

 Normal termination of Gaussian 09 at Fri Aug 20 15:54:06 2021.
