 Gaussian 09, Revision E.01,
 Gaussian 09:  ES64L-G09RevE.01 30-Nov-2015

 -------------------------
 #P OPT Freq B3LYP/6-31G**
 -------------------------

 ------
 MIYDII
 ------
 Symbolic Z-matrix:
 Charge =  0 Multiplicity = 1

 SCF Done:  E(RB3LYP) =  -754.295639564     A.U. after   15 cycles
 SCF Done:  E(RB3LYP) =  -754.410084302     A.U. after   13 cycles
 SCF Done:  E(RB3LYP) =  -754.471305458     A.U. after   15 cycles
 SCF Done:  E(RB3LYP) =  -754.473586100     A.U. after   16 cycles
 SCF Done:  E(RB3LYP) =  -754.480594331     A.U. after   14 cycles
 SCF Done:  E(RB3LYP) =  -754.482702126     A.U. after   13 cycles
 SCF Done:  E(RB3LYP) =  -754.484023204     A.U. after   13 cycles
 SCF Done:  E(RB3LYP) =  -754.484160919     A.U. after   13 cycles
 SCF Done:  E(RB3LYP) =  -754.484812829     A.U. after   13 cycles
 SCF Done:  E(RB3LYP) =  -754.484954737     A.U. after   12 cycles
 SCF Done:  E(RB3LYP) =  -754.485007997     A.U. after   12 cycles
 SCF Done:  E(RB3LYP) =  -754.485025718     A.U. after   12 cycles
 SCF Done:  E(RB3LYP) =  -754.485035327     A.U. after   11 cycles
 SCF Done:  E(RB3LYP) =  -754.485040106     A.U. after    9 cycles
 SCF Done:  E(RB3LYP) =  -754.485041011     A.U. after    8 cycles
 SCF Done:  E(RB3LYP) =  -754.485041235     A.U. after    8 cycles
 Optimization completed.
    -- Stationary point found.
 Normal termination of Gaussian 09 at Fri Aug 20 15:40:10 2021.

 ----------------------------------------------------------------------
 #P Geom=AllCheck Guess=TCheck SCRF=Check GenChk RB3LYP/6-31G(d,p) Freq
 ----------------------------------------------------------------------

 Structure from the checkpoint file:  "/public/home/users/caep010/.cache/gau_scr/Gau-154616.chk"
 ------
 MIYDII
 ------
 Charge =  0 Multiplicity = 1

                         Standard orientation:
 ---------------------------------------------------------------------
 Center     Atomic      Atomic             Coordinates (Angstroms)
 Number     Number       Type             X           Y           Z
 ---------------------------------------------------------------------
      1          8           0        3.025395   -1.851276   -0.635326
      2          1           0        3.264274   -2.782122   -0.486553
      3          6           0        1.802904   -1.676249   -0.091310
      4          8           0        1.183842   -2.557183    0.458217
      5          6           0        1.320514   -0.239171   -0.267752
      6          7           0       -0.050566   -0.190709    0.224184
      7          1           0       -0.483640   -1.077263    0.494414
      8          1           0        1.340207   -0.028560   -1.347382
      9          6           0        2.278148    0.754744    0.426316
     10          1           0        2.180493    0.626185    1.511112
     11          1           0        3.303600    0.490934    0.153013
     12          6           0        2.005242    2.207159    0.029550
     13          1           0        2.707747    2.859101    0.561711
     14          1           0        2.193684    2.339534   -1.043037
     15          6           0        0.585921    2.681494    0.342495
     16          7           0       -0.455471    2.008887   -0.451379
     17          1           0       -1.232757    2.605721   -0.708742
     18          1           0        0.383128    2.568741    1.417380
     19          1           0        0.504614    3.746039    0.108176
     20          6           0       -0.939825    0.768410   -0.103350
     21          7           0       -2.267258    0.690201   -0.151171
     22          7           0       -2.876727   -0.542777    0.004364
     23          8           0       -4.053066   -0.583231   -0.331471
     24          8           0       -2.272248   -1.519043    0.501356
 ---------------------------------------------------------------------

 SCF Done:  E(RB3LYP) =  -754.485041235     A.U. after    1 cycles

 The electronic state is 1-A.
 Alpha  occ. eigenvalues --  -19.22612 -19.16996 -19.15455 -19.15126 -14.56887
 Alpha  occ. eigenvalues --  -14.37886 -14.37750 -14.34980 -10.34999 -10.32201
 Alpha  occ. eigenvalues --  -10.27094 -10.25014 -10.21891 -10.21503  -1.20737
 Alpha  occ. eigenvalues --   -1.13629  -1.04765  -1.02887  -1.01383  -0.93172
 Alpha  occ. eigenvalues --   -0.91369  -0.83162  -0.76915  -0.72797  -0.67205
 Alpha  occ. eigenvalues --   -0.63443  -0.61876  -0.61338  -0.55016  -0.54103
 Alpha  occ. eigenvalues --   -0.52359  -0.51722  -0.50812  -0.50169  -0.49351
 Alpha  occ. eigenvalues --   -0.48570  -0.46458  -0.45572  -0.44982  -0.43772
 Alpha  occ. eigenvalues --   -0.43192  -0.39579  -0.37603  -0.36925  -0.36333
 Alpha  occ. eigenvalues --   -0.34675  -0.32878  -0.30512  -0.29168  -0.28641
 Alpha  occ. eigenvalues --   -0.27589  -0.26125  -0.24956
 Alpha virt. eigenvalues --   -0.05023  -0.01924   0.03664   0.05054   0.06585
 Alpha virt. eigenvalues --    0.09576   0.09805   0.12222   0.12385   0.13947
 Alpha virt. eigenvalues --    0.14062   0.14781   0.15803   0.16669   0.18891

 Mulliken charges:
               1
     1  O   -0.484342
     2  H    0.335042
     3  C    0.574587
     4  O   -0.445588
     5  C    0.016658
     6  N   -0.553891
     7  H    0.334381
     8  H    0.147903
     9  C   -0.183006
    10  H    0.117497
    11  H    0.130878
    12  C   -0.182002
    13  H    0.110163
    14  H    0.113294
    15  C   -0.069394
    16  N   -0.535924
    17  H    0.286884
    18  H    0.122200
    19  H    0.121163
    20  C    0.729509
    21  N   -0.427629
    22  N    0.584974
    23  O   -0.390442
    24  O   -0.452916
 Sum of Mulliken charges =   0.00000

 Dipole moment (field-independent basis, Debye):
    X=              7.9761    Y=              3.6510    Z=             -0.4867  Tot=              8.7855
 Quadrupole moment (field-independent basis, Debye-Ang):
   XX=            -93.2476   YY=            -72.8379   ZZ=            -79.5445
   XY=             -8.4602   XZ=             -0.6843   YZ=              4.0069

  Exact polarizability: 138.764   9.296 113.254   2.364  -5.144  65.559
 Approx polarizability: 206.691  11.984 166.628   6.655 -19.881 109.519

                      1                      2                      3
                      A                      A                      A
 Frequencies --     44.9109                55.1714                65.2762
 Red. masses --     10.2725                12.0398                 5.4961
 Frc consts  --      0.0122                 0.0216                 0.0138
 IR Inten    --      0.7787                 0.0972                 0.4964

                      4                      5                      6
                      A                      A                      A
 Frequencies --    113.6785               125.0316               163.0991
 Red. masses --      6.1749                 5.9294                 3.6384
 Frc consts  --      0.0470                 0.0546                 0.0570
 IR Inten    --      1.5157                 0.3203                 0.4911

                      7                      8                      9
                      A                      A                      A
 Frequencies --    211.9680               244.7057               275.9794
 Red. masses --      4.5958                 4.8417                 6.7293
 Frc consts  --      0.1217                 0.1708                 0.3020
 IR Inten    --      6.7408                 5.4157                 9.6474

                     10                     11                     12
                      A                      A                      A
 Frequencies --    313.9965               353.1573               383.8507
 Red. masses --      2.1656                 6.1285                 4.8652
 Frc consts  --      0.1258                 0.4503                 0.4224
 IR Inten    --      2.5623                 0.7434                 3.0176

                     13                     14                     15
                      A                      A                      A
 Frequencies --    394.0815               433.0480               517.7465
 Red. masses --      8.1386                 3.2313                 1.9658
 Frc consts  --      0.7447                 0.3570                 0.3105
 IR Inten    --      0.2135                15.1842                 1.3442

                     16                     17                     18
                      A                      A                      A
 Frequencies --    554.1809               583.1197               636.2298
 Red. masses --      3.6069                 1.7501                 2.0678
 Frc consts  --      0.6527                 0.3506                 0.4932
 IR Inten    --     19.7267                55.4562                72.5834

                     19                     20                     21
                      A                      A                      A
 Frequencies --    671.1498               720.5017               734.1520
 Red. masses --      2.0469                 3.2127                 5.3231
 Frc consts  --      0.5432                 0.9826                 1.6904
 IR Inten    --     36.2491                28.5340                 3.1943

                     22                     23                     24
                      A                      A                      A
 Frequencies --    761.9651               766.2405               799.5633
 Red. masses --      6.2318                 4.5929                 2.3639
 Frc consts  --      2.1317                 1.5888                 0.8904
 IR Inten    --     47.7589                15.7373                34.4027

                     25                     26                     27
                      A                      A                      A
 Frequencies --    805.6927               838.3102               881.2256
 Red. masses --      1.4946                 2.6767                 2.1713
 Frc consts  --      0.5716                 1.1083                 0.9935
 IR Inten    --     97.8832                 8.8004                20.5352

                     28                     29                     30
                      A                      A                      A
 Frequencies --    904.9854               944.4397               972.1326
 Red. masses --      2.8202                 2.7902                 2.9798
 Frc consts  --      1.3608                 1.4663                 1.6592
 IR Inten    --     21.7730                11.3896                21.3363

                     31                     32                     33
                      A                      A                      A
 Frequencies --    990.2175              1007.9079              1085.0563
 Red. masses --      4.1464                 2.9173                 1.9840
 Frc consts  --      2.3954                 1.7461                 1.3763
 IR Inten    --     59.6842                12.4173                 8.8483

                     34                     35                     36
                      A                      A                      A
 Frequencies --   1120.1186              1139.8439              1168.0227
 Red. masses --      2.3428                 3.1124                 2.4837
 Frc consts  --      1.7319                 2.3825                 1.9964
 IR Inten    --      3.7993                76.9497               196.5235

                     37                     38                     39
                      A                      A                      A
 Frequencies --   1192.3127              1216.6554              1256.9654
 Red. masses --      2.4529                 1.2919                 1.2507
 Frc consts  --      2.0545                 1.1267                 1.1642
 IR Inten    --    150.1370                21.1580                13.4305

                     40                     41                     42
                      A                      A                      A
 Frequencies --   1272.3755              1304.6785              1326.6746
 Red. masses --      2.1820                 1.4899                 1.4289
 Frc consts  --      2.0813                 1.4942                 1.4817
 IR Inten    --    170.3508               122.6099                47.8044

                     43                     44                     45
                      A                      A                      A
 Frequencies --   1362.5637              1372.4559              1385.4780
 Red. masses --      1.3697                 2.1393                 1.6010
 Frc consts  --      1.4982                 2.3742                 1.8106
 IR Inten    --     82.0098                87.0996                10.6027

                     46                     47                     48
                      A                      A                      A
 Frequencies --   1396.6995              1406.7153              1422.2970
 Red. masses --      1.5159                 1.4046                 2.1876
 Frc consts  --      1.7423                 1.6377                 2.6073
 IR Inten    --     18.6753                15.3102                78.5973

                     49                     50                     51
                      A                      A                      A
 Frequencies --   1455.4766              1489.3389              1494.4850
 Red. masses --      1.5968                 1.1269                 1.1500
 Frc consts  --      1.9930                 1.4728                 1.5133
 IR Inten    --    178.9216                20.1238                 9.4873

                     52                     53                     54
                      A                      A                      A
 Frequencies --   1504.6635              1538.7312              1634.0290
 Red. masses --      1.1914                 2.4974                10.1871
 Frc consts  --      1.5892                 3.4839                16.0258
 IR Inten    --     16.8326               169.6364               589.2517

                     55                     56                     57
                      A                      A                      A
 Frequencies --   1667.5781              1852.4479              3017.3913
 Red. masses --      3.1124                10.2780                 1.0734
 Frc consts  --      5.0994                20.7803                 5.7580
 IR Inten    --    425.4584               215.5160                39.9069

                     58                     59                     60
                      A                      A                      A
 Frequencies --   3018.7664              3044.9605              3055.5680
 Red. masses --      1.0792                 1.0613                 1.0654
 Frc consts  --      5.7944                 5.7976                 5.8605
 IR Inten    --      4.4089                21.9870                11.9642

                     61                     62                     63
                      A                      A                      A
 Frequencies --   3091.3255              3109.6038              3118.2232
 Red. masses --      1.1015                 1.0959                 1.1015
 Frc consts  --      6.2017                 6.2433                 6.3106
 IR Inten    --     34.3130                23.0792                17.8693

                     64                     65                     66
                      A                      A                      A
 Frequencies --   3425.2435              3594.7424              3754.9185
 Red. masses --      1.0770                 1.0755                 1.0644
 Frc consts  --      7.4445                 8.1887                 8.8417
 IR Inten    --    169.1433                41.8493                81.1408

 - Thermochemistry -
 -------------------
 Temperature   298.150 Kelvin.  Pressure   1.00000 Atm.
 Atom     1 has atomic number  8 and mass  15.99491

 Molecular mass:   202.07020 amu.
 Principal axes and moments of inertia in atomic units:
                           1         2         3
     Eigenvalues --  1948.495153445.308875160.05317
           X            0.99983   0.01821   0.00106
           Y           -0.01822   0.99981   0.00680
           Z           -0.00094  -0.00682   0.99998
 This molecule is an asymmetric top.
 Rotational symmetry number  1.
 Warning -- assumption of classical behavior for rotation
           may cause significant error
 Rotational temperatures (Kelvin)      0.04445     0.02514     0.01679
 Rotational constants (GHZ):           0.92622     0.52383     0.34975
 Zero-point vibrational energy     493843.1 (Joules/Mol)
                                  118.03134 (Kcal/Mol)
 Warning -- explicit consideration of  17 degrees of freedom as
           vibrations may cause significant error
 Vibrational temperatures:     64.62    79.38    93.92   163.56   179.89
          (Kelvin)            234.66   304.97   352.08   397.07   451.77
                              508.11   552.27   566.99   623.06   744.92
                              797.34   838.98   915.39   965.63  1036.64
                             1056.28  1096.30  1102.45  1150.39  1159.21
                             1206.14  1267.89  1302.07  1358.84  1398.68
                             1424.70  1450.15  1561.15  1611.60  1639.98
                             1680.52  1715.47  1750.49  1808.49  1830.66
                             1877.14  1908.79  1960.42  1974.66  1993.39
                             2009.54  2023.95  2046.37  2094.10  2142.82
                             2150.23  2164.87  2213.89  2351.00  2399.27
                             2665.26  4341.35  4343.33  4381.01  4396.28
                             4447.72  4474.02  4486.42  4928.16  5172.03
                             5402.48

 Zero-point correction=                           0.188095 (Hartree/Particle)
 Thermal correction to Energy=                    0.200544
 Thermal correction to Enthalpy=                  0.201488
 Thermal correction to Gibbs Free Energy=         0.148082
 Sum of electronic and zero-point Energies=           -754.296946
 Sum of electronic and thermal Energies=              -754.284497
 Sum of electronic and thermal Enthalpies=            -754.283553
 Sum of electronic and thermal Free Energies=         -754.336959

                     E (Thermal)             CV                S
                      KCal/Mol        Cal/Mol-Kelvin    Cal/Mol-Kelvin
 Total                  125.843             46.489            112.403
 Electronic               0.000              0.000              0.000
 Translational            0.889              2.981             41.815
 Rotational               0.889              2.981             31.916
 Vibrational            124.066             40.527             38.672
 Vibration     1          0.595              1.979              5.030
 Vibration     2          0.596              1.976              4.623
 Vibration     3          0.597              1.971              4.291
 Vibration     4          0.607              1.938              3.205
 Vibration     5          0.610              1.928              3.021
 Vibration     6          0.623              1.888              2.514
 Vibration     7          0.643              1.823              2.027
 Vibration     8          0.660              1.772              1.768
 Vibration     9          0.678              1.718              1.558
 Vibration    10          0.702              1.647              1.341
 Vibration    11          0.729              1.569              1.152
 Vibration    12          0.753              1.505              1.024
 Vibration    13          0.761              1.483              0.985
 Vibration    14          0.794              1.398              0.849
 Vibration    15          0.873              1.211              0.615
 Vibration    16          0.910              1.131              0.536
 Vibration    17          0.940              1.068              0.480

 Normal termination of Gaussian 09 at Fri Aug 20 15:40:56 2021.
