 Gaussian 09, Revision E.01,
 Gaussian 09:  ES64L-G09RevE.01 30-Nov-2015

 -------------------------
 #P OPT Freq B3LYP/6-31G**
 -------------------------

 ------
 KOVHIM
 ------
 Symbolic Z-matrix:
 Charge =  0 Multiplicity = 1

 SCF Done:  E(RB3LYP) =  -754.147014542     A.U. after   16 cycles
 SCF Done:  E(RB3LYP) =  -754.274917856     A.U. after   14 cycles
 SCF Done:  E(RB3LYP) =  -754.343301027     A.U. after   15 cycles
 SCF Done:  E(RB3LYP) =  -754.347119895     A.U. after   15 cycles
 SCF Done:  E(RB3LYP) =  -754.347367930     A.U. after   15 cycles
 SCF Done:  E(RB3LYP) =  -754.349187699     A.U. after   14 cycles
 SCF Done:  E(RB3LYP) =  -754.352004980     A.U. after   14 cycles
 SCF Done:  E(RB3LYP) =  -754.356306626     A.U. after   17 cycles
 SCF Done:  E(RB3LYP) =  -754.358274145     A.U. after   16 cycles
 SCF Done:  E(RB3LYP) =  -754.355967639     A.U. after   15 cycles
 SCF Done:  E(RB3LYP) =  -754.370254287     A.U. after   15 cycles
 SCF Done:  E(RB3LYP) =  -754.370475819     A.U. after   14 cycles
 SCF Done:  E(RB3LYP) =  -754.370493545     A.U. after   11 cycles
 SCF Done:  E(RB3LYP) =  -754.370501847     A.U. after   11 cycles
 SCF Done:  E(RB3LYP) =  -754.370506360     A.U. after   10 cycles
 SCF Done:  E(RB3LYP) =  -754.370508132     A.U. after   10 cycles
 SCF Done:  E(RB3LYP) =  -754.370508577     A.U. after    9 cycles
 SCF Done:  E(RB3LYP) =  -754.370508764     A.U. after    9 cycles
 SCF Done:  E(RB3LYP) =  -754.370508846     A.U. after    8 cycles
 Optimization completed.
    -- Stationary point found.
 Normal termination of Gaussian 09 at Fri Aug 20 15:52:13 2021.

 ----------------------------------------------------------------------
 #P Geom=AllCheck Guess=TCheck SCRF=Check GenChk RB3LYP/6-31G(d,p) Freq
 ----------------------------------------------------------------------

 Structure from the checkpoint file:  "/public/home/users/caep010/.cache/gau_scr/Gau-112260.chk"
 ------
 KOVHIM
 ------
 Charge =  0 Multiplicity = 1

                         Standard orientation:
 ---------------------------------------------------------------------
 Center     Atomic      Atomic             Coordinates (Angstroms)
 Number     Number       Type             X           Y           Z
 ---------------------------------------------------------------------
      1          6           0       -1.175314   -0.013989    0.032829
      2          7           0       -1.930745    1.190749   -0.109424
      3          8           0       -1.438579    2.259766    0.339882
      4          8           0       -3.007859    1.168345   -0.691971
      5          7           0       -1.925795   -1.229760    0.008518
      6          8           0       -3.109681   -1.219963    0.323017
      7          8           0       -1.327752   -2.293959   -0.301398
      8          6           0        0.258359   -0.004367    0.190459
      9          7           0        0.888746    1.142711    0.500275
     10          6           0        2.296317    1.510045    0.260502
     11          6           0        3.006140    0.674858   -0.809056
     12          6           0        3.388137   -0.738264   -0.332771
     13          6           0        2.304963   -1.338022    0.570982
     14          1           0        2.358132   -0.895546    1.572921
     15          1           0        2.359353    0.614038   -1.690593
     16          1           0        4.328838   -0.713482    0.230119
     17          1           0        3.555149   -1.383163   -1.201895
     18          1           0        2.450650   -2.414103    0.692652
     19          7           0        0.956282   -1.143765    0.043112
     20          1           0        0.370057   -1.939998   -0.211932
     21          1           0        0.223648    1.904831    0.650010
     22          1           0        2.274392    2.557347   -0.055558
     23          1           0        2.854197    1.480218    1.205556
     24          1           0        3.905532    1.215218   -1.122568
 ---------------------------------------------------------------------

 SCF Done:  E(RB3LYP) =  -754.370508846     A.U. after    1 cycles

 The electronic state is 1-A.
 Alpha  occ. eigenvalues --  -19.17234 -19.17224 -19.17154 -19.17147 -14.57147
 Alpha  occ. eigenvalues --  -14.57113 -14.38937 -14.38792 -10.33014 -10.27709
 Alpha  occ. eigenvalues --  -10.26057 -10.25714 -10.22108 -10.21837  -1.22395
 Alpha  occ. eigenvalues --   -1.20762  -1.04539  -1.03524  -1.01684  -0.93626
 Alpha  occ. eigenvalues --   -0.86969  -0.83010  -0.75810  -0.72885  -0.72174
 Alpha  occ. eigenvalues --   -0.63564  -0.62580  -0.61805  -0.55989  -0.55904
 Alpha  occ. eigenvalues --   -0.53534  -0.52330  -0.52121  -0.50947  -0.50513
 Alpha  occ. eigenvalues --   -0.49954  -0.49059  -0.48556  -0.46736  -0.44298
 Alpha  occ. eigenvalues --   -0.42229  -0.40251  -0.38596  -0.37332  -0.36435
 Alpha  occ. eigenvalues --   -0.32359  -0.30723  -0.30519  -0.29633  -0.29239
 Alpha  occ. eigenvalues --   -0.27479  -0.27445  -0.24535
 Alpha virt. eigenvalues --   -0.07805  -0.05611   0.03333   0.05237   0.08564
 Alpha virt. eigenvalues --    0.09520   0.10387   0.11024   0.11724   0.13999
 Alpha virt. eigenvalues --    0.14333   0.14972   0.16035   0.16262   0.16936

 Mulliken charges:
               1
     1  C    0.344120
     2  N    0.356753
     3  O   -0.461722
     4  O   -0.368939
     5  N    0.360176
     6  O   -0.370332
     7  O   -0.463412
     8  C    0.621695
     9  N   -0.581303
    10  C   -0.054147
    11  C   -0.206221
    12  C   -0.173903
    13  C   -0.076614
    14  H    0.131135
    15  H    0.129032
    16  H    0.109254
    17  H    0.117110
    18  H    0.130358
    19  N   -0.560720
    20  H    0.320687
    21  H    0.321686
    22  H    0.132400
    23  H    0.124845
    24  H    0.118062
 Sum of Mulliken charges =  -0.00000

 Dipole moment (field-independent basis, Debye):
    X=              9.3436    Y=              0.1755    Z=              0.6421  Tot=              9.3673
 Quadrupole moment (field-independent basis, Debye-Ang):
   XX=            -86.9464   YY=            -85.3038   ZZ=            -79.2150
   XY=              0.2493   XZ=             -0.5189   YZ=             -0.6350

  Exact polarizability: 150.593  -0.215 116.840   5.249   3.481  66.273
 Approx polarizability: 233.295  -1.121 201.135  14.813  18.730 109.232

                      1                      2                      3
                      A                      A                      A
 Frequencies --     51.2859                61.1038                89.6805
 Red. masses --      8.1552                 4.2983                 6.2523
 Frc consts  --      0.0126                 0.0095                 0.0296
 IR Inten    --      0.3601                 0.2142                 1.9429

                      4                      5                      6
                      A                      A                      A
 Frequencies --    107.8721               136.2265               198.4308
 Red. masses --      8.4409                 3.2957                 5.2710
 Frc consts  --      0.0579                 0.0360                 0.1223
 IR Inten    --      0.1436                 2.2124                 1.6258

                      7                      8                      9
                      A                      A                      A
 Frequencies --    222.3074               265.3409               288.1842
 Red. masses --      7.5369                 1.9905                 6.5638
 Frc consts  --      0.2195                 0.0826                 0.3212
 IR Inten    --      3.3020                 1.8736                10.7269

                     10                     11                     12
                      A                      A                      A
 Frequencies --    295.2466               339.8809               365.3558
 Red. masses --      2.5804                 7.2317                 6.4135
 Frc consts  --      0.1325                 0.4922                 0.5044
 IR Inten    --      3.3179                 4.0417                 3.7859

                     13                     14                     15
                      A                      A                      A
 Frequencies --    404.3862               460.6169               470.7231
 Red. masses --      4.2447                11.7117                13.5963
 Frc consts  --      0.4090                 1.4640                 1.7750
 IR Inten    --      0.3081                 2.7028                 0.1434

                     16                     17                     18
                      A                      A                      A
 Frequencies --    492.4847               581.4324               682.6857
 Red. masses --      3.5763                 2.1836                 2.2600
 Frc consts  --      0.5111                 0.4349                 0.6206
 IR Inten    --     10.8542                 1.7737                19.9264

                     19                     20                     21
                      A                      A                      A
 Frequencies --    695.8874               719.6579               748.9778
 Red. masses --      2.0690                 3.1261                 3.1656
 Frc consts  --      0.5903                 0.9539                 1.0463
 IR Inten    --     10.4837                 9.7462                 6.6874

                     22                     23                     24
                      A                      A                      A
 Frequencies --    752.3026               770.1056               797.5221
 Red. masses --      6.2529                 1.8117                 2.7890
 Frc consts  --      2.0850                 0.6331                 1.0452
 IR Inten    --     44.1909                98.3882                30.2531

                     25                     26                     27
                      A                      A                      A
 Frequencies --    808.6110               841.6681               907.5095
 Red. masses --      2.1352                 4.9616                 2.4373
 Frc consts  --      0.8226                 2.0709                 1.1827
 IR Inten    --     21.1810                24.8977                 8.5235

                     28                     29                     30
                      A                      A                      A
 Frequencies --    909.3004               955.2127               984.3571
 Red. masses --      2.5433                 2.6737                 2.7806
 Frc consts  --      1.2390                 1.4373                 1.5874
 IR Inten    --      2.1907                 2.7207                 6.8436

                     31                     32                     33
                      A                      A                      A
 Frequencies --   1022.2186              1077.7501              1093.2352
 Red. masses --      1.9176                 3.2138                 1.9048
 Frc consts  --      1.1806                 2.1994                 1.3413
 IR Inten    --      1.9253                 8.4706                 0.9506

                     34                     35                     36
                      A                      A                      A
 Frequencies --   1133.4921              1168.4406              1203.0650
 Red. masses --      2.2496                 5.3999                 2.4018
 Frc consts  --      1.7029                 4.3436                 2.0481
 IR Inten    --     11.3251                 5.3853                79.5788

                     37                     38                     39
                      A                      A                      A
 Frequencies --   1227.4739              1265.7301              1279.4492
 Red. masses --      1.3548                 1.6527                 6.8917
 Frc consts  --      1.2026                 1.5600                 6.6470
 IR Inten    --     22.0369                23.4870               534.8638

                     40                     41                     42
                      A                      A                      A
 Frequencies --   1304.4175              1310.5102              1322.9321
 Red. masses --      1.2591                 1.5481                 1.7674
 Frc consts  --      1.2622                 1.5665                 1.8225
 IR Inten    --     16.0185                15.8816                20.0142

                     43                     44                     45
                      A                      A                      A
 Frequencies --   1366.2091              1394.0345              1399.6627
 Red. masses --      1.3708                 1.3971                 1.9490
 Frc consts  --      1.5075                 1.5997                 2.2496
 IR Inten    --     45.3414                19.1241                68.9856

                     46                     47                     48
                      A                      A                      A
 Frequencies --   1410.1796              1419.8858              1474.1146
 Red. masses --      1.9150                 1.5888                 1.8644
 Frc consts  --      2.2438                 1.8872                 2.3870
 IR Inten    --     30.9144                20.2889                51.1543

                     49                     50                     51
                      A                      A                      A
 Frequencies --   1493.1540              1502.9584              1509.4419
 Red. masses --      1.0809                 1.1433                 1.1036
 Frc consts  --      1.4198                 1.5216                 1.4815
 IR Inten    --      2.9476                18.6240                 8.5083

                     52                     53                     54
                      A                      A                      A
 Frequencies --   1529.3562              1582.6496              1625.2113
 Red. masses --      1.0915                 3.0508                10.5024
 Frc consts  --      1.5042                 4.5023                16.3440
 IR Inten    --     11.1246                51.2454               818.2589

                     55                     56                     57
                      A                      A                      A
 Frequencies --   1629.7553              1684.0958              3032.3164
 Red. masses --      6.1563                 2.0161                 1.0689
 Frc consts  --      9.6342                 3.3690                 5.7909
 IR Inten    --    274.2732               288.4799                29.1627

                     58                     59                     60
                      A                      A                      A
 Frequencies --   3048.9001              3052.5265              3063.1522
 Red. masses --      1.0650                 1.0645                 1.0635
 Frc consts  --      5.8329                 5.8439                 5.8791
 IR Inten    --     14.9003                49.5583                12.6145

                     61                     62                     63
                      A                      A                      A
 Frequencies --   3091.8777              3093.4297              3109.0343
 Red. masses --      1.1009                 1.0969                 1.1035
 Frc consts  --      6.2007                 6.1844                 6.2848
 IR Inten    --      9.1844                28.6082                37.7388

                     64                     65                     66
                      A                      A                      A
 Frequencies --   3120.8230              3384.9375              3416.3336
 Red. masses --      1.1012                 1.0781                 1.0815
 Frc consts  --      6.3191                 7.2781                 7.4372
 IR Inten    --     20.0847               229.2755               300.9926

 - Thermochemistry -
 -------------------
 Temperature   298.150 Kelvin.  Pressure   1.00000 Atm.
 Atom     1 has atomic number  6 and mass  12.00000

 Molecular mass:   202.07020 amu.
 Principal axes and moments of inertia in atomic units:
                           1         2         3
     Eigenvalues --  1494.381973554.863844754.62134
           X            1.00000  -0.00008  -0.00310
           Y            0.00007   1.00000  -0.00205
           Z            0.00310   0.00205   0.99999
 This molecule is an asymmetric top.
 Rotational symmetry number  1.
 Warning -- assumption of classical behavior for rotation
           may cause significant error
 Rotational temperatures (Kelvin)      0.05796     0.02436     0.01822
 Rotational constants (GHZ):           1.20768     0.50768     0.37958
 Zero-point vibrational energy     491947.0 (Joules/Mol)
                                  117.57815 (Kcal/Mol)
 Warning -- explicit consideration of  17 degrees of freedom as
           vibrations may cause significant error
 Vibrational temperatures:     73.79    87.91   129.03   155.20   196.00
          (Kelvin)            285.50   319.85   381.77   414.63   424.79
                              489.01   525.66   581.82   662.72   677.26
                              708.57   836.55   982.23  1001.23  1035.43
                             1077.61  1082.39  1108.01  1147.45  1163.41
                             1210.97  1305.70  1308.28  1374.34  1416.27
                             1470.74  1550.64  1572.92  1630.84  1681.12
                             1730.94  1766.06  1821.10  1840.84  1876.76
                             1885.53  1903.40  1965.67  2005.70  2013.80
                             2028.93  2042.90  2120.92  2148.31  2162.42
                             2171.75  2200.40  2277.08  2338.31  2344.85
                             2423.04  4362.82  4386.68  4391.90  4407.19
                             4448.52  4450.75  4473.20  4490.16  4870.16
                             4915.34

 Zero-point correction=                           0.187373 (Hartree/Particle)
 Thermal correction to Energy=                    0.199645
 Thermal correction to Enthalpy=                  0.200590
 Thermal correction to Gibbs Free Energy=         0.148119
 Sum of electronic and zero-point Energies=           -754.183136
 Sum of electronic and thermal Energies=              -754.170864
 Sum of electronic and thermal Enthalpies=            -754.169919
 Sum of electronic and thermal Free Energies=         -754.222390

                     E (Thermal)             CV                S
                      KCal/Mol        Cal/Mol-Kelvin    Cal/Mol-Kelvin
 Total                  125.279             46.080            110.434
 Electronic               0.000              0.000              0.000
 Translational            0.889              2.981             41.815
 Rotational               0.889              2.981             31.602
 Vibrational            123.502             40.119             37.017
 Vibration     1          0.596              1.977              4.767
 Vibration     2          0.597              1.973              4.421
 Vibration     3          0.602              1.956              3.667
 Vibration     4          0.606              1.943              3.307
 Vibration     5          0.614              1.917              2.856
 Vibration     6          0.637              1.842              2.148
 Vibration     7          0.648              1.807              1.940
 Vibration     8          0.671              1.737              1.626
 Vibration     9          0.685              1.696              1.485
 Vibration    10          0.689              1.683              1.444
 Vibration    11          0.720              1.596              1.213
 Vibration    12          0.739              1.544              1.099
 Vibration    13          0.770              1.461              0.947
 Vibration    14          0.818              1.337              0.764
 Vibration    15          0.828              1.315              0.736
 Vibration    16          0.848              1.267              0.677
 Vibration    17          0.938              1.071              0.483

 Normal termination of Gaussian 09 at Fri Aug 20 15:53:01 2021.
