 Gaussian 09, Revision E.01,
 Gaussian 09:  ES64L-G09RevE.01 30-Nov-2015

 --------------------------------
 #P OPT=calcfc Freq B3LYP/6-31G**
 --------------------------------

 ------
 QIKDAP
 ------
 Symbolic Z-matrix:
 Charge =  0 Multiplicity = 1

 SCF Done:  E(RB3LYP) =  -547.294523724     A.U. after   15 cycles
 SCF Done:  E(RB3LYP) =  -547.418022316     A.U. after   13 cycles
 SCF Done:  E(RB3LYP) =  -547.484592881     A.U. after   14 cycles
 SCF Done:  E(RB3LYP) =  -547.485862326     A.U. after   13 cycles
 SCF Done:  E(RB3LYP) =  -547.485943475     A.U. after   13 cycles
 SCF Done:  E(RB3LYP) =  -547.485982084     A.U. after   13 cycles
 SCF Done:  E(RB3LYP) =  -547.485991012     A.U. after   11 cycles
 SCF Done:  E(RB3LYP) =  -547.485992953     A.U. after    9 cycles
 SCF Done:  E(RB3LYP) =  -547.485993321     A.U. after   10 cycles
 SCF Done:  E(RB3LYP) =  -547.486003276     A.U. after   10 cycles
 SCF Done:  E(RB3LYP) =  -547.486502663     A.U. after   11 cycles
 SCF Done:  E(RB3LYP) =  -547.486518554     A.U. after   10 cycles
 SCF Done:  E(RB3LYP) =  -547.486525160     A.U. after   10 cycles
 SCF Done:  E(RB3LYP) =  -547.486509558     A.U. after   12 cycles
 SCF Done:  E(RB3LYP) =  -547.486527785     A.U. after   12 cycles
 SCF Done:  E(RB3LYP) =  -547.486529514     A.U. after    9 cycles
 SCF Done:  E(RB3LYP) =  -547.486530976     A.U. after    9 cycles
 SCF Done:  E(RB3LYP) =  -547.486531071     A.U. after    8 cycles
 SCF Done:  E(RB3LYP) =  -547.486531080     A.U. after    8 cycles
 Optimization completed.
    -- Stationary point found.
 Normal termination of Gaussian 09 at Sat Aug 21 02:27:27 2021.

 ----------------------------------------------------------------------
 #P Geom=AllCheck Guess=TCheck SCRF=Check GenChk RB3LYP/6-31G(d,p) Freq
 ----------------------------------------------------------------------

 Structure from the checkpoint file:  "/public/home/users/caep010/.cache/gau_scr/Gau-80644.chk"
 ------
 QIKDAP
 ------
 Charge =  0 Multiplicity = 1

                         Standard orientation:
 ---------------------------------------------------------------------
 Center     Atomic      Atomic             Coordinates (Angstroms)
 Number     Number       Type             X           Y           Z
 ---------------------------------------------------------------------
      1          6           0       -2.165761   -0.136973   -0.008701
      2          6           0       -1.410268    1.035179   -0.002319
      3          6           0       -0.000728    1.021870    0.005513
      4          6           0        0.640979   -0.254750    0.007238
      5          6           0       -0.130409   -1.431513    0.003233
      6          1           0        0.401701   -2.374106    0.005265
      7          6           0       -1.503564   -1.392524   -0.004458
      8          7           0       -3.543288   -0.090619   -0.064804
      9          7           0        0.683792    2.193626    0.035897
     10          7           0        2.068689   -0.401251   -0.000122
     11          8           0        2.787718    0.622163   -0.017813
     12          8           0        2.550464   -1.538913    0.008926
     13          1           0       -1.915568    1.997902   -0.002983
     14          1           0       -2.081716   -2.311006   -0.014946
     15          1           0       -4.042510   -0.919027    0.221868
     16          1           0       -3.991877    0.772688    0.202314
     17          1           0        0.188352    3.059313   -0.094688
     18          1           0        1.690318    2.148213   -0.045573
 ---------------------------------------------------------------------

 SCF Done:  E(RB3LYP) =  -547.486531080     A.U. after    1 cycles

 The electronic state is 1-A.
 Alpha  occ. eigenvalues --  -19.15691 -19.15425 -14.54967 -14.36486 -14.35269
 Alpha  occ. eigenvalues --  -10.25933 -10.25269 -10.22833 -10.20469 -10.19208
 Alpha  occ. eigenvalues --  -10.19186  -1.19607  -1.02087  -0.94533  -0.93256
 Alpha  occ. eigenvalues --   -0.84907  -0.78407  -0.74710  -0.67819  -0.63204
 Alpha  occ. eigenvalues --   -0.60267  -0.55156  -0.54472  -0.53523  -0.50835
 Alpha  occ. eigenvalues --   -0.50525  -0.48952  -0.47704  -0.44036  -0.42766
 Alpha  occ. eigenvalues --   -0.41663  -0.40413  -0.36721  -0.35745  -0.30580
 Alpha  occ. eigenvalues --   -0.28943  -0.28532  -0.26851  -0.22782  -0.21444
 Alpha virt. eigenvalues --   -0.06414   0.00276   0.02952   0.06437   0.08360
 Alpha virt. eigenvalues --    0.10493   0.10734   0.15579   0.16640   0.17107
 Alpha virt. eigenvalues --    0.18806   0.21317   0.24852   0.25990   0.29528

 Mulliken charges:
               1
     1  C    0.317167
     2  C   -0.174065
     3  C    0.329279
     4  C    0.237817
     5  C   -0.104122
     6  H    0.134699
     7  C   -0.134918
     8  N   -0.660489
     9  N   -0.673527
    10  N    0.355956
    11  O   -0.461866
    12  O   -0.421804
    13  H    0.067821
    14  H    0.082088
    15  H    0.269156
    16  H    0.266357
    17  H    0.263798
    18  H    0.306654
 Sum of Mulliken charges =  -0.00000

 Dipole moment (field-independent basis, Debye):
    X=             -6.4513    Y=              2.2647    Z=              0.5490  Tot=              6.8593
 Quadrupole moment (field-independent basis, Debye-Ang):
   XX=            -61.0686   YY=            -52.9960   ZZ=            -65.3891
   XY=              3.7508   XZ=             -3.8859   YZ=             -0.9933

  Exact polarizability: 148.881   2.156 108.566  -0.080  -0.117  32.588
 Approx polarizability: 257.608   7.137 202.898   2.001   0.273  50.472

                      1                      2                      3
                      A                      A                      A
 Frequencies --     78.3920                95.9799               197.1680
 Red. masses --     12.2502                 5.5974                 3.2001
 Frc consts  --      0.0444                 0.0304                 0.0733
 IR Inten    --      2.6655                 5.3268                50.2095

                      4                      5                      6
                      A                      A                      A
 Frequencies --    225.7126               263.7024               300.4983
 Red. masses --      1.4185                 5.5696                 4.0295
 Frc consts  --      0.0426                 0.2282                 0.2144
 IR Inten    --    116.6504                 1.9158                55.9937

                      7                      8                      9
                      A                      A                      A
 Frequencies --    357.3246               371.4370               375.2833
 Red. masses --      2.8539                 6.4233                 1.1539
 Frc consts  --      0.2147                 0.5221                 0.0957
 IR Inten    --     19.8865                 1.7378                15.3888

                     10                     11                     12
                      A                      A                      A
 Frequencies --    428.8820               439.3057               460.5629
 Red. masses --      4.4069                 1.6871                 1.9625
 Frc consts  --      0.4776                 0.1918                 0.2453
 IR Inten    --      3.4950               229.8430               193.3055

                     13                     14                     15
                      A                      A                      A
 Frequencies --    542.2880               591.7629               608.9673
 Red. masses --      5.1938                 2.6103                 1.3642
 Frc consts  --      0.8999                 0.5386                 0.2981
 IR Inten    --      1.0783                 7.7841                17.1795

                     16                     17                     18
                      A                      A                      A
 Frequencies --    639.1672               650.5176               692.0807
 Red. masses --      5.3175                 4.3629                 2.8914
 Frc consts  --      1.2799                 1.0878                 0.8160
 IR Inten    --      6.1748                 2.1305                 0.7628

                     19                     20                     21
                      A                      A                      A
 Frequencies --    749.0920               765.4183               796.9909
 Red. masses --      4.9816                 5.9639                 1.7134
 Frc consts  --      1.6470                 2.0586                 0.6412
 IR Inten    --     25.5049                 1.4536                 2.0143

                     22                     23                     24
                      A                      A                      A
 Frequencies --    812.9170               848.6596               969.9393
 Red. masses --      1.7475                 8.7465                 1.2695
 Frc consts  --      0.6804                 3.7115                 0.7037
 IR Inten    --     46.9694                10.4845                 1.1780

                     25                     26                     27
                      A                      A                      A
 Frequencies --    983.7545              1062.0626              1126.5972
 Red. masses --      2.6858                 1.5320                 1.7012
 Frc consts  --      1.5315                 1.0181                 1.2722
 IR Inten    --     10.4599                 1.5091                36.9462

                     28                     29                     30
                      A                      A                      A
 Frequencies --   1128.9958              1195.3294              1268.7323
 Red. masses --      1.8542                 1.5547                 2.0989
 Frc consts  --      1.3925                 1.3088                 1.9906
 IR Inten    --     38.9311                20.5511                 9.2024

                     31                     32                     33
                      A                      A                      A
 Frequencies --   1308.8172              1329.9983              1397.1261
 Red. masses --      1.6243                 6.4727                 3.4993
 Frc consts  --      1.6393                 6.7458                 4.0244
 IR Inten    --      1.6234               662.7816                99.7165

                     34                     35                     36
                      A                      A                      A
 Frequencies --   1425.8918              1498.5008              1541.3510
 Red. masses --      4.6141                 3.2880                 2.8372
 Frc consts  --      5.5272                 4.3501                 3.9714
 IR Inten    --     16.6432               107.3402                39.9007

                     37                     38                     39
                      A                      A                      A
 Frequencies --   1569.2533              1620.7774              1630.0544
 Red. masses --      5.2390                 3.6014                 2.0369
 Frc consts  --      7.6012                 5.5739                 3.1888
 IR Inten    --    122.9054               109.3604               165.3130

                     40                     41                     42
                      A                      A                      A
 Frequencies --   1667.8670              1687.8681              3170.3763
 Red. masses --      1.3623                 4.3062                 1.0899
 Frc consts  --      2.2329                 7.2280                 6.4543
 IR Inten    --     76.2278               509.3749                16.2005

                     43                     44                     45
                      A                      A                      A
 Frequencies --   3196.6012              3245.9185              3559.9952
 Red. masses --      1.0903                 1.0924                 1.0484
 Frc consts  --      6.5642                 6.7810                 7.8284
 IR Inten    --      8.9565                 2.3911                88.2997

                     46                     47                     48
                      A                      A                      A
 Frequencies --   3596.1215              3710.1742              3729.9911
 Red. masses --      1.0469                 1.1010                 1.1016
 Frc consts  --      7.9765                 8.9291                 9.0297
 IR Inten    --     51.8188                20.0860                65.3119

 - Thermochemistry -
 -------------------
 Temperature   298.150 Kelvin.  Pressure   1.00000 Atm.
 Atom     1 has atomic number  6 and mass  12.00000

 Molecular mass:   153.05383 amu.
 Principal axes and moments of inertia in atomic units:
                           1         2         3
     Eigenvalues --   781.323712236.728913016.75626
           X            0.99993   0.01145  -0.00283
           Y           -0.01145   0.99993  -0.00195
           Z            0.00281   0.00198   0.99999
 This molecule is an asymmetric top.
 Rotational symmetry number  1.
 Warning -- assumption of classical behavior for rotation
           may cause significant error
 Rotational temperatures (Kelvin)      0.11086     0.03872     0.02871
 Rotational constants (GHZ):           2.30985     0.80687     0.59824
 Zero-point vibrational energy     358366.5 (Joules/Mol)
                                   85.65165 (Kcal/Mol)
 Warning -- explicit consideration of  15 degrees of freedom as
           vibrations may cause significant error
 Vibrational temperatures:    112.79   138.09   283.68   324.75   379.41
          (Kelvin)            432.35   514.11   534.41   539.95   617.06
                              632.06   662.65   780.23   851.41   876.17
                              919.62   935.95   995.75  1077.78  1101.26
                             1146.69  1169.60  1221.03  1395.52  1415.40
                             1528.07  1620.92  1624.37  1719.81  1825.42
                             1883.09  1913.57  2010.15  2051.54  2156.01
                             2217.66  2257.80  2331.93  2345.28  2399.69
                             2428.46  4561.46  4599.19  4670.15  5122.03
                             5174.01  5338.11  5366.62

 Zero-point correction=                           0.136495 (Hartree/Particle)
 Thermal correction to Energy=                    0.146205
 Thermal correction to Enthalpy=                  0.147149
 Thermal correction to Gibbs Free Energy=         0.101753
 Sum of electronic and zero-point Energies=           -547.350036
 Sum of electronic and thermal Energies=              -547.340326
 Sum of electronic and thermal Enthalpies=            -547.339382
 Sum of electronic and thermal Free Energies=         -547.384778

                     E (Thermal)             CV                S
                      KCal/Mol        Cal/Mol-Kelvin    Cal/Mol-Kelvin
 Total                   91.745             37.788             95.545
 Electronic               0.000              0.000              0.000
 Translational            0.889              2.981             40.987
 Rotational               0.889              2.981             30.045
 Vibrational             89.968             31.827             24.513
 Vibration     1          0.600              1.964              3.931
 Vibration     2          0.603              1.952              3.534
 Vibration     3          0.637              1.844              2.159
 Vibration     4          0.650              1.802              1.913
 Vibration     5          0.670              1.739              1.637
 Vibration     6          0.693              1.673              1.414
 Vibration     7          0.732              1.560              1.134
 Vibration     8          0.743              1.531              1.074
 Vibration     9          0.746              1.523              1.058
 Vibration    10          0.790              1.407              0.862
 Vibration    11          0.799              1.384              0.829
 Vibration    12          0.818              1.338              0.764
 Vibration    13          0.897              1.157              0.560
 Vibration    14          0.949              1.049              0.464
 Vibration    15          0.968              1.013              0.434

 Optimization completed.
    -- Stationary point found.
 Normal termination of Gaussian 09 at Sat Aug 21 02:27:51 2021.
