 Gaussian 09, Revision E.01,
 Gaussian 09:  ES64L-G09RevE.01 30-Nov-2015

 -------------------------
 #P OPT Freq B3LYP/6-31G**
 -------------------------

 ------
 BUXJAH
 ------
 Symbolic Z-matrix:
 Charge =  0 Multiplicity = 1

 SCF Done:  E(RB3LYP) =  -621.133945208     A.U. after   16 cycles
 SCF Done:  E(RB3LYP) =  -621.202115037     A.U. after   15 cycles
 SCF Done:  E(RB3LYP) =  -621.212967088     A.U. after   17 cycles
 SCF Done:  E(RB3LYP) =  -621.202971450     A.U. after   18 cycles
 SCF Done:  E(RB3LYP) =  -621.216471301     A.U. after   13 cycles
 SCF Done:  E(RB3LYP) =  -621.217144873     A.U. after   15 cycles
 SCF Done:  E(RB3LYP) =  -621.217230506     A.U. after   13 cycles
 SCF Done:  E(RB3LYP) =  -621.217247382     A.U. after   12 cycles
 SCF Done:  E(RB3LYP) =  -621.217250021     A.U. after   10 cycles
 SCF Done:  E(RB3LYP) =  -621.217250346     A.U. after    9 cycles
 SCF Done:  E(RB3LYP) =  -621.217250963     A.U. after   10 cycles
 SCF Done:  E(RB3LYP) =  -621.217252130     A.U. after   12 cycles
 SCF Done:  E(RB3LYP) =  -621.217253034     A.U. after   12 cycles
 SCF Done:  E(RB3LYP) =  -621.217253220     A.U. after   11 cycles
 Optimization completed.
    -- Stationary point found.
 Normal termination of Gaussian 09 at Fri Aug 20 15:59:42 2021.

 ----------------------------------------------------------------------
 #P Geom=AllCheck Guess=TCheck SCRF=Check GenChk RB3LYP/6-31G(d,p) Freq
 ----------------------------------------------------------------------

 Structure from the checkpoint file:  "/public/home/users/caep010/.cache/gau_scr/Gau-48742.chk"
 ------
 BUXJAH
 ------
 Charge =  0 Multiplicity = 1

                         Standard orientation:
 ---------------------------------------------------------------------
 Center     Atomic      Atomic             Coordinates (Angstroms)
 Number     Number       Type             X           Y           Z
 ---------------------------------------------------------------------
      1          6           0       -1.460698    0.484839    0.000012
      2          6           0       -0.284234   -0.308353    0.000062
      3          6           0       -2.756292   -0.128892   -0.000029
      4          6           0       -0.436600   -1.732756    0.000109
      5          6           0       -1.379188    1.884564   -0.000016
      6          1           0       -2.296533    2.462373   -0.000066
      7          6           0       -0.139568    2.516056    0.000005
      8          6           0        1.027294    1.756806    0.000023
      9          1           0        2.007617    2.215341    0.000012
     10          1           0       -0.080315    3.598782   -0.000012
     11          7           0       -0.710510   -2.862701    0.000119
     12          6           0        0.948725    0.367622    0.000026
     13          7           0        2.226423   -0.380221   -0.000039
     14          8           0        2.169109   -1.604278   -0.000227
     15          8           0        3.260960    0.282772    0.000092
     16          7           0       -3.828478   -0.577615   -0.000081
 ---------------------------------------------------------------------

 SCF Done:  E(RB3LYP) =  -621.217253220     A.U. after    1 cycles

 The electronic state is 1-A.
 Alpha  occ. eigenvalues --  -19.21470 -19.21290 -14.60646 -14.36897 -14.36364
 Alpha  occ. eigenvalues --  -10.30584 -10.30321 -10.29544 -10.26894 -10.26502
 Alpha  occ. eigenvalues --  -10.26235 -10.25943 -10.25738  -1.25941  -1.08710
 Alpha  occ. eigenvalues --   -0.95680  -0.93002  -0.92217  -0.85759  -0.83945
 Alpha  occ. eigenvalues --   -0.75592  -0.71353  -0.67056  -0.61558  -0.58004
 Alpha  occ. eigenvalues --   -0.56595  -0.55957  -0.54670  -0.52576  -0.52054
 Alpha  occ. eigenvalues --   -0.45975  -0.44523  -0.44080  -0.38775  -0.38625
 Alpha  occ. eigenvalues --   -0.38357  -0.38255  -0.37007  -0.35880  -0.33937
 Alpha  occ. eigenvalues --   -0.33524  -0.32062  -0.31631  -0.30541
 Alpha virt. eigenvalues --   -0.12919  -0.10597  -0.04981  -0.00146   0.01501
 Alpha virt. eigenvalues --    0.03644   0.04473   0.05667   0.10099   0.11414
 Alpha virt. eigenvalues --    0.14530   0.15755   0.17027   0.18925   0.22453

 Mulliken charges:
               1
     1  C    0.119352
     2  C    0.161130
     3  C    0.246721
     4  C    0.293545
     5  C   -0.059300
     6  H    0.144733
     7  C   -0.091708
     8  C   -0.077160
     9  H    0.163543
    10  H    0.133348
    11  N   -0.454834
    12  C    0.241280
    13  N    0.381816
    14  O   -0.369871
    15  O   -0.381894
    16  N   -0.450701
 Sum of Mulliken charges =  -0.00000

 Dipole moment (field-independent basis, Debye):
    X=              0.6959    Y=              7.2502    Z=              0.0001  Tot=              7.2835
 Quadrupole moment (field-independent basis, Debye-Ang):
   XX=            -91.2650   YY=            -72.7217   ZZ=            -70.0261
   XY=             -4.8842   XZ=             -0.0002   YZ=             -0.0005

  Exact polarizability: 138.670  11.482 133.822   0.001   0.001  37.320
 Approx polarizability: 240.442  41.381 263.222   0.005   0.004  58.215

                      1                      2                      3
                      A                      A                      A
 Frequencies --     15.5044                67.6878               128.2596
 Red. masses --     15.0906                11.8043                13.0937
 Frc consts  --      0.0021                 0.0319                 0.1269
 IR Inten    --      0.7262                 1.6722                 2.8140

                      4                      5                      6
                      A                      A                      A
 Frequencies --    169.6624               175.5388               190.8762
 Red. masses --      5.8600                13.3266                 6.3891
 Frc consts  --      0.0994                 0.2419                 0.1371
 IR Inten    --      1.9473                 3.5067                 3.9752

                      7                      8                      9
                      A                      A                      A
 Frequencies --    260.3756               356.9105               376.0569
 Red. masses --      8.9778                12.2276                 7.0679
 Frc consts  --      0.3586                 0.9177                 0.5889
 IR Inten    --      2.9398                 1.1753                 0.0005

                     10                     11                     12
                      A                      A                      A
 Frequencies --    425.8352               434.3071               450.9406
 Red. masses --      5.8962                10.1718                11.7094
 Frc consts  --      0.6300                 1.1304                 1.4029
 IR Inten    --      1.2760                 2.7643                 0.2871

                     13                     14                     15
                      A                      A                      A
 Frequencies --    510.2453               570.0769               578.8449
 Red. masses --     11.0853                 5.5543                 5.1898
 Frc consts  --      1.7004                 1.0635                 1.0245
 IR Inten    --      2.1668                10.6130                 1.3577

                     16                     17                     18
                      A                      A                      A
 Frequencies --    604.8343               644.1668               734.5007
 Red. masses --      9.2969                 6.3458                 8.9920
 Frc consts  --      2.0038                 1.5514                 2.8582
 IR Inten    --      2.3493                 1.5285                 3.1001

                     19                     20                     21
                      A                      A                      A
 Frequencies --    757.8251               777.6008               815.7541
 Red. masses --      2.7655                 8.1527                 7.7498
 Frc consts  --      0.9358                 2.9045                 3.0385
 IR Inten    --     25.8717                22.1058                18.0083

                     22                     23                     24
                      A                      A                      A
 Frequencies --    836.9717               928.8228               965.1911
 Red. masses --      1.8046                 9.3836                 1.3720
 Frc consts  --      0.7448                 4.7696                 0.7531
 IR Inten    --     18.1078                22.2308                 0.0005

                     25                     26                     27
                      A                      A                      A
 Frequencies --   1013.4455              1100.5647              1184.1904
 Red. masses --      1.3286                 2.1260                 2.7832
 Frc consts  --      0.8040                 1.5172                 2.2995
 IR Inten    --      0.6825                 5.5085                 5.2805

                     28                     29                     30
                      A                      A                      A
 Frequencies --   1201.1970              1225.1958              1265.2213
 Red. masses --      1.4738                 2.8546                 2.2545
 Frc consts  --      1.2529                 2.5246                 2.1263
 IR Inten    --      5.4158                11.6075                 0.3444

                     31                     32                     33
                      A                      A                      A
 Frequencies --   1339.3825              1391.1991              1478.2125
 Red. masses --     10.1656                14.3446                 2.9527
 Frc consts  --     10.7447                16.3575                 3.8014
 IR Inten    --      5.2520               225.9692                 9.6982

                     34                     35                     36
                      A                      A                      A
 Frequencies --   1495.7656              1609.2444              1631.6759
 Red. masses --      2.9233                 6.2303                 7.8503
 Frc consts  --      3.8534                 9.5061                12.3142
 IR Inten    --      4.7729                 1.5892                85.7752

                     37                     38                     39
                      A                      A                      A
 Frequencies --   1676.6857              2350.6854              2358.8723
 Red. masses --     10.6193                12.6798                12.6794
 Frc consts  --     17.5893                41.2811                41.5678
 IR Inten    --    117.9519                 0.2212                 1.7185

                     40                     41                     42
                      A                      A                      A
 Frequencies --   3216.3977              3230.1151              3252.9415
 Red. masses --      1.0892                 1.0957                 1.0931
 Frc consts  --      6.6387                 6.7358                 6.8151
 IR Inten    --      1.2484                 0.8611                 8.1971

 - Thermochemistry -
 -------------------
 Temperature   298.150 Kelvin.  Pressure   1.00000 Atm.
 Atom     1 has atomic number  6 and mass  12.00000

 Molecular mass:   173.02253 amu.
 Principal axes and moments of inertia in atomic units:
                           1         2         3
     Eigenvalues --  1375.015412510.509083885.52448
           X            0.99999  -0.00479   0.00000
           Y            0.00479   0.99999  -0.00000
           Z           -0.00000   0.00000   1.00000
 This molecule is an asymmetric top.
 Rotational symmetry number  1.
 Warning -- assumption of classical behavior for rotation
           may cause significant error
 Rotational temperatures (Kelvin)      0.06299     0.03450     0.02229
 Rotational constants (GHZ):           1.31252     0.71887     0.46448
 Zero-point vibrational energy     261968.9 (Joules/Mol)
                                   62.61207 (Kcal/Mol)
 Warning -- explicit consideration of  16 degrees of freedom as
           vibrations may cause significant error
 Vibrational temperatures:     22.31    97.39   184.54   244.11   252.56
          (Kelvin)            274.63   374.62   513.51   541.06   612.68
                              624.87   648.80   734.13   820.21   832.83
                              870.22   926.81  1056.78  1090.34  1118.79
                             1173.69  1204.21  1336.37  1388.69  1458.12
                             1583.47  1703.78  1728.25  1762.78  1820.37
                             1927.07  2001.62  2126.82  2152.07  2315.34
                             2347.61  2412.37  3382.11  3393.89  4627.67
                             4647.41  4680.25

 Zero-point correction=                           0.099779 (Hartree/Particle)
 Thermal correction to Energy=                    0.110299
 Thermal correction to Enthalpy=                  0.111243
 Thermal correction to Gibbs Free Energy=         0.061718
 Sum of electronic and zero-point Energies=           -621.117475
 Sum of electronic and thermal Energies=              -621.106955
 Sum of electronic and thermal Enthalpies=            -621.106010
 Sum of electronic and thermal Free Energies=         -621.155535

                     E (Thermal)             CV                S
                      KCal/Mol        Cal/Mol-Kelvin    Cal/Mol-Kelvin
 Total                   69.213             38.032            104.233
 Electronic               0.000              0.000              0.000
 Translational            0.889              2.981             41.352
 Rotational               0.889              2.981             30.973
 Vibrational             67.436             32.071             31.907
 Vibration     1          0.593              1.986              7.140
 Vibration     2          0.598              1.970              4.220
 Vibration     3          0.611              1.925              2.972
 Vibration     4          0.625              1.880              2.439
 Vibration     5          0.627              1.873              2.375
 Vibration     6          0.634              1.852              2.219
 Vibration     7          0.668              1.745              1.659
 Vibration     8          0.732              1.561              1.136
 Vibration     9          0.747              1.521              1.055
 Vibration    10          0.788              1.414              0.872
 Vibration    11          0.795              1.395              0.845
 Vibration    12          0.810              1.359              0.793
 Vibration    13          0.865              1.227              0.633
 Vibration    14          0.926              1.096              0.504
 Vibration    15          0.935              1.077              0.488
 Vibration    16          0.963              1.022              0.441

 Optimization completed.
    -- Stationary point found.
 Normal termination of Gaussian 09 at Fri Aug 20 16:00:06 2021.
