 Gaussian 09, Revision E.01,
 Gaussian 09:  ES64L-G09RevE.01 30-Nov-2015

 -------------------------
 #P OPT Freq B3LYP/6-31G**
 -------------------------

 ------
 LOJBAN
 ------
 Symbolic Z-matrix:
 Charge =  0 Multiplicity = 1

 SCF Done:  E(RB3LYP) =  -609.855535406     A.U. after   16 cycles
 SCF Done:  E(RB3LYP) =  -609.978304536     A.U. after   13 cycles
 SCF Done:  E(RB3LYP) =  -610.065008053     A.U. after   14 cycles
 SCF Done:  E(RB3LYP) =  -610.066045155     A.U. after   14 cycles
 SCF Done:  E(RB3LYP) =  -610.060976008     A.U. after   15 cycles
 SCF Done:  E(RB3LYP) =  -610.066356408     A.U. after   11 cycles
 SCF Done:  E(RB3LYP) =  -610.066481738     A.U. after   12 cycles
 SCF Done:  E(RB3LYP) =  -610.066515149     A.U. after   12 cycles
 SCF Done:  E(RB3LYP) =  -610.066536868     A.U. after   11 cycles
 SCF Done:  E(RB3LYP) =  -610.066567202     A.U. after   11 cycles
 SCF Done:  E(RB3LYP) =  -610.066607067     A.U. after   11 cycles
 SCF Done:  E(RB3LYP) =  -610.066676652     A.U. after   12 cycles
 SCF Done:  E(RB3LYP) =  -610.066717914     A.U. after   12 cycles
 SCF Done:  E(RB3LYP) =  -610.066716920     A.U. after   11 cycles
 SCF Done:  E(RB3LYP) =  -610.066725047     A.U. after   10 cycles
 SCF Done:  E(RB3LYP) =  -610.066725356     A.U. after    9 cycles
 SCF Done:  E(RB3LYP) =  -610.066725390     A.U. after    8 cycles
 SCF Done:  E(RB3LYP) =  -610.066725383     A.U. after    7 cycles
 SCF Done:  E(RB3LYP) =  -610.066725373     A.U. after    7 cycles
 Optimization completed.
    -- Stationary point found.
 Normal termination of Gaussian 09 at Fri Aug 20 15:43:56 2021.

 ----------------------------------------------------------------------
 #P Geom=AllCheck Guess=TCheck SCRF=Check GenChk RB3LYP/6-31G(d,p) Freq
 ----------------------------------------------------------------------

 Structure from the checkpoint file:  "/public/home/users/caep010/.cache/gau_scr/Gau-41610.chk"
 ------
 LOJBAN
 ------
 Charge =  0 Multiplicity = 1

                         Standard orientation:
 ---------------------------------------------------------------------
 Center     Atomic      Atomic             Coordinates (Angstroms)
 Number     Number       Type             X           Y           Z
 ---------------------------------------------------------------------
      1          7           0        3.555230   -0.096196    0.117055
      2          8           0        4.043683   -1.225018    0.229783
      3          8           0        4.219080    0.944995    0.083547
      4          6           0        2.109237    0.014981    0.017936
      5          6           0        1.324938   -1.138426    0.048319
      6          6           0       -0.054666   -1.038033   -0.050407
      7          1           0       -0.653396   -1.940636   -0.034764
      8          6           0       -0.675181    0.226673   -0.174475
      9          7           0       -2.038496    0.366276   -0.242205
     10          1           0       -2.373662    1.272054   -0.537935
     11          6           0        0.146826    1.380153   -0.206689
     12          1           0        1.810283   -2.101799    0.143447
     13          1           0       -0.315852    2.358855   -0.303088
     14          6           0        1.521258    1.278025   -0.111792
     15          1           0        2.155151    2.155484   -0.135973
     16          6           0       -2.969176   -0.739772   -0.412331
     17          1           0       -2.817460   -1.458825    0.403051
     18          1           0       -2.774608   -1.277437   -1.354052
     19          6           0       -4.419464   -0.249046   -0.385768
     20          6           0       -4.854126    0.344034    0.958290
     21          1           0       -4.236985    1.201874    1.242268
     22          1           0       -5.895212    0.678139    0.919717
     23          1           0       -4.770409   -0.398704    1.758936
     24          1           0       -4.562382    0.487687   -1.188989
     25          1           0       -5.062576   -1.098604   -0.641710
 ---------------------------------------------------------------------

 SCF Done:  E(RB3LYP) =  -610.066725373     A.U. after    1 cycles

 The electronic state is 1-A.
 Alpha  occ. eigenvalues --  -19.15876 -19.15867 -14.55152 -14.37131 -10.25496
 Alpha  occ. eigenvalues --  -10.24039 -10.23084 -10.21030 -10.21014 -10.21005
 Alpha  occ. eigenvalues --  -10.20410 -10.20228 -10.19347  -1.20097  -1.02725
 Alpha  occ. eigenvalues --   -0.96066  -0.87219  -0.81038  -0.77551  -0.76571
 Alpha  occ. eigenvalues --   -0.71075  -0.67230  -0.63752  -0.60572  -0.58885
 Alpha  occ. eigenvalues --   -0.55367  -0.53004  -0.51097  -0.50797  -0.48532
 Alpha  occ. eigenvalues --   -0.48265  -0.46106  -0.45279  -0.44143  -0.43788
 Alpha  occ. eigenvalues --   -0.41984  -0.41052  -0.39618  -0.37042  -0.36340
 Alpha  occ. eigenvalues --   -0.36152  -0.35478  -0.31570  -0.28972  -0.28889
 Alpha  occ. eigenvalues --   -0.27013  -0.26890  -0.21863
 Alpha virt. eigenvalues --   -0.06779  -0.01599   0.02528   0.06242   0.08114
 Alpha virt. eigenvalues --    0.08877   0.12258   0.12595   0.13719   0.13982
 Alpha virt. eigenvalues --    0.14885   0.15802   0.16744   0.16864   0.17531

 Mulliken charges:
               1
     1  N    0.372698
     2  O   -0.416287
     3  O   -0.415736
     4  C    0.241321
     5  C   -0.102180
     6  C   -0.135234
     7  H    0.093503
     8  C    0.365137
     9  N   -0.602511
    10  H    0.256155
    11  C   -0.141875
    12  H    0.132765
    13  H    0.085679
    14  C   -0.093360
    15  H    0.132567
    16  C   -0.012489
    17  H    0.116733
    18  H    0.107193
    19  C   -0.219741
    20  C   -0.312824
    21  H    0.111318
    22  H    0.111316
    23  H    0.112649
    24  H    0.100788
    25  H    0.112413
 Sum of Mulliken charges =   0.00000

 Dipole moment (field-independent basis, Debye):
    X=             -7.9648    Y=              0.5206    Z=             -0.8871  Tot=              8.0310
 Quadrupole moment (field-independent basis, Debye-Ang):
   XX=            -91.8906   YY=            -71.9382   ZZ=            -77.3594
   XY=              0.8714   XZ=              0.6793   YZ=             -0.9324

  Exact polarizability: 201.764   0.207 115.622   6.592  -2.999  60.745
 Approx polarizability: 294.759  -2.174 216.598  13.107  -9.417  89.761

                      1                      2                      3
                      A                      A                      A
 Frequencies --     32.8710                54.3161                80.3247
 Red. masses --      4.1083                 3.4833                 5.7530
 Frc consts  --      0.0026                 0.0061                 0.0219
 IR Inten    --      0.6181                 1.1832                 0.7732

                      4                      5                      6
                      A                      A                      A
 Frequencies --    103.5527               117.3128               168.2678
 Red. masses --      4.5122                 2.8831                 2.4172
 Frc consts  --      0.0285                 0.0234                 0.0403
 IR Inten    --      0.6293                 0.5867                 5.6871

                      7                      8                      9
                      A                      A                      A
 Frequencies --    199.9912               250.8642               276.0570
 Red. masses --      1.8127                 5.5162                 1.8843
 Frc consts  --      0.0427                 0.2045                 0.0846
 IR Inten    --      0.4372                 3.2759                 6.9031

                     10                     11                     12
                      A                      A                      A
 Frequencies --    297.4143               361.3219               373.5184
 Red. masses --      5.0007                 3.0965                 1.4142
 Frc consts  --      0.2606                 0.2382                 0.1162
 IR Inten    --      1.1289                16.9479               125.6514

                     13                     14                     15
                      A                      A                      A
 Frequencies --    430.1955               453.5015               492.2927
 Red. masses --      3.1826                 2.3191                 4.2235
 Frc consts  --      0.3470                 0.2810                 0.6031
 IR Inten    --      2.6465                15.3240                 8.2617

                     16                     17                     18
                      A                      A                      A
 Frequencies --    507.6129               544.3210               644.4945
 Red. masses --      2.7880                 6.1757                 6.8493
 Frc consts  --      0.4233                 1.0781                 1.6762
 IR Inten    --      4.9496                 3.8965                 0.4310

                     19                     20                     21
                      A                      A                      A
 Frequencies --    676.1870               702.9102               757.7993
 Red. masses --      5.5627                 3.5476                 7.0622
 Frc consts  --      1.4986                 1.0327                 2.3895
 IR Inten    --     11.0523                 7.4476                25.4128

                     22                     23                     24
                      A                      A                      A
 Frequencies --    777.4234               817.5648               839.9276
 Red. masses --      1.3330                 1.2640                 3.8067
 Frc consts  --      0.4747                 0.4978                 1.5823
 IR Inten    --      1.1498                 0.4747                 9.0699

                     25                     26                     27
                      A                      A                      A
 Frequencies --    845.2332               876.8815               883.7892
 Red. masses --      1.9488                 5.1724                 2.7676
 Frc consts  --      0.8203                 2.3433                 1.2737
 IR Inten    --     36.6879                11.5686                 4.6438

                     28                     29                     30
                      A                      A                      A
 Frequencies --    932.2456               973.0663               983.0946
 Red. masses --      1.2185                 1.3026                 1.3000
 Frc consts  --      0.6240                 0.7267                 0.7403
 IR Inten    --      0.8419                 0.0582                 1.4483

                     31                     32                     33
                      A                      A                      A
 Frequencies --   1016.8285              1020.9370              1092.9787
 Red. masses --      2.1152                 2.2658                 2.5533
 Frc consts  --      1.2885                 1.3915                 1.7971
 IR Inten    --     13.7948                 0.7192                 8.3024

                     34                     35                     36
                      A                      A                      A
 Frequencies --   1133.9614              1136.9307              1148.9664
 Red. masses --      1.5891                 1.9393                 1.7459
 Frc consts  --      1.2039                 1.4770                 1.3580
 IR Inten    --     32.6030               126.4011                 4.4047

                     37                     38                     39
                      A                      A                      A
 Frequencies --   1181.2045              1215.4896              1270.9498
 Red. masses --      1.9919                 1.3967                 1.2525
 Frc consts  --      1.6375                 1.2158                 1.1920
 IR Inten    --     23.4218                22.3615                 0.9489

                     40                     41                     42
                      A                      A                      A
 Frequencies --   1293.6794              1325.4633              1338.1017
 Red. masses --      1.4163                 1.3135                 1.5313
 Frc consts  --      1.3966                 1.3596                 1.6155
 IR Inten    --     59.9952                26.8635                80.9945

                     43                     44                     45
                      A                      A                      A
 Frequencies --   1378.4124              1388.1240              1395.6006
 Red. masses --      3.9584                 1.7534                 4.4476
 Frc consts  --      4.4313                 1.9906                 5.1038
 IR Inten    --    599.4012               126.6447                99.3223

                     46                     47                     48
                      A                      A                      A
 Frequencies --   1407.4217              1435.7091              1463.3578
 Red. masses --      1.6075                 1.2629                 2.7850
 Frc consts  --      1.8761                 1.5338                 3.5139
 IR Inten    --      0.7730                 4.7445                16.5065

                     49                     50                     51
                      A                      A                      A
 Frequencies --   1498.0592              1511.2737              1520.3798
 Red. masses --      1.1263                 1.0557                 1.0671
 Frc consts  --      1.4893                 1.4206                 1.4533
 IR Inten    --      5.8254                 4.5209                14.4771

                     52                     53                     54
                      A                      A                      A
 Frequencies --   1525.2172              1535.5232              1563.0196
 Red. masses --      1.7341                 1.1149                 2.9846
 Frc consts  --      2.3767                 1.5488                 4.2960
 IR Inten    --      7.2534                51.6544               153.2466

                     55                     56                     57
                      A                      A                      A
 Frequencies --   1602.0368              1653.7030              1663.4771
 Red. masses --      6.4652                 7.9023                 5.9168
 Frc consts  --      9.7764                12.7327                 9.6465
 IR Inten    --     91.8606               112.4603               334.1761

                     58                     59                     60
                      A                      A                      A
 Frequencies --   2987.9823              3025.5046              3048.3292
 Red. masses --      1.0686                 1.0702                 1.0460
 Frc consts  --      5.6211                 5.7716                 5.7268
 IR Inten    --     48.8179                18.0449                 7.7621

                     61                     62                     63
                      A                      A                      A
 Frequencies --   3051.0932              3079.9739              3118.6677
 Red. masses --      1.0808                 1.0962                 1.1024
 Frc consts  --      5.9282                 6.1269                 6.3171
 IR Inten    --     52.0290                17.9676                35.1085

                     64                     65                     66
                      A                      A                      A
 Frequencies --   3124.7359              3180.7647              3221.3576
 Red. masses --      1.1025                 1.0900                 1.0885
 Frc consts  --      6.3424                 6.4977                 6.6550
 IR Inten    --     45.1280                12.5162                 8.2652

                     67                     68                     69
                      A                      A                      A
 Frequencies --   3242.5209              3243.0046              3620.6529
 Red. masses --      1.0933                 1.0930                 1.0763
 Frc consts  --      6.7725                 6.7729                 8.3130
 IR Inten    --      0.7906                 2.1904                36.9164

 - Thermochemistry -
 -------------------
 Temperature   298.150 Kelvin.  Pressure   1.00000 Atm.
 Atom     1 has atomic number  7 and mass  14.00307

 Molecular mass:   180.08988 amu.
 Principal axes and moments of inertia in atomic units:
                           1         2         3
     Eigenvalues --   627.646476028.411476458.38175
           X            0.99999   0.00145  -0.00392
           Y           -0.00142   0.99998   0.00615
           Z            0.00393  -0.00615   0.99997
 This molecule is an asymmetric top.
 Rotational symmetry number  1.
 Warning -- assumption of classical behavior for rotation
           may cause significant error
 Rotational temperatures (Kelvin)      0.13800     0.01437     0.01341
 Rotational constants (GHZ):           2.87541     0.29937     0.27944
 Zero-point vibrational energy     539011.9 (Joules/Mol)
                                  128.82693 (Kcal/Mol)
 Warning -- explicit consideration of  17 degrees of freedom as
           vibrations may cause significant error
 Vibrational temperatures:     47.29    78.15   115.57   148.99   168.79
          (Kelvin)            242.10   287.74   360.94   397.18   427.91
                              519.86   537.41   618.95   652.49   708.30
                              730.34   783.16   927.28   972.88  1011.33
                             1090.30  1118.54  1176.29  1208.47  1216.10
                             1261.64  1271.57  1341.29  1400.02  1414.45
                             1462.99  1468.90  1572.55  1631.52  1635.79
                             1653.10  1699.49  1748.82  1828.61  1861.31
                             1907.04  1925.23  1983.23  1997.20  2007.96
                             2024.96  2065.66  2105.44  2155.37  2174.38
                             2187.48  2194.44  2209.27  2248.83  2304.97
                             2379.31  2393.37  4299.03  4353.02  4385.86
                             4389.84  4431.39  4487.06  4495.79  4576.41
                             4634.81  4665.26  4665.95  5209.31

 Zero-point correction=                           0.205299 (Hartree/Particle)
 Thermal correction to Energy=                    0.217745
 Thermal correction to Enthalpy=                  0.218690
 Thermal correction to Gibbs Free Energy=         0.165384
 Sum of electronic and zero-point Energies=           -609.861427
 Sum of electronic and thermal Energies=              -609.848980
 Sum of electronic and thermal Enthalpies=            -609.848036
 Sum of electronic and thermal Free Energies=         -609.901341

                     E (Thermal)             CV                S
                      KCal/Mol        Cal/Mol-Kelvin    Cal/Mol-Kelvin
 Total                  136.637             46.186            112.191
 Electronic               0.000              0.000              0.000
 Translational            0.889              2.981             41.472
 Rotational               0.889              2.981             31.569
 Vibrational            134.860             40.224             39.150
 Vibration     1          0.594              1.983              5.648
 Vibration     2          0.596              1.976              4.654
 Vibration     3          0.600              1.963              3.883
 Vibration     4          0.605              1.946              3.386
 Vibration     5          0.608              1.935              3.144
 Vibration     6          0.625              1.882              2.455
 Vibration     7          0.638              1.840              2.133
 Vibration     8          0.663              1.761              1.725
 Vibration     9          0.678              1.718              1.558
 Vibration    10          0.691              1.679              1.431
 Vibration    11          0.735              1.552              1.116
 Vibration    12          0.745              1.526              1.065
 Vibration    13          0.791              1.404              0.858
 Vibration    14          0.812              1.353              0.785
 Vibration    15          0.848              1.267              0.678
 Vibration    16          0.863              1.233              0.639
 Vibration    17          0.899              1.152              0.556

 Optimization completed.
    -- Stationary point found.
 Normal termination of Gaussian 09 at Fri Aug 20 15:44:37 2021.
