 Gaussian 09, Revision E.01,
 Gaussian 09:  ES64L-G09RevE.01 30-Nov-2015

 -------------------------
 #P OPT Freq B3LYP/6-31G**
 -------------------------

 ------
 TECSEB
 ------
 Symbolic Z-matrix:
 Charge =  0 Multiplicity = 1

 SCF Done:  E(RB3LYP) =  -701.048611022     A.U. after   16 cycles
 SCF Done:  E(RB3LYP) =  -701.167661596     A.U. after   14 cycles
 SCF Done:  E(RB3LYP) =  -701.251010405     A.U. after   15 cycles
 SCF Done:  E(RB3LYP) =  -701.253910181     A.U. after   15 cycles
 SCF Done:  E(RB3LYP) =  -701.249400091     A.U. after   17 cycles
 SCF Done:  E(RB3LYP) =  -701.255712914     A.U. after   12 cycles
 SCF Done:  E(RB3LYP) =  -701.256113160     A.U. after   15 cycles
 SCF Done:  E(RB3LYP) =  -701.258687176     A.U. after   15 cycles
 SCF Done:  E(RB3LYP) =  -701.259885754     A.U. after   13 cycles
 SCF Done:  E(RB3LYP) =  -701.260959839     A.U. after   14 cycles
 SCF Done:  E(RB3LYP) =  -701.257214491     A.U. after   18 cycles
 SCF Done:  E(RB3LYP) =  -701.261874258     A.U. after   13 cycles
 SCF Done:  E(RB3LYP) =  -701.261381780     A.U. after   16 cycles
 SCF Done:  E(RB3LYP) =  -701.261930955     A.U. after   12 cycles
 SCF Done:  E(RB3LYP) =  -701.261941759     A.U. after   12 cycles
 SCF Done:  E(RB3LYP) =  -701.261961690     A.U. after   12 cycles
 SCF Done:  E(RB3LYP) =  -701.261965393     A.U. after   11 cycles
 SCF Done:  E(RB3LYP) =  -701.261966144     A.U. after    9 cycles
 SCF Done:  E(RB3LYP) =  -701.261966213     A.U. after    8 cycles
 Optimization completed.
    -- Stationary point found.
 Normal termination of Gaussian 09 at Fri Aug 20 16:04:46 2021.

 ----------------------------------------------------------------------
 #P Geom=AllCheck Guess=TCheck SCRF=Check GenChk RB3LYP/6-31G(d,p) Freq
 ----------------------------------------------------------------------

 Structure from the checkpoint file:  "/public/home/users/caep010/.cache/gau_scr/Gau-141959.chk"
 ------
 TECSEB
 ------
 Charge =  0 Multiplicity = 1

                         Standard orientation:
 ---------------------------------------------------------------------
 Center     Atomic      Atomic             Coordinates (Angstroms)
 Number     Number       Type             X           Y           Z
 ---------------------------------------------------------------------
      1          8           0       -1.723456    2.453240   -0.093109
      2          7           0       -0.674175    1.713340   -0.047558
      3          6           0       -0.815534    0.327561   -0.172403
      4          6           0        0.317711   -0.504892   -0.204281
      5          6           0        1.564671    0.106096    0.019732
      6          6           0        1.688523    1.489278    0.159181
      7          1           0        2.663254    1.933912    0.303532
      8          6           0        0.561116    2.272360    0.103675
      9          1           0        0.547916    3.349472    0.191763
     10          7           0       -2.120805   -0.071267   -0.353216
     11          1           0       -2.676628    0.784874   -0.418571
     12          6           0       -2.755078   -1.056019    0.543408
     13          1           0       -2.690738   -0.727911    1.591801
     14          1           0       -2.226074   -2.008467    0.473331
     15          6           0       -4.214079   -1.248387    0.143137
     16          1           0       -4.773593   -0.310224    0.225403
     17          1           0       -4.693225   -1.980881    0.798834
     18          1           0       -4.291266   -1.601823   -0.889022
     19          7           0        2.804407   -0.669000    0.107028
     20          8           0        2.725306   -1.870710    0.372168
     21          8           0        3.865232   -0.065045   -0.064397
     22          6           0        0.132477   -1.954731   -0.577933
     23          1           0        0.031624   -2.597666    0.302062
     24          1           0        0.991686   -2.327021   -1.133930
     25          1           0       -0.764434   -2.053254   -1.193392
 ---------------------------------------------------------------------

 SCF Done:  E(RB3LYP) =  -701.261966213     A.U. after    1 cycles

 The electronic state is 1-A.
 Alpha  occ. eigenvalues --  -19.18484 -19.18378 -19.14346 -14.57670 -14.49499
 Alpha  occ. eigenvalues --  -14.36105 -10.28951 -10.26561 -10.25478 -10.24693
 Alpha  occ. eigenvalues --  -10.23737 -10.23020 -10.20270 -10.19496  -1.22749
 Alpha  occ. eigenvalues --   -1.12681  -1.05382  -0.95753  -0.91511  -0.84570
 Alpha  occ. eigenvalues --   -0.81126  -0.76944  -0.74302  -0.70940  -0.66051
 Alpha  occ. eigenvalues --   -0.63138  -0.61504  -0.56964  -0.55599  -0.53432
 Alpha  occ. eigenvalues --   -0.51288  -0.50597  -0.50537  -0.49615  -0.48233
 Alpha  occ. eigenvalues --   -0.46206  -0.45421  -0.44117  -0.43533  -0.41183
 Alpha  occ. eigenvalues --   -0.40483  -0.39438  -0.38691  -0.36963  -0.35555
 Alpha  occ. eigenvalues --   -0.32164  -0.31206  -0.31063  -0.29363  -0.27320
 Alpha  occ. eigenvalues --   -0.25840  -0.22361
 Alpha virt. eigenvalues --   -0.09792  -0.03606  -0.02251   0.07374   0.08793
 Alpha virt. eigenvalues --    0.10246   0.10809   0.12364   0.13089   0.13988
 Alpha virt. eigenvalues --    0.14902   0.15469   0.16585   0.17217   0.18058

 Mulliken charges:
               1
     1  O   -0.520628
     2  N   -0.089791
     3  C    0.475037
     4  C    0.087531
     5  C    0.223689
     6  C   -0.142197
     7  H    0.150491
     8  C    0.127624
     9  H    0.150027
    10  N   -0.581011
    11  H    0.288587
    12  C   -0.049675
    13  H    0.110998
    14  H    0.117753
    15  C   -0.337386
    16  H    0.119180
    17  H    0.115693
    18  H    0.125533
    19  N    0.366034
    20  O   -0.396969
    21  O   -0.392607
    22  C   -0.364261
    23  H    0.144944
    24  H    0.139551
    25  H    0.131855
 Sum of Mulliken charges =  -0.00000

 Dipole moment (field-independent basis, Debye):
    X=             -2.7716    Y=             -0.4770    Z=              0.4653  Tot=              2.8506
 Quadrupole moment (field-independent basis, Debye-Ang):
   XX=            -91.1843   YY=            -82.4863   ZZ=            -80.9346
   XY=             13.8806   XZ=             -2.0485   YZ=              1.7145

  Exact polarizability: 174.451  -4.872 140.966   2.504   1.255  61.695
 Approx polarizability: 304.836 -39.323 271.803   8.580  -2.117  96.588

                      1                      2                      3
                      A                      A                      A
 Frequencies --     32.4528                52.1361                82.4260
 Red. masses --      2.1556                 6.8594                 4.8067
 Frc consts  --      0.0013                 0.0110                 0.0192
 IR Inten    --      0.1862                 0.4079                 1.2732

                      4                      5                      6
                      A                      A                      A
 Frequencies --     99.0954               123.5128               192.7113
 Red. masses --      3.2726                 5.5327                 3.2195
 Frc consts  --      0.0189                 0.0497                 0.0704
 IR Inten    --      5.5999                 7.5545                 0.9782

                      7                      8                      9
                      A                      A                      A
 Frequencies --    227.0615               253.7908               271.8067
 Red. masses --      3.2091                 1.2453                 1.6287
 Frc consts  --      0.0975                 0.0473                 0.0709
 IR Inten    --      3.7611                 0.5420                 3.3104

                     10                     11                     12
                      A                      A                      A
 Frequencies --    275.2180               306.0520               350.8557
 Red. masses --      3.5600                 3.7088                 3.8843
 Frc consts  --      0.1589                 0.2047                 0.2817
 IR Inten    --      2.1535                 2.1643                 1.2859

                     13                     14                     15
                      A                      A                      A
 Frequencies --    357.4322               386.1397               408.0648
 Red. masses --      3.9454                 4.0483                 3.8931
 Frc consts  --      0.2970                 0.3556                 0.3819
 IR Inten    --      0.2189                 6.4709                 4.4267

                     16                     17                     18
                      A                      A                      A
 Frequencies --    485.4897               534.3865               560.3454
 Red. masses --      8.2453                 4.5273                 4.8821
 Frc consts  --      1.1450                 0.7617                 0.9032
 IR Inten    --      3.5815                 1.5987                 3.7700

                     19                     20                     21
                      A                      A                      A
 Frequencies --    566.5508               635.5369               643.4651
 Red. masses --      4.8566                 4.2344                 6.9935
 Frc consts  --      0.9185                 1.0077                 1.7061
 IR Inten    --      0.8719                 0.6742                19.1002

                     22                     23                     24
                      A                      A                      A
 Frequencies --    713.1038               743.5215               760.8286
 Red. masses --      5.9092                 5.3568                 5.7573
 Frc consts  --      1.7705                 1.7448                 1.9635
 IR Inten    --      7.5439                33.7097                20.3469

                     25                     26                     27
                      A                      A                      A
 Frequencies --    802.1136               811.4305               830.5057
 Red. masses --      1.6662                 1.3340                 1.6905
 Frc consts  --      0.6316                 0.5175                 0.6870
 IR Inten    --     77.0482                10.0115                19.3668

                     28                     29                     30
                      A                      A                      A
 Frequencies --    843.7159               927.9017               936.6058
 Red. masses --      3.1167                 1.7158                 1.2782
 Frc consts  --      1.3072                 0.8704                 0.6606
 IR Inten    --     17.8717                31.0601                 0.5647

                     31                     32                     33
                      A                      A                      A
 Frequencies --    949.1220              1033.4494              1060.4523
 Red. masses --      2.6145                 3.0136                 1.4820
 Frc consts  --      1.3877                 1.8963                 0.9819
 IR Inten    --      3.7205                32.9066                 1.1079

                     34                     35                     36
                      A                      A                      A
 Frequencies --   1070.7413              1081.4820              1141.7133
 Red. masses --      1.9820                 2.9336                 1.7991
 Frc consts  --      1.3388                 2.0216                 1.3817
 IR Inten    --      0.1812                46.1462                15.0495

                     37                     38                     39
                      A                      A                      A
 Frequencies --   1157.6953              1187.5281              1226.3459
 Red. masses --      1.5911                 2.0243                 2.1839
 Frc consts  --      1.2564                 1.6820                 1.9351
 IR Inten    --     21.3402                48.5329                 1.2393

                     40                     41                     42
                      A                      A                      A
 Frequencies --   1263.1387              1297.7475              1310.6884
 Red. masses --      3.4966                 4.3002                 1.1373
 Frc consts  --      3.2870                 4.2669                 1.1511
 IR Inten    --     80.0753                25.4068                40.9567

                     43                     44                     45
                      A                      A                      A
 Frequencies --   1353.1339              1385.4130              1395.4585
 Red. masses --      4.9145                 3.0221                 1.8603
 Frc consts  --      5.3016                 3.4176                 2.1343
 IR Inten    --    433.8612               206.3610                47.2335

                     46                     47                     48
                      A                      A                      A
 Frequencies --   1428.6374              1431.8836              1465.4439
 Red. masses --      1.2441                 1.2931                 2.6067
 Frc consts  --      1.4960                 1.5621                 3.2982
 IR Inten    --     15.3711                 8.2815                16.6051

                     49                     50                     51
                      A                      A                      A
 Frequencies --   1488.8265              1503.3507              1504.0258
 Red. masses --      1.1807                 1.0654                 1.1756
 Frc consts  --      1.5420                 1.4186                 1.5668
 IR Inten    --     15.5307                 6.6002                23.7431

                     52                     53                     54
                      A                      A                      A
 Frequencies --   1515.0939              1528.0617              1538.7415
 Red. masses --      1.0489                 2.7652                 1.6364
 Frc consts  --      1.4187                 3.8042                 2.2828
 IR Inten    --      4.7943                90.9893                36.5871

                     55                     56                     57
                      A                      A                      A
 Frequencies --   1542.0417              1601.1204              1642.1269
 Red. masses --      1.2412                 3.7351                 9.3409
 Frc consts  --      1.7390                 5.6416                14.8406
 IR Inten    --      4.6148               279.4939                70.7483

                     58                     59                     60
                      A                      A                      A
 Frequencies --   1651.1063              3005.6211              3050.7475
 Red. masses --      6.6677                 1.0741                 1.0366
 Frc consts  --     10.7097                 5.7168                 5.6842
 IR Inten    --     44.3020                46.8831                19.2798

                     61                     62                     63
                      A                      A                      A
 Frequencies --   3063.2336              3111.3409              3129.3447
 Red. masses --      1.0400                 1.0942                 1.0993
 Frc consts  --      5.7495                 6.2407                 6.3428
 IR Inten    --      8.1380                 0.7987                11.0038

                     64                     65                     66
                      A                      A                      A
 Frequencies --   3131.5623              3136.4391              3170.2586
 Red. masses --      1.0964                 1.1036                 1.1006
 Frc consts  --      6.3350                 6.3965                 6.5175
 IR Inten    --     32.9917                23.4794                 4.7931

                     67                     68                     69
                      A                      A                      A
 Frequencies --   3258.8944              3271.7860              3442.5571
 Red. masses --      1.0894                 1.0971                 1.0720
 Frc consts  --      6.8168                 6.9191                 7.4851
 IR Inten    --      5.3336                 3.1269                34.8559

 - Thermochemistry -
 -------------------
 Temperature   298.150 Kelvin.  Pressure   1.00000 Atm.
 Atom     1 has atomic number  8 and mass  15.99491

 Molecular mass:   197.08004 amu.
 Principal axes and moments of inertia in atomic units:
                           1         2         3
     Eigenvalues --  1547.943433851.341835250.63216
           X            0.99901   0.04437  -0.00416
           Y           -0.04434   0.99899   0.00690
           Z            0.00446  -0.00671   0.99997
 This molecule is an asymmetric top.
 Rotational symmetry number  1.
 Warning -- assumption of classical behavior for rotation
           may cause significant error
 Rotational temperatures (Kelvin)      0.05595     0.02249     0.01650
 Rotational constants (GHZ):           1.16590     0.46860     0.34372
 Zero-point vibrational energy     518824.1 (Joules/Mol)
                                  124.00193 (Kcal/Mol)
 Warning -- explicit consideration of  19 degrees of freedom as
           vibrations may cause significant error
 Vibrational temperatures:     46.69    75.01   118.59   142.58   177.71
          (Kelvin)            277.27   326.69   365.15   391.07   395.98
                              440.34   504.80   514.26   555.57   587.11
                              698.51   768.86   806.21   815.14   914.39
                              925.80  1026.00  1069.76  1094.66  1154.06
                             1167.47  1194.91  1213.92  1335.04  1347.57
                             1365.57  1486.90  1525.75  1540.56  1556.01
                             1642.67  1665.66  1708.59  1764.44  1817.37
                             1867.17  1885.79  1946.86  1993.30  2007.75
                             2055.49  2060.16  2108.44  2142.09  2162.98
                             2163.95  2179.88  2198.54  2213.90  2218.65
                             2303.65  2362.65  2375.57  4324.41  4389.34
                             4407.30  4476.52  4502.42  4505.61  4512.63
                             4561.29  4688.82  4707.36  4953.07

 Zero-point correction=                           0.197610 (Hartree/Particle)
 Thermal correction to Energy=                    0.210683
 Thermal correction to Enthalpy=                  0.211627
 Thermal correction to Gibbs Free Energy=         0.157152
 Sum of electronic and zero-point Energies=           -701.064357
 Sum of electronic and thermal Energies=              -701.051283
 Sum of electronic and thermal Enthalpies=            -701.050339
 Sum of electronic and thermal Free Energies=         -701.104814

                     E (Thermal)             CV                S
                      KCal/Mol        Cal/Mol-Kelvin    Cal/Mol-Kelvin
 Total                  132.205             48.876            114.652
 Electronic               0.000              0.000              0.000
 Translational            0.889              2.981             41.740
 Rotational               0.889              2.981             31.815
 Vibrational            130.428             42.914             41.096
 Vibration     1          0.594              1.983              5.674
 Vibration     2          0.596              1.977              4.735
 Vibration     3          0.600              1.961              3.832
 Vibration     4          0.604              1.950              3.472
 Vibration     5          0.610              1.929              3.045
 Vibration     6          0.635              1.850              2.202
 Vibration     7          0.651              1.800              1.902
 Vibration     8          0.665              1.756              1.704
 Vibration     9          0.675              1.725              1.585
 Vibration    10          0.677              1.719              1.563
 Vibration    11          0.696              1.662              1.384
 Vibration    12          0.728              1.574              1.162
 Vibration    13          0.733              1.560              1.133
 Vibration    14          0.755              1.500              1.015
 Vibration    15          0.773              1.453              0.933
 Vibration    16          0.842              1.282              0.695
 Vibration    17          0.889              1.174              0.577
 Vibration    18          0.916              1.117              0.523
 Vibration    19          0.922              1.104              0.511

 Optimization completed.
    -- Stationary point found.
 Normal termination of Gaussian 09 at Fri Aug 20 16:05:36 2021.
