 Gaussian 09, Revision E.01,
 Gaussian 09:  ES64L-G09RevE.01 30-Nov-2015

 -------------------------
 #P OPT Freq B3LYP/6-31G**
 -------------------------

 ------
 PIZHAH
 ------
 Symbolic Z-matrix:
 Charge =  0 Multiplicity = 1

 SCF Done:  E(RB3LYP) =  -660.710201610     A.U. after   17 cycles
 SCF Done:  E(RB3LYP) =  -660.809696193     A.U. after   14 cycles
 SCF Done:  E(RB3LYP) =  -660.866212389     A.U. after   14 cycles
 SCF Done:  E(RB3LYP) =  -660.867010526     A.U. after   13 cycles
 SCF Done:  E(RB3LYP) =  -660.867331786     A.U. after   14 cycles
 SCF Done:  E(RB3LYP) =  -660.867248888     A.U. after   14 cycles
 SCF Done:  E(RB3LYP) =  -660.867439278     A.U. after   13 cycles
 SCF Done:  E(RB3LYP) =  -660.867506324     A.U. after   13 cycles
 SCF Done:  E(RB3LYP) =  -660.867634753     A.U. after   14 cycles
 SCF Done:  E(RB3LYP) =  -660.867759840     A.U. after   13 cycles
 SCF Done:  E(RB3LYP) =  -660.867805012     A.U. after   14 cycles
 SCF Done:  E(RB3LYP) =  -660.867837072     A.U. after   14 cycles
 SCF Done:  E(RB3LYP) =  -660.867856651     A.U. after   13 cycles
 SCF Done:  E(RB3LYP) =  -660.867862253     A.U. after   11 cycles
 SCF Done:  E(RB3LYP) =  -660.867863864     A.U. after   10 cycles
 SCF Done:  E(RB3LYP) =  -660.867864414     A.U. after   10 cycles
 Optimization completed.
    -- Stationary point found.
 Normal termination of Gaussian 09 at Fri Aug 20 15:45:24 2021.

 ----------------------------------------------------------------------
 #P Geom=AllCheck Guess=TCheck SCRF=Check GenChk RB3LYP/6-31G(d,p) Freq
 ----------------------------------------------------------------------

 Structure from the checkpoint file:  "/public/home/users/caep010/.cache/gau_scr/Gau-155727.chk"
 ------
 PIZHAH
 ------
 Charge =  0 Multiplicity = 1

                         Standard orientation:
 ---------------------------------------------------------------------
 Center     Atomic      Atomic             Coordinates (Angstroms)
 Number     Number       Type             X           Y           Z
 ---------------------------------------------------------------------
      1          8           0        1.143263   -0.204306   -0.798048
      2          6           0        0.062462    0.248071    0.057436
      3          6           0       -0.656962   -0.896775    0.837356
      4          7           0       -1.814088   -0.696879   -0.047501
      5          7           0       -3.094580   -0.770344    0.321495
      6          8           0       -3.846988   -0.124084   -0.402810
      7          7           0        2.267725   -0.772249   -0.131788
      8          8           0        3.163820   -1.037588   -0.890514
      9          8           0        2.194548   -0.932912    1.070975
     10          6           0       -1.193449    0.361504   -0.859523
     11          6           0        0.425037    1.506309    0.842834
     12          6           0        0.908808    2.662625   -0.038340
     13          1           0       -0.195482   -1.880930    0.737556
     14          1           0       -0.859649   -0.686106    1.890462
     15          1           0       -1.745334    1.304320   -0.799625
     16          1           0       -1.029975    0.090431   -1.905119
     17          1           0        1.179278    1.252632    1.593180
     18          1           0       -0.474012    1.805491    1.395393
     19          1           0        1.128219    3.540466    0.575329
     20          1           0        1.818612    2.396842   -0.583233
     21          1           0        0.152421    2.953883   -0.774783
 ---------------------------------------------------------------------

 SCF Done:  E(RB3LYP) =  -660.867864414     A.U. after    1 cycles

 The electronic state is 1-A.
 Alpha  occ. eigenvalues --  -19.25299 -19.22928 -19.22702 -19.17119 -14.65121
 Alpha  occ. eigenvalues --  -14.46326 -14.41014 -10.29874 -10.25838 -10.25527
 Alpha  occ. eigenvalues --  -10.21862 -10.20090  -1.29805  -1.15241  -1.11689
 Alpha  occ. eigenvalues --   -1.09340  -0.99183  -0.84567  -0.78686  -0.73782
 Alpha  occ. eigenvalues --   -0.72574  -0.66947  -0.61309  -0.59601  -0.58582
 Alpha  occ. eigenvalues --   -0.56320  -0.55497  -0.52699  -0.52168  -0.49850
 Alpha  occ. eigenvalues --   -0.47654  -0.46625  -0.45355  -0.43131  -0.42483
 Alpha  occ. eigenvalues --   -0.40998  -0.39324  -0.38219  -0.37611  -0.37366
 Alpha  occ. eigenvalues --   -0.35413  -0.34593  -0.34155  -0.33203  -0.27519
 Alpha  occ. eigenvalues --   -0.23640
 Alpha virt. eigenvalues --   -0.08338  -0.05013   0.02597   0.06558   0.07885
 Alpha virt. eigenvalues --    0.08448   0.10297   0.11781   0.12802   0.13872
 Alpha virt. eigenvalues --    0.14348   0.15513   0.16802   0.17483   0.18263

 Mulliken charges:
               1
     1  O   -0.414663
     2  C    0.202497
     3  C    0.015236
     4  N   -0.271134
     5  N    0.142800
     6  O   -0.356141
     7  N    0.744262
     8  O   -0.339427
     9  O   -0.363211
    10  C   -0.016627
    11  C   -0.204973
    12  C   -0.326680
    13  H    0.141192
    14  H    0.140363
    15  H    0.145190
    16  H    0.153661
    17  H    0.135020
    18  H    0.113873
    19  H    0.119697
    20  H    0.125354
    21  H    0.113711
 Sum of Mulliken charges =  -0.00000

 Dipole moment (field-independent basis, Debye):
    X=              1.6503    Y=              1.9568    Z=              0.8866  Tot=              2.7090
 Quadrupole moment (field-independent basis, Debye-Ang):
   XX=            -93.3833   YY=            -65.4651   ZZ=            -68.9660
   XY=              1.2300   XZ=              0.5025   YZ=              0.4751

  Exact polarizability: 114.269  -6.117  74.291  -1.368  -3.834  75.538
 Approx polarizability: 171.994 -20.194 103.538  -4.991  -9.091 136.230

                      1                      2                      3
                      A                      A                      A
 Frequencies --     37.4320                69.4436                89.0803
 Red. masses --      6.8650                 4.9024                 3.7574
 Frc consts  --      0.0057                 0.0139                 0.0176
 IR Inten    --      5.5029                 0.1561                 0.6082

                      4                      5                      6
                      A                      A                      A
 Frequencies --    116.5930               150.5282               167.6817
 Red. masses --      6.5139                 3.8076                 2.8825
 Frc consts  --      0.0522                 0.0508                 0.0478
 IR Inten    --      3.3642                 3.0120                 4.2998

                      7                      8                      9
                      A                      A                      A
 Frequencies --    200.7585               231.4754               235.7999
 Red. masses --      1.5684                 4.2175                 3.3646
 Frc consts  --      0.0372                 0.1331                 0.1102
 IR Inten    --      1.0647                 5.8481                 0.2887

                     10                     11                     12
                      A                      A                      A
 Frequencies --    324.5652               359.7516               367.7716
 Red. masses --      3.5660                 3.0863                 3.9464
 Frc consts  --      0.2213                 0.2353                 0.3145
 IR Inten    --      0.9531                 1.1484                 2.8992

                     13                     14                     15
                      A                      A                      A
 Frequencies --    385.8704               440.6454               531.5345
 Red. masses --      3.7498                 4.5778                 3.2076
 Frc consts  --      0.3290                 0.5237                 0.5339
 IR Inten    --      4.1989                 2.6622                 0.7959

                     16                     17                     18
                      A                      A                      A
 Frequencies --    609.5149               693.3809               742.1670
 Red. masses --      4.6083                 9.6577                 2.8149
 Frc consts  --      1.0087                 2.7357                 0.9135
 IR Inten    --      2.0143                32.0764                 6.7300

                     19                     20                     21
                      A                      A                      A
 Frequencies --    761.0879               800.9389               815.3506
 Red. masses --      7.6902                 1.4502                 3.9484
 Frc consts  --      2.6246                 0.5481                 1.5465
 IR Inten    --     13.2354                27.0654                26.3405

                     22                     23                     24
                      A                      A                      A
 Frequencies --    861.0333               897.8953               924.8329
 Red. masses --      8.2323                 3.4113                 4.1163
 Frc consts  --      3.5959                 1.6204                 2.0744
 IR Inten    --    228.0108                36.8311                25.9963

                     25                     26                     27
                      A                      A                      A
 Frequencies --    939.3444               983.2511              1017.3660
 Red. masses --      1.4485                 2.1374                 1.7588
 Frc consts  --      0.7531                 1.2175                 1.0726
 IR Inten    --      0.9917                 0.9830                 3.1425

                     28                     29                     30
                      A                      A                      A
 Frequencies --   1043.4670              1115.9838              1121.8818
 Red. masses --      2.9706                 1.2601                 1.6509
 Frc consts  --      1.9057                 0.9246                 1.2243
 IR Inten    --      5.6206                 0.9581                 3.6359

                     31                     32                     33
                      A                      A                      A
 Frequencies --   1147.9219              1177.0005              1223.1760
 Red. masses --      1.9682                 2.2110                 3.4147
 Frc consts  --      1.5281                 1.8046                 3.0101
 IR Inten    --     18.0332                 3.4657                54.5529

                     34                     35                     36
                      A                      A                      A
 Frequencies --   1248.3739              1277.0896              1292.4218
 Red. masses --      1.8494                 2.8574                 1.9756
 Frc consts  --      1.6981                 2.7457                 1.9442
 IR Inten    --    126.2120                97.6045                25.4069

                     37                     38                     39
                      A                      A                      A
 Frequencies --   1307.3893              1339.0279              1360.9780
 Red. masses --      1.6762                 1.7614                 4.0973
 Frc consts  --      1.6880                 1.8608                 4.4715
 IR Inten    --    158.7346                48.2418                95.9132

                     40                     41                     42
                      A                      A                      A
 Frequencies --   1385.9713              1432.0415              1494.0255
 Red. masses --      1.8076                 1.2443                 1.0741
 Frc consts  --      2.0458                 1.5034                 1.4125
 IR Inten    --     15.8989                 4.3182                 5.8455

                     43                     44                     45
                      A                      A                      A
 Frequencies --   1503.3258              1511.2018              1512.1710
 Red. masses --      1.0748                 1.1302                 1.0452
 Frc consts  --      1.4311                 1.5207                 1.4081
 IR Inten    --      4.6060                23.7469                 2.1077

                     46                     47                     48
                      A                      A                      A
 Frequencies --   1519.9281              1566.3189              1758.1348
 Red. masses --      1.0648                 9.6419                14.1552
 Frc consts  --      1.4493                13.9372                25.7793
 IR Inten    --      9.7190               145.0604               360.2707

                     49                     50                     51
                      A                      A                      A
 Frequencies --   3053.1761              3054.7605              3078.8466
 Red. masses --      1.0569                 1.0469                 1.0560
 Frc consts  --      5.8049                 5.7559                 5.8980
 IR Inten    --      6.2330                21.4971                11.7734

                     52                     53                     54
                      A                      A                      A
 Frequencies --   3087.7301              3106.0995              3126.9609
 Red. masses --      1.0581                 1.0972                 1.1005
 Frc consts  --      5.9439                 6.2371                 6.3397
 IR Inten    --     14.6814                 0.4368                31.1647

                     55                     56                     57
                      A                      A                      A
 Frequencies --   3136.6706              3138.8965              3146.3788
 Red. masses --      1.1039                 1.1095                 1.1119
 Frc consts  --      6.3994                 6.4408                 6.4855
 IR Inten    --     11.0877                11.3731                11.8809

 - Thermochemistry -
 -------------------
 Temperature   298.150 Kelvin.  Pressure   1.00000 Atm.
 Atom     1 has atomic number  8 and mass  15.99491

 Molecular mass:   175.05931 amu.
 Principal axes and moments of inertia in atomic units:
                           1         2         3
     Eigenvalues --  1080.165123136.344323605.06292
           X            0.99990   0.01378   0.00313
           Y           -0.01376   0.99988  -0.00664
           Z           -0.00322   0.00659   0.99997
 This molecule is an asymmetric top.
 Rotational symmetry number  1.
 Warning -- assumption of classical behavior for rotation
           may cause significant error
 Rotational temperatures (Kelvin)      0.08019     0.02762     0.02403
 Rotational constants (GHZ):           1.67080     0.57543     0.50061
 Zero-point vibrational energy     418827.2 (Joules/Mol)
                                  100.10211 (Kcal/Mol)
 Warning -- explicit consideration of  16 degrees of freedom as
           vibrations may cause significant error
 Vibrational temperatures:     53.86    99.91   128.17   167.75   216.58
          (Kelvin)            241.26   288.85   333.04   339.26   466.98
                              517.60   529.14   555.18   633.99   764.76
                              876.95   997.62  1067.81  1095.03  1152.37
                             1173.11  1238.83  1291.87  1330.63  1351.51
                             1414.68  1463.76  1501.31  1605.65  1614.14
                             1651.60  1693.44  1759.88  1796.13  1837.44
                             1859.50  1881.04  1926.56  1958.14  1994.10
                             2060.39  2149.57  2162.95  2174.28  2175.67
                             2186.83  2253.58  2529.56  4392.83  4395.11
                             4429.77  4442.55  4468.98  4498.99  4512.96
                             4516.17  4526.93

 Zero-point correction=                           0.159523 (Hartree/Particle)
 Thermal correction to Energy=                    0.171324
 Thermal correction to Enthalpy=                  0.172268
 Thermal correction to Gibbs Free Energy=         0.120704
 Sum of electronic and zero-point Energies=           -660.708342
 Sum of electronic and thermal Energies=              -660.696541
 Sum of electronic and thermal Enthalpies=            -660.695597
 Sum of electronic and thermal Free Energies=         -660.747160

                     E (Thermal)             CV                S
                      KCal/Mol        Cal/Mol-Kelvin    Cal/Mol-Kelvin
 Total                  107.507             42.168            108.525
 Electronic               0.000              0.000              0.000
 Translational            0.889              2.981             41.387
 Rotational               0.889              2.981             30.880
 Vibrational            105.730             36.206             36.257
 Vibration     1          0.594              1.982              5.391
 Vibration     2          0.598              1.969              4.169
 Vibration     3          0.602              1.957              3.680
 Vibration     4          0.608              1.936              3.156
 Vibration     5          0.618              1.902              2.666
 Vibration     6          0.624              1.882              2.461
 Vibration     7          0.638              1.839              2.126
 Vibration     8          0.653              1.793              1.867
 Vibration     9          0.655              1.786              1.834
 Vibration    10          0.709              1.626              1.287
 Vibration    11          0.734              1.555              1.123
 Vibration    12          0.740              1.539              1.089
 Vibration    13          0.755              1.500              1.016
 Vibration    14          0.801              1.382              0.825
 Vibration    15          0.887              1.180              0.584
 Vibration    16          0.968              1.012              0.434

 Normal termination of Gaussian 09 at Fri Aug 20 15:45:57 2021.
