 Gaussian 09, Revision E.01,
 Gaussian 09:  ES64L-G09RevE.01 30-Nov-2015

 -------------------------
 #P OPT Freq B3LYP/6-31G**
 -------------------------

 ------
 KOFKAR
 ------
 Symbolic Z-matrix:
 Charge =  0 Multiplicity = 1

 SCF Done:  E(RB3LYP) =  -676.769864185     A.U. after   16 cycles
 SCF Done:  E(RB3LYP) =  -676.866535367     A.U. after   14 cycles
 SCF Done:  E(RB3LYP) =  -676.914575035     A.U. after   14 cycles
 SCF Done:  E(RB3LYP) =  -676.917264484     A.U. after   13 cycles
 SCF Done:  E(RB3LYP) =  -676.917200030     A.U. after   14 cycles
 SCF Done:  E(RB3LYP) =  -676.917625704     A.U. after    9 cycles
 SCF Done:  E(RB3LYP) =  -676.916975825     A.U. after   14 cycles
 SCF Done:  E(RB3LYP) =  -676.917986770     A.U. after   10 cycles
 SCF Done:  E(RB3LYP) =  -676.918241028     A.U. after   13 cycles
 SCF Done:  E(RB3LYP) =  -676.917433333     A.U. after   15 cycles
 SCF Done:  E(RB3LYP) =  -676.918427394     A.U. after   11 cycles
 SCF Done:  E(RB3LYP) =  -676.918649816     A.U. after   13 cycles
 SCF Done:  E(RB3LYP) =  -676.918730477     A.U. after   13 cycles
 SCF Done:  E(RB3LYP) =  -676.918755844     A.U. after   11 cycles
 SCF Done:  E(RB3LYP) =  -676.918761849     A.U. after   10 cycles
 SCF Done:  E(RB3LYP) =  -676.918762838     A.U. after    9 cycles
 SCF Done:  E(RB3LYP) =  -676.918763167     A.U. after    8 cycles
 SCF Done:  E(RB3LYP) =  -676.918763273     A.U. after    8 cycles
 Optimization completed.
    -- Stationary point found.
 Normal termination of Gaussian 09 at Fri Aug 20 16:04:02 2021.

 ----------------------------------------------------------------------
 #P Geom=AllCheck Guess=TCheck SCRF=Check GenChk RB3LYP/6-31G(d,p) Freq
 ----------------------------------------------------------------------

 Structure from the checkpoint file:  "/public/home/users/caep010/.cache/gau_scr/Gau-100114.chk"
 ------
 KOFKAR
 ------
 Charge =  0 Multiplicity = 1

                         Standard orientation:
 ---------------------------------------------------------------------
 Center     Atomic      Atomic             Coordinates (Angstroms)
 Number     Number       Type             X           Y           Z
 ---------------------------------------------------------------------
      1          6           0        0.102412   -0.509787    0.959628
      2          7           0       -1.266199   -0.087658    0.740019
      3          7           0       -1.974077   -0.829981   -0.236902
      4          8           0       -2.942833   -0.279200   -0.749213
      5          6           0       -1.464782    1.369351    0.697605
      6          6           0       -0.554924    2.004012   -0.358997
      7          1           0       -0.628823    3.095330   -0.312749
      8          8           0       -1.603413   -1.978544   -0.440017
      9          7           0        0.984260    0.130574   -0.032112
     10          7           0        2.261255   -0.424376   -0.129950
     11          8           0        2.410683   -1.557624    0.322096
     12          8           0        3.120321    0.250842   -0.689579
     13          1           0        0.375931   -0.209577    1.979998
     14          1           0        0.180077   -1.586133    0.861745
     15          1           0       -0.889492    1.691073   -1.353287
     16          1           0       -2.517569    1.567412    0.511474
     17          6           0        0.907121    1.593810   -0.147368
     18          1           0        1.528457    1.895544   -0.988350
     19          1           0        1.315171    2.065419    0.760912
     20          1           0       -1.217446    1.732910    1.701375
 ---------------------------------------------------------------------

 SCF Done:  E(RB3LYP) =  -676.918763273     A.U. after    1 cycles

 The electronic state is 1-A.
 Alpha  occ. eigenvalues --  -19.19568 -19.19552 -19.18950 -19.18895 -14.61323
 Alpha  occ. eigenvalues --  -14.60945 -14.42993 -14.42698 -10.29218 -10.25884
 Alpha  occ. eigenvalues --  -10.25834 -10.22685  -1.25616  -1.25092  -1.07653
 Alpha  occ. eigenvalues --   -1.06967  -1.02149  -0.96609  -0.83197  -0.77596
 Alpha  occ. eigenvalues --   -0.75206  -0.67507  -0.63932  -0.59605  -0.58652
 Alpha  occ. eigenvalues --   -0.56937  -0.55642  -0.55144  -0.53983  -0.52882
 Alpha  occ. eigenvalues --   -0.50453  -0.48839  -0.48225  -0.46201  -0.45455
 Alpha  occ. eigenvalues --   -0.41628  -0.39661  -0.38974  -0.34215  -0.33647
 Alpha  occ. eigenvalues --   -0.32534  -0.31961  -0.30657  -0.30068  -0.29581
 Alpha  occ. eigenvalues --   -0.29139
 Alpha virt. eigenvalues --   -0.06576  -0.05988   0.06291   0.07151   0.10036
 Alpha virt. eigenvalues --    0.10656   0.11596   0.11913   0.12367   0.13184
 Alpha virt. eigenvalues --    0.14818   0.16243   0.17618   0.18694   0.19945

 Mulliken charges:
               1
     1  C    0.090407
     2  N   -0.312529
     3  N    0.655687
     4  O   -0.405865
     5  C   -0.079949
     6  C   -0.204079
     7  H    0.123577
     8  O   -0.396129
     9  N   -0.328869
    10  N    0.660570
    11  O   -0.411185
    12  O   -0.411526
    13  H    0.139445
    14  H    0.207700
    15  H    0.143040
    16  H    0.167415
    17  C   -0.048810
    18  H    0.166930
    19  H    0.117174
    20  H    0.126995
 Sum of Mulliken charges =  -0.00000

 Dipole moment (field-independent basis, Debye):
    X=             -1.1037    Y=              4.6647    Z=              2.4900  Tot=              5.4017
 Quadrupole moment (field-independent basis, Debye-Ang):
   XX=            -86.0554   YY=            -68.0366   ZZ=            -66.4543
   XY=             -1.0422   XZ=             -1.4998   YZ=             -0.5542

  Exact polarizability:  95.832  -4.672  90.755   1.730  -0.863  63.700
 Approx polarizability: 143.478 -11.919 157.755   4.615  -7.473 106.295

                      1                      2                      3
                      A                      A                      A
 Frequencies --     57.6395                74.7226                89.6947
 Red. masses --      9.5849                 8.3887                10.4383
 Frc consts  --      0.0188                 0.0276                 0.0495
 IR Inten    --      2.7346                 0.6656                 0.9003

                      4                      5                      6
                      A                      A                      A
 Frequencies --    109.4663               193.3252               253.9109
 Red. masses --      5.1791                 3.8817                 3.4530
 Frc consts  --      0.0366                 0.0855                 0.1312
 IR Inten    --      0.8905                 1.7233                 5.6632

                      7                      8                      9
                      A                      A                      A
 Frequencies --    285.0992               346.8703               400.6490
 Red. masses --      3.1485                 4.5312                 3.6468
 Frc consts  --      0.1508                 0.3212                 0.3449
 IR Inten    --      1.7315                 1.1323                 6.7968

                     10                     11                     12
                      A                      A                      A
 Frequencies --    419.2060               447.9487               514.2137
 Red. masses --      3.5978                 2.3055                 3.2021
 Frc consts  --      0.3725                 0.2726                 0.4989
 IR Inten    --      0.4341                16.9986                 1.8471

                     13                     14                     15
                      A                      A                      A
 Frequencies --    578.5887               606.7106               636.3428
 Red. masses --      6.6978                 3.9937                 5.8085
 Frc consts  --      1.3211                 0.8661                 1.3858
 IR Inten    --      7.3033                 4.5421                 8.0605

                     16                     17                     18
                      A                      A                      A
 Frequencies --    717.2721               769.5836               776.6214
 Red. masses --      3.5209                11.4994                 9.9505
 Frc consts  --      1.0673                 4.0127                 3.5360
 IR Inten    --      3.3835                 4.3426                27.8252

                     19                     20                     21
                      A                      A                      A
 Frequencies --    825.7039               855.3123               888.9109
 Red. masses --      5.8036                 4.6931                 1.4685
 Frc consts  --      2.3313                 2.0228                 0.6836
 IR Inten    --      4.9759                24.2932                37.6558

                     22                     23                     24
                      A                      A                      A
 Frequencies --    901.1758               947.6057               976.2305
 Red. masses --      3.0499                 2.7145                 3.0224
 Frc consts  --      1.4593                 1.4361                 1.6971
 IR Inten    --     13.8486                48.5410                83.1924

                     25                     26                     27
                      A                      A                      A
 Frequencies --   1004.6621              1057.0243              1077.8125
 Red. masses --      2.9138                 1.7680                 2.1567
 Frc consts  --      1.7328                 1.1638                 1.4762
 IR Inten    --    167.5776                64.9126                20.5066

                     28                     29                     30
                      A                      A                      A
 Frequencies --   1161.6224              1191.9850              1227.0115
 Red. masses --      2.3418                 2.3932                 1.4602
 Frc consts  --      1.8618                 2.0034                 1.2953
 IR Inten    --      3.9267                13.7309                21.8566

                     31                     32                     33
                      A                      A                      A
 Frequencies --   1270.1464              1288.2529              1311.7348
 Red. masses --      3.4208                 1.8513                 2.4536
 Frc consts  --      3.2515                 1.8102                 2.4874
 IR Inten    --      6.9931                58.1905               303.6528

                     34                     35                     36
                      A                      A                      A
 Frequencies --   1335.0277              1348.1432              1356.4263
 Red. masses --      1.8606                 1.5002                 2.2203
 Frc consts  --      1.9538                 1.6065                 2.4069
 IR Inten    --     95.2728                34.2818               109.1993

                     37                     38                     39
                      A                      A                      A
 Frequencies --   1367.0995              1393.4409              1407.8767
 Red. masses --      1.3107                 1.3703                 1.6288
 Frc consts  --      1.4433                 1.5676                 1.9021
 IR Inten    --      8.5168                 3.7301                24.2205

                     40                     41                     42
                      A                      A                      A
 Frequencies --   1431.4682              1489.7332              1495.9491
 Red. masses --      1.7856                 1.0985                 1.0958
 Frc consts  --      2.1557                 1.4364                 1.4448
 IR Inten    --     81.7916                15.3670                18.6584

                     43                     44                     45
                      A                      A                      A
 Frequencies --   1502.5302              1522.1420              1662.3199
 Red. masses --      1.1060                 1.1004                14.0791
 Frc consts  --      1.4712                 1.5021                22.9221
 IR Inten    --     17.4572                12.8081               207.9524

                     46                     47                     48
                      A                      A                      A
 Frequencies --   1682.2798              2999.4257              3039.9714
 Red. masses --     12.5645                 1.0737                 1.0738
 Frc consts  --     20.9503                 5.6911                 5.8468
 IR Inten    --    286.7772                31.9609                22.0950

                     49                     50                     51
                      A                      A                      A
 Frequencies --   3067.1889              3071.8379              3118.6923
 Red. masses --      1.0679                 1.0657                 1.1048
 Frc consts  --      5.9194                 5.9247                 6.3308
 IR Inten    --     14.1088                20.5901                18.9572

                     52                     53                     54
                      A                      A                      A
 Frequencies --   3168.5531              3185.5689              3232.2417
 Red. masses --      1.0911                 1.0945                 1.0918
 Frc consts  --      6.4540                 6.5437                 6.7203
 IR Inten    --      1.4688                 0.6906                 7.3509

 - Thermochemistry -
 -------------------
 Temperature   298.150 Kelvin.  Pressure   1.00000 Atm.
 Atom     1 has atomic number  6 and mass  12.00000

 Molecular mass:   176.05455 amu.
 Principal axes and moments of inertia in atomic units:
                           1         2         3
     Eigenvalues --  1101.559522511.911123184.47112
           X            0.99994  -0.01099  -0.00265
           Y            0.01097   0.99991  -0.00735
           Z            0.00273   0.00732   0.99997
 This molecule is an asymmetric top.
 Rotational symmetry number  1.
 Warning -- assumption of classical behavior for rotation
           may cause significant error
 Rotational temperatures (Kelvin)      0.07863     0.03448     0.02720
 Rotational constants (GHZ):           1.63835     0.71847     0.56673
 Zero-point vibrational energy     401592.2 (Joules/Mol)
                                   95.98284 (Kcal/Mol)
 Warning -- explicit consideration of  14 degrees of freedom as
           vibrations may cause significant error
 Vibrational temperatures:     82.93   107.51   129.05   157.50   278.15
          (Kelvin)            365.32   410.19   499.07   576.44   603.14
                              644.50   739.84   832.46   872.92   915.55
                             1031.99  1107.26  1117.38  1188.00  1230.60
                             1278.94  1296.59  1363.39  1404.58  1445.48
                             1520.82  1550.73  1671.31  1715.00  1765.39
                             1827.46  1853.51  1887.29  1920.80  1939.68
                             1951.59  1966.95  2004.85  2025.62  2059.56
                             2143.39  2152.33  2161.80  2190.02  2391.70
                             2420.42  4315.50  4373.84  4413.00  4419.68
                             4487.10  4558.84  4583.32  4650.47

 Zero-point correction=                           0.152958 (Hartree/Particle)
 Thermal correction to Energy=                    0.163142
 Thermal correction to Enthalpy=                  0.164086
 Thermal correction to Gibbs Free Energy=         0.116146
 Sum of electronic and zero-point Energies=           -676.765805
 Sum of electronic and thermal Energies=              -676.755622
 Sum of electronic and thermal Enthalpies=            -676.754678
 Sum of electronic and thermal Free Energies=         -676.802617

                     E (Thermal)             CV                S
                      KCal/Mol        Cal/Mol-Kelvin    Cal/Mol-Kelvin
 Total                  102.373             37.702            100.897
 Electronic               0.000              0.000              0.000
 Translational            0.889              2.981             41.404
 Rotational               0.889              2.981             30.556
 Vibrational            100.595             31.741             28.937
 Vibration     1          0.596              1.974              4.536
 Vibration     2          0.599              1.966              4.025
 Vibration     3          0.602              1.956              3.667
 Vibration     4          0.606              1.942              3.278
 Vibration     5          0.635              1.849              2.196
 Vibration     6          0.665              1.756              1.703
 Vibration     7          0.683              1.701              1.503
 Vibration     8          0.725              1.582              1.180
 Vibration     9          0.766              1.469              0.960
 Vibration    10          0.782              1.429              0.895
 Vibration    11          0.807              1.365              0.802
 Vibration    12          0.869              1.219              0.624
 Vibration    13          0.935              1.078              0.488
 Vibration    14          0.965              1.018              0.438

 Optimization completed.
    -- Stationary point found.
 Normal termination of Gaussian 09 at Fri Aug 20 16:04:35 2021.
