 Gaussian 09, Revision E.01,
 Gaussian 09:  ES64L-G09RevE.01 30-Nov-2015

 -------------------------
 #P OPT Freq B3LYP/6-31G**
 -------------------------

 ------
 YUYCOK
 ------
 Symbolic Z-matrix:
 Charge =  0 Multiplicity = 1

 SCF Done:  E(RB3LYP) =  -603.052095067     A.U. after   16 cycles
 SCF Done:  E(RB3LYP) =  -603.127491949     A.U. after   14 cycles
 SCF Done:  E(RB3LYP) =  -603.144174139     A.U. after   17 cycles
 SCF Done:  E(RB3LYP) =  -603.143934116     A.U. after   17 cycles
 SCF Done:  E(RB3LYP) =  -603.148342843     A.U. after   12 cycles
 SCF Done:  E(RB3LYP) =  -603.147440341     A.U. after   15 cycles
 SCF Done:  E(RB3LYP) =  -603.149598809     A.U. after   11 cycles
 SCF Done:  E(RB3LYP) =  -603.150022201     A.U. after   13 cycles
 SCF Done:  E(RB3LYP) =  -603.150072432     A.U. after   12 cycles
 SCF Done:  E(RB3LYP) =  -603.150080198     A.U. after   10 cycles
 SCF Done:  E(RB3LYP) =  -603.150083067     A.U. after   10 cycles
 SCF Done:  E(RB3LYP) =  -603.150083524     A.U. after    9 cycles
 Optimization completed.
    -- Stationary point found.
 Normal termination of Gaussian 09 at Fri Aug 20 15:38:26 2021.

 ----------------------------------------------------------------------
 #P Geom=AllCheck Guess=TCheck SCRF=Check GenChk RB3LYP/6-31G(d,p) Freq
 ----------------------------------------------------------------------

 Structure from the checkpoint file:  "/public/home/users/caep010/.cache/gau_scr/Gau-30702.chk"
 ------
 YUYCOK
 ------
 Charge =  0 Multiplicity = 1

                         Standard orientation:
 ---------------------------------------------------------------------
 Center     Atomic      Atomic             Coordinates (Angstroms)
 Number     Number       Type             X           Y           Z
 ---------------------------------------------------------------------
      1          8           0        0.032351   -0.323140   -0.000220
      2          6           0       -0.845278    0.719547   -0.000326
      3          6           0       -0.158942    1.916862   -0.000080
      4          1           0       -0.601884    2.901986   -0.000239
      5          6           0        1.221691    1.594329   -0.000026
      6          1           0        2.073243    2.255841    0.000334
      7          6           0        1.267303    0.227138    0.000015
      8          7           0        2.387936   -0.658790    0.000041
      9          8           0        3.498418   -0.116154    0.000906
     10          8           0        2.170953   -1.868918   -0.000818
     11          6           0       -2.263699    0.455223   -0.000430
     12          1           0       -2.929902    1.319477   -0.001297
     13          7           0       -2.717707   -0.746921    0.000546
     14          8           0       -4.106563   -0.745153    0.000254
     15          1           0       -4.320775   -1.689007    0.001198
 ---------------------------------------------------------------------

 SCF Done:  E(RB3LYP) =  -603.150083524     A.U. after    1 cycles

 The electronic state is 1-A.
 Alpha  occ. eigenvalues --  -19.25732 -19.21645 -19.18275 -19.18053 -14.57980
 Alpha  occ. eigenvalues --  -14.41442 -10.30819 -10.29073 -10.25481 -10.23672
 Alpha  occ. eigenvalues --  -10.23043  -1.22934  -1.15789  -1.11096  -1.05394
 Alpha  occ. eigenvalues --   -0.89588  -0.84961  -0.82739  -0.73244  -0.64878
 Alpha  occ. eigenvalues --   -0.62859  -0.58883  -0.55944  -0.55135  -0.54510
 Alpha  occ. eigenvalues --   -0.50887  -0.50622  -0.48560  -0.45957  -0.45331
 Alpha  occ. eigenvalues --   -0.44130  -0.43286  -0.41569  -0.32628  -0.31682
 Alpha  occ. eigenvalues --   -0.31141  -0.30755  -0.30415  -0.29424  -0.24621
 Alpha virt. eigenvalues --   -0.10125  -0.04539   0.04168   0.05616   0.06916
 Alpha virt. eigenvalues --    0.07989   0.11002   0.12641   0.14107   0.16252
 Alpha virt. eigenvalues --    0.18183   0.20654   0.24841   0.26308   0.32619

 Mulliken charges:
               1
     1  O   -0.442180
     2  C    0.351098
     3  C   -0.150751
     4  H    0.123857
     5  C   -0.083454
     6  H    0.147021
     7  C    0.517365
     8  N    0.334189
     9  O   -0.403988
    10  O   -0.384147
    11  C    0.091455
    12  H    0.123208
    13  N   -0.173718
    14  O   -0.395208
    15  H    0.345255
 Sum of Mulliken charges =  -0.00000

 Dipole moment (field-independent basis, Debye):
    X=             -3.9199    Y=              3.3242    Z=              0.0002  Tot=              5.1396
 Quadrupole moment (field-independent basis, Debye-Ang):
   XX=            -64.7343   YY=            -55.1270   ZZ=            -60.4566
   XY=              8.4993   XZ=             -0.0056   YZ=             -0.0063

  Exact polarizability: 150.900   9.970  93.369   0.005  -0.004  30.327
 Approx polarizability: 244.618  32.952 182.876   0.020   0.005  46.898

                      1                      2                      3
                      A                      A                      A
 Frequencies --     63.5498                98.3838               121.1926
 Red. masses --     11.2088                 8.5916                 5.8007
 Frc consts  --      0.0267                 0.0490                 0.0502
 IR Inten    --      0.0283                 0.2455                 1.2407

                      4                      5                      6
                      A                      A                      A
 Frequencies --    140.7025               210.0658               234.0996
 Red. masses --      3.8878                 9.5241                 8.2424
 Frc consts  --      0.0453                 0.2476                 0.2661
 IR Inten    --      0.6150                 0.2680                 2.3636

                      7                      8                      9
                      A                      A                      A
 Frequencies --    364.7204               378.6802               450.7852
 Red. masses --     10.0927                 5.5194                 6.4400
 Frc consts  --      0.7910                 0.4663                 0.7710
 IR Inten    --      0.4163                 4.2691                 4.5344

                     10                     11                     12
                      A                      A                      A
 Frequencies --    467.3449               473.9784               557.1368
 Red. masses --      1.1076                 7.5932                 6.8673
 Frc consts  --      0.1425                 1.0051                 1.2559
 IR Inten    --    135.4620                10.1697                 0.5837

                     13                     14                     15
                      A                      A                      A
 Frequencies --    596.1246               690.1722               744.8046
 Red. masses --      5.0607                 5.5131                 8.3286
 Frc consts  --      1.0596                 1.5473                 2.7221
 IR Inten    --      1.5022                 1.2676                17.1116

                     16                     17                     18
                      A                      A                      A
 Frequencies --    814.6639               817.9102               832.3965
 Red. masses --      8.0750                 1.2954                 6.2239
 Frc consts  --      3.1576                 0.5106                 2.5408
 IR Inten    --     18.1210                34.5505                48.2313

                     19                     20                     21
                      A                      A                      A
 Frequencies --    905.0331               957.7985               986.2101
 Red. masses --      1.3604                 1.4322                 7.6294
 Frc consts  --      0.6565                 0.7741                 4.3720
 IR Inten    --      2.1072                13.6310                46.0427

                     22                     23                     24
                      A                      A                      A
 Frequencies --   1005.7986              1032.3864              1046.6162
 Red. masses --      4.6992                 8.4958                 1.2898
 Frc consts  --      2.8009                 5.3350                 0.8324
 IR Inten    --     12.1626               257.4776                45.4117

                     25                     26                     27
                      A                      A                      A
 Frequencies --   1200.8619              1271.8149              1293.7727
 Red. masses --      1.6980                 3.9293                 1.3954
 Frc consts  --      1.4427                 3.7446                 1.3761
 IR Inten    --     18.6361                33.1607                 9.0209

                     28                     29                     30
                      A                      A                      A
 Frequencies --   1295.5373              1398.4879              1427.1006
 Red. masses --      3.9416                 7.5562                 2.8982
 Frc consts  --      3.8979                 8.7070                 3.4777
 IR Inten    --    225.6638               346.2055                64.8342

                     31                     32                     33
                      A                      A                      A
 Frequencies --   1438.1395              1547.1665              1613.8213
 Red. masses --      2.3441                 5.6673                 6.4854
 Frc consts  --      2.8565                 7.9929                 9.9517
 IR Inten    --     12.5307               119.2072                29.4931

                     34                     35                     36
                      A                      A                      A
 Frequencies --   1638.3429              1693.2949              3140.4990
 Red. masses --     11.2918                 6.7551                 1.0897
 Frc consts  --     17.8577                11.4117                 6.3323
 IR Inten    --    155.9917                13.9294                 8.9568

                     37                     38                     39
                      A                      A                      A
 Frequencies --   3274.6084              3303.7757              3803.3684
 Red. masses --      1.0959                 1.1005                 1.0677
 Frc consts  --      6.9239                 7.0769                 9.1001
 IR Inten    --      0.8121                 4.1007               144.0666

 - Thermochemistry -
 -------------------
 Temperature   298.150 Kelvin.  Pressure   1.00000 Atm.
 Atom     1 has atomic number  8 and mass  15.99491

 Molecular mass:   156.01711 amu.
 Principal axes and moments of inertia in atomic units:
                           1         2         3
     Eigenvalues --   651.666173084.448683736.11459
           X            0.99996   0.00900  -0.00000
           Y           -0.00900   0.99996  -0.00002
           Z            0.00000   0.00002   1.00000
 This molecule is an asymmetric top.
 Rotational symmetry number  1.
 Warning -- assumption of classical behavior for rotation
           may cause significant error
 Rotational temperatures (Kelvin)      0.13291     0.02808     0.02318
 Rotational constants (GHZ):           2.76943     0.58511     0.48305
 Zero-point vibrational energy     259177.8 (Joules/Mol)
                                   61.94498 (Kcal/Mol)
 Warning -- explicit consideration of  13 degrees of freedom as
           vibrations may cause significant error
 Vibrational temperatures:     91.43   141.55   174.37   202.44   302.24
          (Kelvin)            336.82   524.75   544.84   648.58   672.40
                              681.95   801.59   857.69   993.00  1071.61
                             1172.12  1176.79  1197.63  1302.14  1378.06
                             1418.93  1447.12  1485.37  1505.85  1727.77
                             1829.86  1861.45  1863.99  2012.11  2053.28
                             2069.16  2226.02  2321.93  2357.21  2436.27
                             4518.47  4711.43  4753.39  5472.19

 Zero-point correction=                           0.098716 (Hartree/Particle)
 Thermal correction to Energy=                    0.108030
 Thermal correction to Enthalpy=                  0.108974
 Thermal correction to Gibbs Free Energy=         0.063179
 Sum of electronic and zero-point Energies=           -603.051368
 Sum of electronic and thermal Energies=              -603.042053
 Sum of electronic and thermal Enthalpies=            -603.041109
 Sum of electronic and thermal Free Energies=         -603.086904

                     E (Thermal)             CV                S
                      KCal/Mol        Cal/Mol-Kelvin    Cal/Mol-Kelvin
 Total                   67.790             33.513             96.384
 Electronic               0.000              0.000              0.000
 Translational            0.889              2.981             41.044
 Rotational               0.889              2.981             30.397
 Vibrational             66.013             27.551             24.943
 Vibration     1          0.597              1.972              4.344
 Vibration     2          0.604              1.950              3.486
 Vibration     3          0.609              1.932              3.081
 Vibration     4          0.615              1.913              2.794
 Vibration     5          0.642              1.825              2.043
 Vibration     6          0.654              1.789              1.847
 Vibration     7          0.738              1.545              1.102
 Vibration     8          0.749              1.516              1.044
 Vibration     9          0.810              1.359              0.793
 Vibration    10          0.825              1.322              0.745
 Vibration    11          0.831              1.308              0.726
 Vibration    12          0.913              1.124              0.530
 Vibration    13          0.954              1.040              0.456

 Optimization completed.
    -- Stationary point found.
 Normal termination of Gaussian 09 at Fri Aug 20 15:38:44 2021.
