 Gaussian 09, Revision E.01,
 Gaussian 09:  ES64L-G09RevE.01 30-Nov-2015

 -------------------------
 #P OPT Freq B3LYP/6-31G**
 -------------------------

 ------
 VIKVUG
 ------
 Symbolic Z-matrix:
 Charge =  0 Multiplicity = 1

 SCF Done:  E(RB3LYP) =  -571.700869600     A.U. after   16 cycles
 SCF Done:  E(RB3LYP) =  -571.816012419     A.U. after   14 cycles
 SCF Done:  E(RB3LYP) =  -571.897171700     A.U. after   14 cycles
 SCF Done:  E(RB3LYP) =  -571.898696677     A.U. after   13 cycles
 SCF Done:  E(RB3LYP) =  -571.899085830     A.U. after   13 cycles
 SCF Done:  E(RB3LYP) =  -571.897457117     A.U. after   15 cycles
 SCF Done:  E(RB3LYP) =  -571.899211615     A.U. after   10 cycles
 SCF Done:  E(RB3LYP) =  -571.899464124     A.U. after   12 cycles
 SCF Done:  E(RB3LYP) =  -571.899624150     A.U. after   12 cycles
 SCF Done:  E(RB3LYP) =  -571.899672956     A.U. after   13 cycles
 SCF Done:  E(RB3LYP) =  -571.899716746     A.U. after    9 cycles
 SCF Done:  E(RB3LYP) =  -571.899717756     A.U. after    9 cycles
 SCF Done:  E(RB3LYP) =  -571.899718170     A.U. after   10 cycles
 SCF Done:  E(RB3LYP) =  -571.899719446     A.U. after   11 cycles
 SCF Done:  E(RB3LYP) =  -571.899720372     A.U. after   11 cycles
 SCF Done:  E(RB3LYP) =  -571.899720363     A.U. after   10 cycles
 SCF Done:  E(RB3LYP) =  -571.899720490     A.U. after    9 cycles
 SCF Done:  E(RB3LYP) =  -571.899720446     A.U. after    7 cycles
 SCF Done:  E(RB3LYP) =  -571.899720659     A.U. after    7 cycles
 Optimization completed.
    -- Stationary point found.
 Normal termination of Gaussian 09 at Fri Aug 20 15:54:14 2021.

 ----------------------------------------------------------------------
 #P Geom=AllCheck Guess=TCheck SCRF=Check GenChk RB3LYP/6-31G(d,p) Freq
 ----------------------------------------------------------------------

 Structure from the checkpoint file:  "/public/home/users/caep010/.cache/gau_scr/Gau-65115.chk"
 ------
 VIKVUG
 ------
 Charge =  0 Multiplicity = 1

                         Standard orientation:
 ---------------------------------------------------------------------
 Center     Atomic      Atomic             Coordinates (Angstroms)
 Number     Number       Type             X           Y           Z
 ---------------------------------------------------------------------
      1          6           0        0.347746    0.308266   -0.000483
      2          6           0       -0.876309   -0.309986   -0.753894
      3          6           0       -1.751890    0.675121   -1.524537
      4          6           0        0.499264    1.743912   -0.001023
      5          6           0       -0.875324   -0.309547    0.754797
      6          6           0       -0.707323   -1.602951    1.543587
      7          7           0        0.525957    2.905306   -0.001457
      8          7           0        1.692501   -0.346020   -0.000600
      9          8           0        1.767966   -1.572619   -0.001893
     10          8           0        2.659181    0.409184    0.000723
     11          6           0       -0.709703   -1.603784   -1.542284
     12          1           0       -0.282815   -1.387930   -2.526785
     13          1           0       -1.825126    1.659181   -1.064363
     14          1           0       -0.279871   -1.386401    2.527685
     15          1           0       -0.076728   -2.341891    1.059266
     16          1           0       -1.700245   -2.037234    1.703954
     17          1           0       -2.762079    0.261337   -1.612472
     18          6           0       -1.749965    0.675792    1.526188
     19          1           0       -1.823920    1.659638    1.065617
     20          1           0       -1.703064   -2.037396   -1.701806
     21          1           0       -0.079297   -2.342999   -1.058169
     22          1           0       -1.357775    0.811074   -2.536251
     23          1           0       -1.354468    0.812223    2.537290
     24          1           0       -2.759961    0.261945    1.615699
 ---------------------------------------------------------------------

 SCF Done:  E(RB3LYP) =  -571.899720659     A.U. after    1 cycles

 The electronic state is 1-A.
 Alpha  occ. eigenvalues --  -19.19652 -19.19537 -14.58860 -14.34613 -10.29754
 Alpha  occ. eigenvalues --  -10.25519 -10.25493 -10.24171 -10.20507 -10.20506
 Alpha  occ. eigenvalues --  -10.20165 -10.20163  -1.24101  -1.06797  -0.93909
 Alpha  occ. eigenvalues --   -0.90353  -0.79834  -0.78635  -0.73002  -0.70334
 Alpha  occ. eigenvalues --   -0.70121  -0.64083  -0.56820  -0.55958  -0.53045
 Alpha  occ. eigenvalues --   -0.52253  -0.50705  -0.48311  -0.45611  -0.45428
 Alpha  occ. eigenvalues --   -0.42363  -0.42182  -0.41100  -0.40971  -0.39796
 Alpha  occ. eigenvalues --   -0.39515  -0.37305  -0.36958  -0.35772  -0.35689
 Alpha  occ. eigenvalues --   -0.33084  -0.32107  -0.30541  -0.30102  -0.29557
 Alpha virt. eigenvalues --   -0.08018   0.00276   0.01168   0.06516   0.09854
 Alpha virt. eigenvalues --    0.10201   0.10611   0.11106   0.11778   0.13078
 Alpha virt. eigenvalues --    0.15426   0.16267   0.16320   0.16706   0.17615

 Mulliken charges:
               1
     1  C    0.111505
     2  C    0.052382
     3  C   -0.321381
     4  C    0.354360
     5  C    0.052321
     6  C   -0.327372
     7  N   -0.488427
     8  N    0.459945
     9  O   -0.390270
    10  O   -0.380048
    11  C   -0.327267
    12  H    0.122211
    13  H    0.129825
    14  H    0.122212
    15  H    0.146316
    16  H    0.117665
    17  H    0.120182
    18  C   -0.321350
    19  H    0.129825
    20  H    0.117606
    21  H    0.146303
    22  H    0.126630
    23  H    0.126631
    24  H    0.120195
 Sum of Mulliken charges =  -0.00000

 Dipole moment (field-independent basis, Debye):
    X=             -4.7314    Y=             -2.8413    Z=              0.0032  Tot=              5.5190
 Quadrupole moment (field-independent basis, Debye-Ang):
   XX=            -76.1434   YY=            -83.1867   ZZ=            -65.8258
   XY=             -0.7419   XZ=              0.0009   YZ=              0.0010

  Exact polarizability: 101.686   6.242 110.615   0.005   0.004  87.088
 Approx polarizability: 154.994  18.766 196.209   0.013   0.029 120.272

                      1                      2                      3
                      A                      A                      A
 Frequencies --     25.6667                83.6653               132.9187
 Red. masses --      6.4829                 1.9583                 1.4645
 Frc consts  --      0.0025                 0.0081                 0.0152
 IR Inten    --      0.0779                 0.0755                 0.0469

                      4                      5                      6
                      A                      A                      A
 Frequencies --    139.3705               163.5623               165.5190
 Red. masses --      2.0639                 3.1741                 1.4373
 Frc consts  --      0.0236                 0.0500                 0.0232
 IR Inten    --      2.3064                 3.7482                 1.1697

                      7                      8                      9
                      A                      A                      A
 Frequencies --    189.0807               206.0921               230.0603
 Red. masses --      1.6969                 1.9926                 1.8204
 Frc consts  --      0.0357                 0.0499                 0.0568
 IR Inten    --      0.9442                 0.5305                 1.1078

                     10                     11                     12
                      A                      A                      A
 Frequencies --    247.5993               271.1301               312.0968
 Red. masses --      2.2190                 4.6598                 1.9686
 Frc consts  --      0.0801                 0.2018                 0.1130
 IR Inten    --      5.1849                 0.2575                 1.5437

                     13                     14                     15
                      A                      A                      A
 Frequencies --    351.7430               385.6172               392.0626
 Red. masses --      3.6181                 3.2240                 2.8486
 Frc consts  --      0.2637                 0.2825                 0.2580
 IR Inten    --      0.5443                 0.4187                 0.4558

                     16                     17                     18
                      A                      A                      A
 Frequencies --    442.3321               460.7430               476.1673
 Red. masses --      3.0156                 5.5306                 3.2880
 Frc consts  --      0.3476                 0.6917                 0.4392
 IR Inten    --      0.7712                 2.2672                 0.8558

                     19                     20                     21
                      A                      A                      A
 Frequencies --    524.3758               558.0637               590.8514
 Red. masses --     10.0829                 5.1186                 3.1771
 Frc consts  --      1.6335                 0.9392                 0.6535
 IR Inten    --      1.0059                 9.2607                 0.9074

                     22                     23                     24
                      A                      A                      A
 Frequencies --    632.8943               666.6724               819.0674
 Red. masses --      6.9614                 3.2555                 9.0292
 Frc consts  --      1.6429                 0.8525                 3.5689
 IR Inten    --      0.1676                11.2094                 2.2666

                     25                     26                     27
                      A                      A                      A
 Frequencies --    822.5609               921.9541               954.6000
 Red. masses --     10.6741                 2.6805                 4.1418
 Frc consts  --      4.2552                 1.3424                 2.2237
 IR Inten    --     17.0714                 2.3301                66.7339

                     28                     29                     30
                      A                      A                      A
 Frequencies --    965.5779               974.8817              1006.1884
 Red. masses --      1.3703                 1.4552                 1.3727
 Frc consts  --      0.7527                 0.8148                 0.8188
 IR Inten    --      0.0524                 6.4490                 1.3971

                     31                     32                     33
                      A                      A                      A
 Frequencies --   1031.4924              1051.6751              1130.9332
 Red. masses --      1.3009                 1.8973                 3.6019
 Frc consts  --      0.8155                 1.2364                 2.7143
 IR Inten    --      0.0135                 7.1546                 3.9736

                     34                     35                     36
                      A                      A                      A
 Frequencies --   1137.8877              1141.8667              1202.7675
 Red. masses --      1.7719                 1.7772                 2.0481
 Frc consts  --      1.3517                 1.3652                 1.7457
 IR Inten    --      0.1508                69.0550                17.5469

                     37                     38                     39
                      A                      A                      A
 Frequencies --   1232.0241              1275.5928              1381.6696
 Red. masses --      5.0874                 3.8898                 6.0672
 Frc consts  --      4.5497                 3.7291                 6.8241
 IR Inten    --      3.8689                 0.0001               126.0796

                     40                     41                     42
                      A                      A                      A
 Frequencies --   1402.5065              1416.9321              1428.1433
 Red. masses --      4.8701                 1.2849                 1.2310
 Frc consts  --      5.6442                 1.5199                 1.4793
 IR Inten    --     43.4295                 0.4890                11.3451

                     43                     44                     45
                      A                      A                      A
 Frequencies --   1433.4234              1451.8404              1486.5611
 Red. masses --      1.2210                 1.2407                 1.0457
 Frc consts  --      1.4781                 1.5409                 1.3615
 IR Inten    --      3.3122                15.6196                 0.0938

                     46                     47                     48
                      A                      A                      A
 Frequencies --   1493.1881              1498.2027              1505.4322
 Red. masses --      1.0447                 1.0528                 1.0458
 Frc consts  --      1.3724                 1.3924                 1.3965
 IR Inten    --      0.2218                17.0308                 4.6771

                     49                     50                     51
                      A                      A                      A
 Frequencies --   1516.0642              1516.9204              1528.9431
 Red. masses --      1.0485                 1.0487                 1.1120
 Frc consts  --      1.4200                 1.4218                 1.5316
 IR Inten    --      1.7781                 8.9767                19.6362

                     52                     53                     54
                      A                      A                      A
 Frequencies --   1540.2964              1650.4408              2358.8448
 Red. masses --      1.0737                12.1997                12.6822
 Frc consts  --      1.5009                19.5794                41.5762
 IR Inten    --     12.2123               218.9183                12.5899

                     55                     56                     57
                      A                      A                      A
 Frequencies --   3052.4954              3054.5921              3057.9236
 Red. masses --      1.0419                 1.0429                 1.0409
 Frc consts  --      5.7197                 5.7334                 5.7347
 IR Inten    --      2.6367                10.2105                42.8194

                     58                     59                     60
                      A                      A                      A
 Frequencies --   3061.5997              3111.4726              3112.6458
 Red. masses --      1.0420                 1.1017                 1.1017
 Frc consts  --      5.7547                 6.2842                 6.2888
 IR Inten    --     26.0480                 3.7140                 7.3135

                     61                     62                     63
                      A                      A                      A
 Frequencies --   3119.9132              3121.0373              3167.5391
 Red. masses --      1.1015                 1.1017                 1.0995
 Frc consts  --      6.3172                 6.3230                 6.4995
 IR Inten    --     16.7710                27.1158                 8.0416

                     64                     65                     66
                      A                      A                      A
 Frequencies --   3180.6676              3206.4040              3216.8812
 Red. masses --      1.0963                 1.0957                 1.0931
 Frc consts  --      6.5345                 6.6370                 6.6648
 IR Inten    --     10.6449                 1.3624                 4.7565

 - Thermochemistry -
 -------------------
 Temperature   298.150 Kelvin.  Pressure   1.00000 Atm.
 Atom     1 has atomic number  6 and mass  12.00000

 Molecular mass:   168.08988 amu.
 Principal axes and moments of inertia in atomic units:
                           1         2         3
     Eigenvalues --  1688.736421835.543182323.53859
           X            0.99967  -0.02558   0.00006
           Y            0.02558   0.99967   0.00004
           Z           -0.00006  -0.00003   1.00000
 This molecule is an asymmetric top.
 Rotational symmetry number  1.
 Warning -- assumption of classical behavior for rotation
           may cause significant error
 Rotational temperatures (Kelvin)      0.05129     0.04719     0.03728
 Rotational constants (GHZ):           1.06869     0.98322     0.77672
 Zero-point vibrational energy     510745.2 (Joules/Mol)
                                  122.07104 (Kcal/Mol)
 Warning -- explicit consideration of  21 degrees of freedom as
           vibrations may cause significant error
 Vibrational temperatures:     36.93   120.38   191.24   200.52   235.33
          (Kelvin)            238.14   272.04   296.52   331.00   356.24
                              390.10   449.04   506.08   554.82   564.09
                              636.42   662.91   685.10   754.46   802.93
                              850.10   910.59   959.19  1178.45  1183.48
                             1326.48  1373.45  1389.25  1402.64  1447.68
                             1484.09  1513.12  1627.16  1637.16  1642.89
                             1730.51  1772.61  1835.29  1987.91  2017.89
                             2038.65  2054.78  2062.37  2088.87  2138.83
                             2148.36  2155.58  2165.98  2181.28  2182.51
                             2199.81  2216.14  2374.61  3393.85  4391.85
                             4394.87  4399.66  4404.95  4476.71  4478.40
                             4488.85  4490.47  4557.38  4576.27  4613.29
                             4628.37

 Zero-point correction=                           0.194533 (Hartree/Particle)
 Thermal correction to Energy=                    0.207792
 Thermal correction to Enthalpy=                  0.208736
 Thermal correction to Gibbs Free Energy=         0.155278
 Sum of electronic and zero-point Energies=           -571.705188
 Sum of electronic and thermal Energies=              -571.691929
 Sum of electronic and thermal Enthalpies=            -571.690985
 Sum of electronic and thermal Free Energies=         -571.744442

                     E (Thermal)             CV                S
                      KCal/Mol        Cal/Mol-Kelvin    Cal/Mol-Kelvin
 Total                  130.391             48.458            112.511
 Electronic               0.000              0.000              0.000
 Translational            0.889              2.981             41.266
 Rotational               0.889              2.981             30.355
 Vibrational            128.614             42.497             40.890
 Vibration     1          0.593              1.985              6.139
 Vibration     2          0.601              1.960              3.803
 Vibration     3          0.613              1.920              2.903
 Vibration     4          0.615              1.914              2.813
 Vibration     5          0.623              1.887              2.508
 Vibration     6          0.624              1.885              2.486
 Vibration     7          0.633              1.855              2.237
 Vibration     8          0.641              1.831              2.078
 Vibration     9          0.652              1.795              1.878
 Vibration    10          0.661              1.767              1.748
 Vibration    11          0.675              1.726              1.589
 Vibration    12          0.700              1.651              1.351
 Vibration    13          0.728              1.572              1.158
 Vibration    14          0.754              1.501              1.017
 Vibration    15          0.760              1.487              0.992
 Vibration    16          0.802              1.378              0.819
 Vibration    17          0.819              1.337              0.764
 Vibration    18          0.833              1.303              0.720
 Vibration    19          0.879              1.196              0.600
 Vibration    20          0.914              1.122              0.528
 Vibration    21          0.948              1.051              0.466

 Normal termination of Gaussian 09 at Fri Aug 20 15:54:57 2021.
