 Gaussian 09, Revision E.01,
 Gaussian 09:  ES64L-G09RevE.01 30-Nov-2015

 -------------------------
 #P OPT Freq B3LYP/6-31G**
 -------------------------

 ------
 BUGKIY
 ------
 Symbolic Z-matrix:
 Charge =  0 Multiplicity = 1

 SCF Done:  E(RB3LYP) =  -690.434954577     A.U. after   17 cycles
 SCF Done:  E(RB3LYP) =  -690.501339037     A.U. after   15 cycles
 SCF Done:  E(RB3LYP) =  -690.509976139     A.U. after   17 cycles
 SCF Done:  E(RB3LYP) =  -690.500986568     A.U. after   18 cycles
 SCF Done:  E(RB3LYP) =  -690.513504155     A.U. after   13 cycles
 SCF Done:  E(RB3LYP) =  -690.514677275     A.U. after   15 cycles
 SCF Done:  E(RB3LYP) =  -690.514525979     A.U. after   15 cycles
 SCF Done:  E(RB3LYP) =  -690.515295266     A.U. after   12 cycles
 SCF Done:  E(RB3LYP) =  -690.518989041     A.U. after   15 cycles
 SCF Done:  E(RB3LYP) =  -690.517350094     A.U. after   15 cycles
 SCF Done:  E(RB3LYP) =  -690.524389368     A.U. after   15 cycles
 SCF Done:  E(RB3LYP) =  -690.524967358     A.U. after   15 cycles
 SCF Done:  E(RB3LYP) =  -690.525321649     A.U. after   15 cycles
 SCF Done:  E(RB3LYP) =  -690.525378542     A.U. after   14 cycles
 SCF Done:  E(RB3LYP) =  -690.525403786     A.U. after   12 cycles
 SCF Done:  E(RB3LYP) =  -690.525410662     A.U. after   11 cycles
 SCF Done:  E(RB3LYP) =  -690.525413621     A.U. after   12 cycles
 SCF Done:  E(RB3LYP) =  -690.525414574     A.U. after   10 cycles
 SCF Done:  E(RB3LYP) =  -690.525415013     A.U. after   10 cycles
 Optimization completed.
    -- Stationary point found.
 Normal termination of Gaussian 09 at Fri Aug 20 15:42:26 2021.

 ----------------------------------------------------------------------
 #P Geom=AllCheck Guess=TCheck SCRF=Check GenChk RB3LYP/6-31G(d,p) Freq
 ----------------------------------------------------------------------

 Structure from the checkpoint file:  "/public/home/users/caep010/.cache/gau_scr/Gau-99271.chk"
 ------
 BUGKIY
 ------
 Charge =  0 Multiplicity = 1

                         Standard orientation:
 ---------------------------------------------------------------------
 Center     Atomic      Atomic             Coordinates (Angstroms)
 Number     Number       Type             X           Y           Z
 ---------------------------------------------------------------------
      1          7           0       -0.252169   -0.907533    0.004647
      2          6           0       -1.210366    0.042524   -0.001188
      3          7           0       -2.624371   -0.275523   -0.017071
      4          8           0       -3.385426    0.696744   -0.013653
      5          8           0       -2.952569   -1.453232   -0.031075
      6          6           0       -0.687340    1.323461   -0.004732
      7          7           0        0.659953    1.144338    0.013064
      8          7           0        1.564517    2.224124    0.039044
      9          1           0        1.827939    2.380574    1.012228
     10          1           0        2.401776    1.899187   -0.441574
     11          6           0        0.867397   -0.226019    0.022994
     12          7           0        2.178301   -0.831870   -0.013083
     13          8           0        2.252003   -2.035512    0.163005
     14          8           0        3.137057   -0.069899   -0.222997
     15          1           0       -1.139992    2.300887   -0.021544
 ---------------------------------------------------------------------

 SCF Done:  E(RB3LYP) =  -690.525415013     A.U. after    1 cycles

 The electronic state is 1-A.
 Alpha  occ. eigenvalues --  -19.21901 -19.21696 -19.19597 -19.19292 -14.61422
 Alpha  occ. eigenvalues --  -14.58932 -14.49783 -14.42378 -14.39387 -10.34187
 Alpha  occ. eigenvalues --  -10.30041 -10.29064  -1.26431  -1.24024  -1.11776
 Alpha  occ. eigenvalues --   -1.08998  -1.06773  -1.01154  -0.88369  -0.86458
 Alpha  occ. eigenvalues --   -0.79251  -0.71837  -0.65742  -0.62189  -0.59854
 Alpha  occ. eigenvalues --   -0.58414  -0.56229  -0.55938  -0.54984  -0.54585
 Alpha  occ. eigenvalues --   -0.53565  -0.52171  -0.50032  -0.47567  -0.38080
 Alpha  occ. eigenvalues --   -0.35524  -0.34718  -0.34320  -0.33034  -0.32176
 Alpha  occ. eigenvalues --   -0.32030  -0.31350  -0.30550  -0.29864
 Alpha virt. eigenvalues --   -0.12327  -0.09537  -0.00752   0.03867   0.04061
 Alpha virt. eigenvalues --    0.08106   0.10261   0.12303   0.12576   0.14517
 Alpha virt. eigenvalues --    0.19076   0.21410   0.23748   0.26098   0.29096

 Mulliken charges:
               1
     1  N   -0.430051
     2  C    0.385682
     3  N    0.357440
     4  O   -0.400409
     5  O   -0.364210
     6  C    0.171112
     7  N   -0.396225
     8  N   -0.421375
     9  H    0.293339
    10  H    0.306453
    11  C    0.711994
    12  N    0.366746
    13  O   -0.340487
    14  O   -0.422792
    15  H    0.182783
 Sum of Mulliken charges =  -0.00000

 Dipole moment (field-independent basis, Debye):
    X=              2.8451    Y=              4.8922    Z=              0.9317  Tot=              5.7355
 Quadrupole moment (field-independent basis, Debye-Ang):
   XX=            -81.5781   YY=            -69.5825   ZZ=            -61.6353
   XY=              3.8579   XZ=              1.6397   YZ=              2.9796

  Exact polarizability: 117.793  -0.069  93.321  -0.219  -0.425  34.472
 Approx polarizability: 184.619   1.289 201.996  -2.887  -5.470  54.566

                      1                      2                      3
                      A                      A                      A
 Frequencies --     56.6109                65.0857               127.9717
 Red. masses --     15.6837                12.0012                 9.5618
 Frc consts  --      0.0296                 0.0300                 0.0923
 IR Inten    --      0.1892                 2.4345                 1.6845

                      4                      5                      6
                      A                      A                      A
 Frequencies --    153.0697               166.8873               205.4985
 Red. masses --     12.8851                 1.0954                 4.3970
 Frc consts  --      0.1779                 0.0180                 0.1094
 IR Inten    --      3.0857                48.7075                 8.5126

                      7                      8                      9
                      A                      A                      A
 Frequencies --    273.2138               315.7717               353.5136
 Red. masses --      7.2534                 7.8401                13.6716
 Frc consts  --      0.3190                 0.4606                 1.0067
 IR Inten    --      3.4858                 1.9741                 0.1487

                     10                     11                     12
                      A                      A                      A
 Frequencies --    358.6737               467.4175               532.5832
 Red. masses --      6.5678                 9.9691                 9.5687
 Frc consts  --      0.4978                 1.2833                 1.5991
 IR Inten    --      6.8121                 1.5462                 7.3081

                     13                     14                     15
                      A                      A                      A
 Frequencies --    610.8549               634.0819               646.1401
 Red. masses --      4.3202                 5.6849                 9.1732
 Frc consts  --      0.9498                 1.3467                 2.2565
 IR Inten    --      9.5700                 6.0186                 8.8375

                     16                     17                     18
                      A                      A                      A
 Frequencies --    724.8947               744.0578               760.8688
 Red. masses --     10.2073                12.0447                 6.0178
 Frc consts  --      3.1602                 3.9288                 2.0526
 IR Inten    --     15.6929                 3.9718                14.9840

                     19                     20                     21
                      A                      A                      A
 Frequencies --    828.2255               849.5753               866.6611
 Red. masses --     14.5692                 1.5750                10.8429
 Frc consts  --      5.8882                 0.6698                 4.7984
 IR Inten    --     34.0860                14.4900                77.0023

                     22                     23                     24
                      A                      A                      A
 Frequencies --   1009.1274              1010.8270              1150.7675
 Red. masses --      1.7387                 3.3272                 1.5160
 Frc consts  --      1.0432                 2.0030                 1.1828
 IR Inten    --    141.4818                 6.1299                45.9902

                     25                     26                     27
                      A                      A                      A
 Frequencies --   1166.1800              1299.3725              1357.7760
 Red. masses --      6.9591                 2.5384                 8.7561
 Frc consts  --      5.5761                 2.5251                 9.5108
 IR Inten    --      8.6325                11.1493               146.6242

                     28                     29                     30
                      A                      A                      A
 Frequencies --   1384.2161              1394.7144              1426.4513
 Red. masses --     12.0039                 2.5353                 5.2922
 Frc consts  --     13.5513                 2.9057                 6.3446
 IR Inten    --    498.1025                 4.4665                10.2535

                     31                     32                     33
                      A                      A                      A
 Frequencies --   1466.6596              1531.4482              1545.3638
 Red. masses --      6.5289                 7.3579                 6.8055
 Frc consts  --      8.2746                10.1674                 9.5757
 IR Inten    --     21.3765                93.0690                18.2018

                     34                     35                     36
                      A                      A                      A
 Frequencies --   1649.7764              1660.6151              1708.9391
 Red. masses --     10.5935                12.6240                 1.1350
 Frc consts  --     16.9880                20.5109                 1.9529
 IR Inten    --     93.5138               291.3516                23.3894

                     37                     38                     39
                      A                      A                      A
 Frequencies --   3322.1053              3471.2057              3561.9748
 Red. masses --      1.1008                 1.0502                 1.0923
 Frc consts  --      7.1577                 7.4554                 8.1655
 IR Inten    --     18.8270                15.2160                41.7185

 - Thermochemistry -
 -------------------
 Temperature   298.150 Kelvin.  Pressure   1.00000 Atm.
 Atom     1 has atomic number  7 and mass  14.00307

 Molecular mass:   173.01850 amu.
 Principal axes and moments of inertia in atomic units:
                           1         2         3
     Eigenvalues --   915.293562895.128703792.61230
           X            0.99993   0.01141   0.00106
           Y           -0.01142   0.99992   0.00611
           Z           -0.00099  -0.00612   0.99998
 This molecule is an asymmetric top.
 Rotational symmetry number  1.
 Warning -- assumption of classical behavior for rotation
           may cause significant error
 Rotational temperatures (Kelvin)      0.09463     0.02992     0.02284
 Rotational constants (GHZ):           1.97176     0.62337     0.47586
 Zero-point vibrational energy     244392.2 (Joules/Mol)
                                   58.41113 (Kcal/Mol)
 Warning -- explicit consideration of  13 degrees of freedom as
           vibrations may cause significant error
 Vibrational temperatures:     81.45    93.64   184.12   220.23   240.11
          (Kelvin)            295.67   393.09   454.32   508.63   516.05
                              672.51   766.27   878.88   912.30   929.65
                             1042.96  1070.53  1094.72  1191.63  1222.35
                             1246.93  1451.91  1454.35  1655.70  1677.87
                             1869.50  1953.53  1991.58  2006.68  2052.34
                             2110.19  2203.41  2223.43  2373.66  2389.25
                             2458.78  4779.76  4994.28  5124.88

 Zero-point correction=                           0.093084 (Hartree/Particle)
 Thermal correction to Energy=                    0.103137
 Thermal correction to Enthalpy=                  0.104081
 Thermal correction to Gibbs Free Energy=         0.056326
 Sum of electronic and zero-point Energies=           -690.432331
 Sum of electronic and thermal Energies=              -690.422278
 Sum of electronic and thermal Enthalpies=            -690.421334
 Sum of electronic and thermal Free Energies=         -690.469089

                     E (Thermal)             CV                S
                      KCal/Mol        Cal/Mol-Kelvin    Cal/Mol-Kelvin
 Total                   64.719             35.440            100.510
 Electronic               0.000              0.000              0.000
 Translational            0.889              2.981             41.352
 Rotational               0.889              2.981             30.686
 Vibrational             62.942             29.478             28.471
 Vibration     1          0.596              1.975              4.572
 Vibration     2          0.597              1.971              4.297
 Vibration     3          0.611              1.925              2.976
 Vibration     4          0.619              1.899              2.634
 Vibration     5          0.624              1.883              2.470
 Vibration     6          0.640              1.832              2.083
 Vibration     7          0.676              1.723              1.576
 Vibration     8          0.703              1.644              1.332
 Vibration     9          0.730              1.568              1.150
 Vibration    10          0.734              1.557              1.128
 Vibration    11          0.825              1.322              0.745
 Vibration    12          0.888              1.178              0.581
 Vibration    13          0.970              1.009              0.431

 Optimization completed.
    -- Stationary point found.
 Normal termination of Gaussian 09 at Fri Aug 20 15:42:47 2021.
