 Gaussian 09, Revision E.01,
 Gaussian 09:  ES64L-G09RevE.01 30-Nov-2015

 --------------------------------
 #P OPT=calcfc Freq B3LYP/6-31G**
 --------------------------------

 ------
 CEDZUG
 ------
 Symbolic Z-matrix:
 Charge =  0 Multiplicity = 1

 SCF Done:  E(RB3LYP) =  -718.369889860     A.U. after   15 cycles
 SCF Done:  E(RB3LYP) =  -718.444451645     A.U. after   16 cycles
 SCF Done:  E(RB3LYP) =  -718.469122835     A.U. after   17 cycles
 SCF Done:  E(RB3LYP) =  -718.471251678     A.U. after   17 cycles
 SCF Done:  E(RB3LYP) =  -718.472197916     A.U. after   16 cycles
 SCF Done:  E(RB3LYP) =  -718.448309550     A.U. after   17 cycles
 SCF Done:  E(RB3LYP) =  -718.472363602     A.U. after   12 cycles
 SCF Done:  E(RB3LYP) =  -718.472476382     A.U. after   16 cycles
 SCF Done:  E(RB3LYP) =  -718.463754963     A.U. after   17 cycles
 SCF Done:  E(RB3LYP) =  -718.472530490     A.U. after   11 cycles
 SCF Done:  E(RB3LYP) =  -718.472706962     A.U. after   14 cycles
 SCF Done:  E(RB3LYP) =  -718.472707439     A.U. after    9 cycles
 SCF Done:  E(RB3LYP) =  -718.472708348     A.U. after   13 cycles
 SCF Done:  E(RB3LYP) =  -718.472707659     A.U. after   12 cycles
 SCF Done:  E(RB3LYP) =  -718.472702666     A.U. after   13 cycles
 SCF Done:  E(RB3LYP) =  -718.472699607     A.U. after   14 cycles
 SCF Done:  E(RB3LYP) =  -718.472699824     A.U. after    9 cycles
 SCF Done:  E(RB3LYP) =  -718.472699770     A.U. after   10 cycles
 SCF Done:  E(RB3LYP) =  -718.472699769     A.U. after    9 cycles
 Optimization completed on the basis of negligible forces.
    -- Stationary point found.
 Normal termination of Gaussian 09 at Sat Aug 21 02:25:37 2021.

 ----------------------------------------------------------------------
 #P Geom=AllCheck Guess=TCheck SCRF=Check GenChk RB3LYP/6-31G(d,p) Freq
 ----------------------------------------------------------------------

 Structure from the checkpoint file:  "/public/home/users/caep010/.cache/gau_scr/Gau-39593.chk"
 ------
 CEDZUG
 ------
 Charge =  0 Multiplicity = 1

                         Standard orientation:
 ---------------------------------------------------------------------
 Center     Atomic      Atomic             Coordinates (Angstroms)
 Number     Number       Type             X           Y           Z
 ---------------------------------------------------------------------
      1          6           0        0.446562    1.096972    0.642949
      2          6           0       -0.447419   -1.139676   -0.647914
      3          6           0        0.447430   -1.138838    0.649461
      4          6           0       -0.446564    1.096133   -0.644296
      5          1           0        0.827099   -2.017623    1.165047
      6          1           0       -0.838220    1.976772   -1.149043
      7          6           0        0.455841   -0.017714   -1.283832
      8          6           0       -0.455844   -0.016049    1.283935
      9          6           0        1.332719   -0.033269    0.012829
     10          6           0       -1.332716   -0.033318   -0.012668
     11          1           0        0.838209    1.978278    1.146533
     12          1           0       -0.827084   -2.019109   -1.162389
     13          1           0        0.852990   -0.008061   -2.296808
     14          1           0       -0.852982   -0.005089    2.296909
     15          7           0        2.799301    0.007464   -0.000657
     16          7           0       -2.799303    0.007420    0.000635
     17          8           0        3.408652   -0.884119    0.585271
     18          8           0       -3.408545   -0.884117   -0.585480
     19          8           0        3.305487    0.953205   -0.604046
     20          8           0       -3.305601    0.953180    0.603895
 ---------------------------------------------------------------------

 SCF Done:  E(RB3LYP) =  -718.472699769     A.U. after    1 cycles

 The electronic state is 1-A.
 Alpha  occ. eigenvalues --  -19.19619 -19.19619 -19.19337 -19.19336 -14.58133
 Alpha  occ. eigenvalues --  -14.58133 -10.27198 -10.27198 -10.24149 -10.24134
 Alpha  occ. eigenvalues --  -10.24080 -10.24079 -10.23594 -10.23579  -1.23546
 Alpha  occ. eigenvalues --   -1.23537  -1.06438  -1.06436  -1.00706  -0.83588
 Alpha  occ. eigenvalues --   -0.78130  -0.78083  -0.77246  -0.67363  -0.61460
 Alpha  occ. eigenvalues --   -0.61253  -0.58796  -0.57690  -0.56137  -0.54595
 Alpha  occ. eigenvalues --   -0.54336  -0.52245  -0.52056  -0.49890  -0.48084
 Alpha  occ. eigenvalues --   -0.47718  -0.47607  -0.47542  -0.38953  -0.34483
 Alpha  occ. eigenvalues --   -0.33773  -0.32607  -0.32229  -0.32174  -0.31869
 Alpha  occ. eigenvalues --   -0.31784  -0.31775  -0.29813  -0.29770  -0.29338
 Alpha virt. eigenvalues --   -0.08361  -0.08287   0.02130   0.03650   0.04093
 Alpha virt. eigenvalues --    0.04569   0.12806   0.12940   0.13527   0.14007
 Alpha virt. eigenvalues --    0.14139   0.14296   0.15262   0.15624   0.16468

 Mulliken charges:
               1
     1  C   -0.032928
     2  C   -0.041107
     3  C   -0.041121
     4  C   -0.032924
     5  H    0.116488
     6  H    0.114391
     7  C   -0.041322
     8  C   -0.041330
     9  C    0.157225
    10  C    0.157218
    11  H    0.114393
    12  H    0.116490
    13  H    0.114205
    14  H    0.114206
    15  N    0.380527
    16  N    0.380527
    17  O   -0.381188
    18  O   -0.381188
    19  O   -0.386281
    20  O   -0.386280
 Sum of Mulliken charges =  -0.00000

 Dipole moment (field-independent basis, Debye):
    X=              0.0000    Y=             -0.1733    Z=              0.0003  Tot=              0.1733
 Quadrupole moment (field-independent basis, Debye-Ang):
   XX=           -109.3575   YY=            -76.0469   ZZ=            -72.2880
   XY=              0.0004   XZ=              0.1399   YZ=             -0.0000

  Exact polarizability: 114.833  -0.001  90.377   0.697   0.000  80.188
 Approx polarizability: 156.456  -0.002 177.317   2.532   0.000 140.260

                      1                      2                      3
                      A                      A                      A
 Frequencies --     13.1694                15.9237               104.3250
 Red. masses --      7.5754                15.8916                11.1763
 Frc consts  --      0.0008                 0.0024                 0.0717
 IR Inten    --      0.0793                 0.0056                 8.0385

                      4                      5                      6
                      A                      A                      A
 Frequencies --    109.8349               195.4172               209.4518
 Red. masses --     10.3428                 5.8381                 5.2088
 Frc consts  --      0.0735                 0.1314                 0.1346
 IR Inten    --      9.8143                 0.6510                 0.5499

                      7                      8                      9
                      A                      A                      A
 Frequencies --    285.7577               425.4749               448.0337
 Red. masses --     14.1146                 7.0530                 8.1688
 Frc consts  --      0.6791                 0.7523                 0.9661
 IR Inten    --      0.0070                17.0009                 0.2686

                     10                     11                     12
                      A                      A                      A
 Frequencies --    474.6183               637.0242               652.7568
 Red. masses --      6.7116                 3.4680                 3.0290
 Frc consts  --      0.8908                 0.8292                 0.7604
 IR Inten    --      0.0340                 3.3155                 1.7948

                     13                     14                     15
                      A                      A                      A
 Frequencies --    685.1695               688.3613               717.9261
 Red. masses --      4.8784                 5.3779                 7.0105
 Frc consts  --      1.3493                 1.5014                 2.1289
 IR Inten    --      0.0015                 1.7388                 0.8534

                     16                     17                     18
                      A                      A                      A
 Frequencies --    719.4702               765.6505               815.1444
 Red. masses --      5.2851                 5.1017                 6.1833
 Frc consts  --      1.6119                 1.7621                 2.4207
 IR Inten    --      2.5834                 0.0199                63.5565

                     19                     20                     21
                      A                      A                      A
 Frequencies --    841.8497               851.4465               856.5069
 Red. masses --      1.8865                 1.5174                 1.7716
 Frc consts  --      0.7877                 0.6481                 0.7657
 IR Inten    --      1.4872                 0.1443                 7.8294

                     22                     23                     24
                      A                      A                      A
 Frequencies --    863.3488               878.0441               885.9979
 Red. masses --      1.7864                 1.6511                 1.6496
 Frc consts  --      0.7845                 0.7500                 0.7629
 IR Inten    --      5.7303                 0.1145                 0.0255

                     25                     26                     27
                      A                      A                      A
 Frequencies --    892.9560               958.6146              1040.2370
 Red. masses --      8.1241                 2.5206                 5.9389
 Frc consts  --      3.8167                 1.3647                 3.7863
 IR Inten    --      0.0053                18.8269                 0.9431

                     28                     29                     30
                      A                      A                      A
 Frequencies --   1040.5989              1055.6825              1082.3103
 Red. masses --      3.5986                 2.8765                 3.7504
 Frc consts  --      2.2959                 1.8888                 2.5884
 IR Inten    --      0.5706                 0.5434                 2.5455

                     31                     32                     33
                      A                      A                      A
 Frequencies --   1087.0168              1104.3261              1115.2728
 Red. masses --      3.0764                 1.9015                 1.8793
 Frc consts  --      2.1417                 1.3663                 1.3772
 IR Inten    --     10.9980                 4.3418                 0.0017

                     34                     35                     36
                      A                      A                      A
 Frequencies --   1125.8464              1126.5713              1136.1549
 Red. masses --      3.2200                 3.3661                 1.7659
 Frc consts  --      2.4047                 2.5171                 1.3431
 IR Inten    --      2.2312                 0.6540                 0.0766

                     37                     38                     39
                      A                      A                      A
 Frequencies --   1140.4992              1162.9888              1218.6540
 Red. masses --      1.7427                 1.2581                 2.2036
 Frc consts  --      1.3355                 1.0026                 1.9282
 IR Inten    --      0.1045                 0.0882                 0.4293

                     40                     41                     42
                      A                      A                      A
 Frequencies --   1225.3706              1236.4943              1245.0319
 Red. masses --      2.2733                 2.2193                 1.8912
 Frc consts  --      2.0111                 1.9991                 1.7272
 IR Inten    --     10.8680                 3.1322                 4.5167

                     43                     44                     45
                      A                      A                      A
 Frequencies --   1263.7603              1299.6933              1418.1045
 Red. masses --      2.7053                 2.5928                13.6853
 Frc consts  --      2.5456                 2.5804                16.2151
 IR Inten    --      0.0000                 0.1298               358.3197

                     46                     47                     48
                      A                      A                      A
 Frequencies --   1422.4445              1647.3557              1647.4686
 Red. masses --     14.5338                14.5616                14.5586
 Frc consts  --     17.3261                23.2828                23.2811
 IR Inten    --      0.2145               132.4688               307.5583

                     49                     50                     51
                      A                      A                      A
 Frequencies --   3165.9103              3169.5071              3171.9817
 Red. masses --      1.0912                 1.0898                 1.0917
 Frc consts  --      6.4440                 6.4503                 6.4717
 IR Inten    --      4.9209                 1.7140                12.9239

                     52                     53                     54
                      A                      A                      A
 Frequencies --   3176.8095              3179.5559              3186.1075
 Red. masses --      1.0947                 1.0914                 1.0956
 Frc consts  --      6.5091                 6.5006                 6.5528
 IR Inten    --     10.6548                 5.9277                 2.7022

 - Thermochemistry -
 -------------------
 Temperature   298.150 Kelvin.  Pressure   1.00000 Atm.
 Atom     1 has atomic number  6 and mass  12.00000

 Molecular mass:   194.03276 amu.
 Principal axes and moments of inertia in atomic units:
                           1         2         3
     Eigenvalues --   815.855363929.587284043.68973
           X            1.00000  -0.00000  -0.00008
           Y            0.00000   1.00000  -0.00000
           Z            0.00008   0.00000   1.00000
 This molecule is an asymmetric top.
 Rotational symmetry number  1.
 Warning -- assumption of classical behavior for rotation
           may cause significant error
 Rotational temperatures (Kelvin)      0.10616     0.02204     0.02142
 Rotational constants (GHZ):           2.21208     0.45927     0.44631
 Zero-point vibrational energy     364167.4 (Joules/Mol)
                                   87.03809 (Kcal/Mol)
 Warning -- explicit consideration of  10 degrees of freedom as
           vibrations may cause significant error
 Vibrational temperatures:     18.95    22.91   150.10   158.03   281.16
          (Kelvin)            301.35   411.14   612.16   644.62   682.87
                              916.53   939.17   985.80   990.40  1032.93
                             1035.16  1101.60  1172.81  1211.23  1225.04
                             1232.32  1242.16  1263.31  1274.75  1284.76
                             1379.23  1496.67  1497.19  1518.89  1557.20
                             1563.97  1588.88  1604.63  1619.84  1620.88
                             1634.67  1640.92  1673.28  1753.37  1763.03
                             1779.04  1791.32  1818.27  1869.97  2040.33
                             2046.58  2370.17  2370.34  4555.03  4560.21
                             4563.77  4570.71  4574.67  4584.09

 Zero-point correction=                           0.138704 (Hartree/Particle)
 Thermal correction to Energy=                    0.148907
 Thermal correction to Enthalpy=                  0.149851
 Thermal correction to Gibbs Free Energy=         0.099210
 Sum of electronic and zero-point Energies=           -718.333996
 Sum of electronic and thermal Energies=              -718.323793
 Sum of electronic and thermal Enthalpies=            -718.322848
 Sum of electronic and thermal Free Energies=         -718.373490

                     E (Thermal)             CV                S
                      KCal/Mol        Cal/Mol-Kelvin    Cal/Mol-Kelvin
 Total                   93.441             38.750            106.584
 Electronic               0.000              0.000              0.000
 Translational            0.889              2.981             41.694
 Rotational               0.889              2.981             30.939
 Vibrational             91.663             32.789             33.951
 Vibration     1          0.593              1.987              7.464
 Vibration     2          0.593              1.986              7.087
 Vibration     3          0.605              1.946              3.372
 Vibration     4          0.606              1.941              3.272
 Vibration     5          0.636              1.846              2.176
 Vibration     6          0.642              1.826              2.048
 Vibration     7          0.684              1.700              1.499
 Vibration     8          0.787              1.415              0.874
 Vibration     9          0.807              1.365              0.802
 Vibration    10          0.831              1.306              0.725

 Optimization completed.
    -- Stationary point found.
 Normal termination of Gaussian 09 at Sat Aug 21 02:26:17 2021.
