 Gaussian 09, Revision E.01,
 Gaussian 09:  ES64L-G09RevE.01 30-Nov-2015

 -------------------------
 #P OPT Freq B3LYP/6-31G**
 -------------------------

 ------
 AMNTPY
 ------
 Symbolic Z-matrix:
 Charge =  0 Multiplicity = 1

 SCF Done:  E(RB3LYP) =  -508.107498526     A.U. after   16 cycles
 SCF Done:  E(RB3LYP) =  -508.158792991     A.U. after   14 cycles
 SCF Done:  E(RB3LYP) =  -508.165345688     A.U. after   15 cycles
 SCF Done:  E(RB3LYP) =  -508.164957885     A.U. after   14 cycles
 SCF Done:  E(RB3LYP) =  -508.165846539     A.U. after   11 cycles
 SCF Done:  E(RB3LYP) =  -508.163912661     A.U. after   14 cycles
 SCF Done:  E(RB3LYP) =  -508.165914231     A.U. after   10 cycles
 SCF Done:  E(RB3LYP) =  -508.166006248     A.U. after   11 cycles
 SCF Done:  E(RB3LYP) =  -508.166014806     A.U. after   10 cycles
 SCF Done:  E(RB3LYP) =  -508.166019379     A.U. after   10 cycles
 SCF Done:  E(RB3LYP) =  -508.166023876     A.U. after   10 cycles
 SCF Done:  E(RB3LYP) =  -508.166026283     A.U. after    9 cycles
 SCF Done:  E(RB3LYP) =  -508.166027679     A.U. after    9 cycles
 SCF Done:  E(RB3LYP) =  -508.166027966     A.U. after    9 cycles
 Optimization completed.
    -- Stationary point found.
 Normal termination of Gaussian 09 at Fri Aug 20 15:35:15 2021.

 ----------------------------------------------------------------------
 #P Geom=AllCheck Guess=TCheck SCRF=Check GenChk RB3LYP/6-31G(d,p) Freq
 ----------------------------------------------------------------------

 Structure from the checkpoint file:  "/public/home/users/caep010/.cache/gau_scr/Gau-123828.chk"
 ------
 AMNTPY
 ------
 Charge =  0 Multiplicity = 1

                         Standard orientation:
 ---------------------------------------------------------------------
 Center     Atomic      Atomic             Coordinates (Angstroms)
 Number     Number       Type             X           Y           Z
 ---------------------------------------------------------------------
      1          6           0       -0.482229    0.970103    0.000143
      2          7           0       -1.837064    0.974720    0.000435
      3          6           0        0.229302   -0.267569   -0.000135
      4          6           0       -2.484961   -0.182462    0.000153
      5          6           0       -0.483152   -1.469866   -0.000456
      6          1           0       -3.571485   -0.110136    0.000429
      7          6           0       -1.866273   -1.441218   -0.000388
      8          7           0        0.105744    2.180757    0.000076
      9          1           0       -0.499708    2.986044    0.000386
     10          1           0        1.112515    2.243219   -0.000906
     11          1           0        0.078388   -2.395937   -0.000660
     12          1           0       -2.453317   -2.351841   -0.000760
     13          7           0        1.674693   -0.336372    0.000050
     14          8           0        2.322767    0.726415   -0.000706
     15          8           0        2.208968   -1.446293    0.000917
 ---------------------------------------------------------------------

 SCF Done:  E(RB3LYP) =  -508.166027966     A.U. after    1 cycles

 The electronic state is 1-A.
 Alpha  occ. eigenvalues --  -19.18152 -19.17909 -14.57342 -14.36785 -14.34534
 Alpha  occ. eigenvalues --  -10.29700 -10.25397 -10.24911 -10.23033 -10.20829
 Alpha  occ. eigenvalues --   -1.22197  -1.04773  -0.98990  -0.91397  -0.85030
 Alpha  occ. eigenvalues --   -0.78647  -0.71359  -0.65064  -0.62926  -0.56262
 Alpha  occ. eigenvalues --   -0.54743  -0.54529  -0.53238  -0.51507  -0.48159
 Alpha  occ. eigenvalues --   -0.47154  -0.43299  -0.42158  -0.41140  -0.34547
 Alpha  occ. eigenvalues --   -0.31373  -0.31016  -0.30610  -0.29453  -0.27904
 Alpha  occ. eigenvalues --   -0.23812
 Alpha virt. eigenvalues --   -0.09057  -0.02369   0.00076   0.08940   0.09587
 Alpha virt. eigenvalues --    0.13087   0.14183   0.15952   0.16443   0.18377
 Alpha virt. eigenvalues --    0.22268   0.25167   0.27757   0.28234   0.33291

 Mulliken charges:
               1
     1  C    0.486312
     2  N   -0.522178
     3  C    0.251034
     4  C    0.118878
     5  C   -0.056474
     6  H    0.112637
     7  C   -0.126997
     8  N   -0.621499
     9  H    0.284179
    10  H    0.308089
    11  H    0.146817
    12  H    0.101992
    13  N    0.361000
    14  O   -0.440454
    15  O   -0.403336
 Sum of Mulliken charges =  -0.00000

 Dipole moment (field-independent basis, Debye):
    X=             -3.0199    Y=              0.6173    Z=             -0.0019  Tot=              3.0823
 Quadrupole moment (field-independent basis, Debye-Ang):
   XX=            -62.1182   YY=            -48.5767   ZZ=            -56.8948
   XY=              6.1580   XZ=             -0.0015   YZ=              0.0021

  Exact polarizability: 109.535   3.121  99.641  -0.003   0.002  28.825
 Approx polarizability: 187.070   1.895 196.182  -0.009  -0.010  44.677

                      1                      2                      3
                      A                      A                      A
 Frequencies --     76.7991               121.5853               245.4947
 Red. masses --     11.8281                 6.2844                 4.8395
 Frc consts  --      0.0411                 0.0547                 0.1718
 IR Inten    --      1.4506                 0.1220                 2.7674

                      4                      5                      6
                      A                      A                      A
 Frequencies --    292.7990               308.1237               391.1128
 Red. masses --      7.4363                 1.1767                 4.6251
 Frc consts  --      0.3756                 0.0658                 0.4168
 IR Inten    --      4.6909               213.9931                 5.6045

                      7                      8                      9
                      A                      A                      A
 Frequencies --    407.6776               439.4958               545.2105
 Red. masses --      6.3853                 4.1596                 3.1209
 Frc consts  --      0.6253                 0.4734                 0.5466
 IR Inten    --      2.5233                18.3139                 4.5807

                     10                     11                     12
                      A                      A                      A
 Frequencies --    547.2592               581.4825               648.8172
 Red. masses --      5.3445                 6.8163                 1.0457
 Frc consts  --      0.9431                 1.3579                 0.2594
 IR Inten    --      6.2875                 0.3743                 2.7847

                     13                     14                     15
                      A                      A                      A
 Frequencies --    689.4451               738.3708               768.4887
 Red. masses --      7.4058                 7.9942                 3.2983
 Frc consts  --      2.0740                 2.5679                 1.1477
 IR Inten    --      4.4118                 3.0907                39.6902

                     16                     17                     18
                      A                      A                      A
 Frequencies --    814.6760               839.8344               912.6599
 Red. masses --      1.7094                 8.4508                 6.1013
 Frc consts  --      0.6684                 3.5118                 2.9942
 IR Inten    --      5.0310                18.2657                16.3240

                     19                     20                     21
                      A                      A                      A
 Frequencies --    990.1222               996.9741              1012.1773
 Red. masses --      1.4021                 1.3155                 2.0799
 Frc consts  --      0.8099                 0.7704                 1.2555
 IR Inten    --      0.2388                 1.0017                 1.0590

                     22                     23                     24
                      A                      A                      A
 Frequencies --   1101.5329              1115.8603              1178.8228
 Red. masses --      1.9014                 2.5401                 1.5429
 Frc consts  --      1.3593                 1.8635                 1.2632
 IR Inten    --      7.0174                33.3403                 7.9769

                     25                     26                     27
                      A                      A                      A
 Frequencies --   1300.5859              1312.6236              1382.1120
 Red. masses --      1.8732                 4.7540                 4.6219
 Frc consts  --      1.8669                 4.8260                 5.2018
 IR Inten    --     72.3318               217.1278                95.6788

                     28                     29                     30
                      A                      A                      A
 Frequencies --   1393.3432              1486.9622              1489.9549
 Red. masses --      2.5557                 2.1564                 2.4657
 Frc consts  --      2.9234                 2.8092                 3.2250
 IR Inten    --    102.8995                59.3313                68.4200

                     31                     32                     33
                      A                      A                      A
 Frequencies --   1579.7975              1620.4311              1625.3597
 Red. masses --      4.3464                 5.5651                 2.5884
 Frc consts  --      6.3912                 8.6096                 4.0288
 IR Inten    --    107.3880               123.5408                66.2821

                     34                     35                     36
                      A                      A                      A
 Frequencies --   1679.5640              3166.1312              3224.3515
 Red. masses --      6.9761                 1.0903                 1.0916
 Frc consts  --     11.5946                 6.4393                 6.6868
 IR Inten    --    486.0392                23.1600                 4.6661

                     37                     38                     39
                      A                      A                      A
 Frequencies --   3244.9002              3585.4204              3741.2954
 Red. masses --      1.0945                 1.0439                 1.1068
 Frc consts  --      6.7898                 7.9066                 9.1275
 IR Inten    --      3.0146                90.8401               101.5434

 - Thermochemistry -
 -------------------
 Temperature   298.150 Kelvin.  Pressure   1.00000 Atm.
 Atom     1 has atomic number  6 and mass  12.00000

 Molecular mass:   139.03818 amu.
 Principal axes and moments of inertia in atomic units:
                           1         2         3
     Eigenvalues --   756.885531405.714802162.60011
           X            0.99928   0.03806  -0.00000
           Y           -0.03806   0.99928   0.00001
           Z            0.00000  -0.00001   1.00000
 This molecule is an asymmetric top.
 Rotational symmetry number  1.
 Warning -- assumption of classical behavior for rotation
           may cause significant error
 Rotational temperatures (Kelvin)      0.11443     0.06162     0.04005
 Rotational constants (GHZ):           2.38443     1.28386     0.83452
 Zero-point vibrational energy     284697.2 (Joules/Mol)
                                   68.04426 (Kcal/Mol)
 Warning -- explicit consideration of  11 degrees of freedom as
           vibrations may cause significant error
 Vibrational temperatures:    110.50   174.93   353.21   421.27   443.32
          (Kelvin)            562.72   586.56   632.34   784.44   787.38
                              836.62   933.50   991.96  1062.35  1105.68
                             1172.14  1208.33  1313.11  1424.56  1434.42
                             1456.30  1584.86  1605.47  1696.06  1871.25
                             1888.57  1988.55  2004.71  2139.40  2143.71
                             2272.97  2331.44  2338.53  2416.51  4555.35
                             4639.12  4668.68  5158.61  5382.88

 Zero-point correction=                           0.108435 (Hartree/Particle)
 Thermal correction to Energy=                    0.116390
 Thermal correction to Enthalpy=                  0.117334
 Thermal correction to Gibbs Free Energy=         0.075431
 Sum of electronic and zero-point Energies=           -508.057593
 Sum of electronic and thermal Energies=              -508.049638
 Sum of electronic and thermal Enthalpies=            -508.048694
 Sum of electronic and thermal Free Energies=         -508.090597

                     E (Thermal)             CV                S
                      KCal/Mol        Cal/Mol-Kelvin    Cal/Mol-Kelvin
 Total                   73.036             30.363             88.192
 Electronic               0.000              0.000              0.000
 Translational            0.889              2.981             40.700
 Rotational               0.889              2.981             29.222
 Vibrational             71.258             24.401             18.270
 Vibration     1          0.599              1.965              3.971
 Vibration     2          0.609              1.931              3.075
 Vibration     3          0.660              1.770              1.763
 Vibration     4          0.688              1.687              1.458
 Vibration     5          0.698              1.658              1.372
 Vibration     6          0.759              1.489              0.996
 Vibration     7          0.772              1.454              0.935
 Vibration     8          0.800              1.384              0.828
 Vibration     9          0.900              1.150              0.554
 Vibration    10          0.902              1.146              0.550
 Vibration    11          0.938              1.071              0.483

 Optimization completed.
    -- Stationary point found.
 Normal termination of Gaussian 09 at Fri Aug 20 15:35:32 2021.
