 Gaussian 09, Revision E.01,
 Gaussian 09:  ES64L-G09RevE.01 30-Nov-2015

 -------------------------
 #P OPT Freq B3LYP/6-31G**
 -------------------------

 ------
 ZUGPOJ
 ------
 Symbolic Z-matrix:
 Charge =  0 Multiplicity = 1

 SCF Done:  E(RB3LYP) =  -733.382692720     A.U. after   16 cycles
 SCF Done:  E(RB3LYP) =  -733.450851911     A.U. after   15 cycles
 SCF Done:  E(RB3LYP) =  -733.462260504     A.U. after   17 cycles
 SCF Done:  E(RB3LYP) =  -733.448406502     A.U. after   18 cycles
 SCF Done:  E(RB3LYP) =  -733.465721785     A.U. after   13 cycles
 SCF Done:  E(RB3LYP) =  -733.466609937     A.U. after   14 cycles
 SCF Done:  E(RB3LYP) =  -733.466663358     A.U. after   13 cycles
 SCF Done:  E(RB3LYP) =  -733.466678229     A.U. after   11 cycles
 SCF Done:  E(RB3LYP) =  -733.466660780     A.U. after   13 cycles
 SCF Done:  E(RB3LYP) =  -733.466683552     A.U. after   10 cycles
 SCF Done:  E(RB3LYP) =  -733.466683646     A.U. after    9 cycles
 Optimization completed.
    -- Stationary point found.
 Normal termination of Gaussian 09 at Fri Aug 20 15:50:03 2021.

 ----------------------------------------------------------------------
 #P Geom=AllCheck Guess=TCheck SCRF=Check GenChk RB3LYP/6-31G(d,p) Freq
 ----------------------------------------------------------------------

 Structure from the checkpoint file:  "/public/home/users/caep010/.cache/gau_scr/Gau-115933.chk"
 ------
 ZUGPOJ
 ------
 Charge =  0 Multiplicity = 1

                         Standard orientation:
 ---------------------------------------------------------------------
 Center     Atomic      Atomic             Coordinates (Angstroms)
 Number     Number       Type             X           Y           Z
 ---------------------------------------------------------------------
      1          6           0       -0.000002    0.311946   -0.000006
      2          6           0        0.000029   -2.529434    0.000002
      3          6           0       -0.000034    1.746534    0.000005
      4          7           0       -0.000106    2.908392    0.000018
      5          1           0        0.000041   -3.613676    0.000005
      6          6           0        1.193826   -0.439450   -0.002276
      7          6           0       -1.193810   -0.439478    0.002267
      8          7           0        2.515839    0.224772   -0.041629
      9          7           0       -2.515827    0.224729    0.041628
     10          8           0        2.583844    1.325318   -0.573361
     11          8           0       -2.583821    1.325292    0.573325
     12          8           0        3.456462   -0.397303    0.447343
     13          8           0       -3.456452   -0.397366   -0.447318
     14          6           0        1.202681   -1.830251    0.018848
     15          6           0       -1.202638   -1.830279   -0.018847
     16          1           0        2.158375   -2.338295    0.044170
     17          1           0       -2.158322   -2.338343   -0.044165
 ---------------------------------------------------------------------

 SCF Done:  E(RB3LYP) =  -733.466683646     A.U. after    1 cycles

 The electronic state is 1-A.
 Alpha  occ. eigenvalues --  -19.21572 -19.21572 -19.21354 -19.21354 -14.60660
 Alpha  occ. eigenvalues --  -14.60660 -14.36231 -10.30957 -10.30942 -10.30862
 Alpha  occ. eigenvalues --  -10.26842 -10.26837 -10.26492 -10.25733  -1.25992
 Alpha  occ. eigenvalues --   -1.25974  -1.08798  -1.08782  -0.95654  -0.92282
 Alpha  occ. eigenvalues --   -0.87067  -0.84629  -0.77192  -0.74213  -0.68557
 Alpha  occ. eigenvalues --   -0.62683  -0.61687  -0.57788  -0.57755  -0.56153
 Alpha  occ. eigenvalues --   -0.56062  -0.55087  -0.53603  -0.52662  -0.51590
 Alpha  occ. eigenvalues --   -0.45346  -0.44637  -0.44622  -0.38437  -0.38179
 Alpha  occ. eigenvalues --   -0.37069  -0.34738  -0.34185  -0.33824  -0.33707
 Alpha  occ. eigenvalues --   -0.32975  -0.31523  -0.31449  -0.31066
 Alpha virt. eigenvalues --   -0.12737  -0.12365  -0.06975  -0.03914   0.00886
 Alpha virt. eigenvalues --    0.03814   0.03868   0.10133   0.11051   0.13244
 Alpha virt. eigenvalues --    0.14077   0.15851   0.16748   0.22716   0.24020

 Mulliken charges:
               1
     1  C    0.173389
     2  C   -0.100750
     3  C    0.310159
     4  N   -0.452595
     5  H    0.135970
     6  C    0.230281
     7  C    0.230285
     8  N    0.355518
     9  N    0.355522
    10  O   -0.349806
    11  O   -0.349806
    12  O   -0.370989
    13  O   -0.370992
    14  C   -0.060184
    15  C   -0.060184
    16  H    0.162092
    17  H    0.162092
 Sum of Mulliken charges =  -0.00000

 Dipole moment (field-independent basis, Debye):
    X=              0.0001    Y=             -7.0228    Z=             -0.0000  Tot=              7.0228
 Quadrupole moment (field-independent basis, Debye-Ang):
   XX=            -93.4806   YY=            -78.1418   ZZ=            -75.9418
   XY=              0.0001   XZ=             -1.1309   YZ=             -0.0000

  Exact polarizability: 127.640  -0.001 137.557   4.179  -0.000  43.426
 Approx polarizability: 210.193  -0.002 283.744  16.802  -0.000  79.839

                      1                      2                      3
                      A                      A                      A
 Frequencies --     35.5118                52.0668                60.6221
 Red. masses --     14.5712                15.8771                11.5439
 Frc consts  --      0.0108                 0.0254                 0.0250
 IR Inten    --      0.8852                 0.0590                 1.5883

                      4                      5                      6
                      A                      A                      A
 Frequencies --    177.4820               183.6400               185.2673
 Red. masses --      9.2772                11.3405                 6.3903
 Frc consts  --      0.1722                 0.2253                 0.1292
 IR Inten    --      1.9400                 3.1129                 1.4578

                      7                      8                      9
                      A                      A                      A
 Frequencies --    192.5608               284.7711               318.6870
 Red. masses --      8.6773                 9.4579                13.7729
 Frc consts  --      0.1896                 0.4519                 0.8241
 IR Inten    --      3.3429                 2.8185                 0.3515

                     10                     11                     12
                      A                      A                      A
 Frequencies --    388.5560               407.2602               407.4812
 Red. masses --      6.8845                 7.4133                 8.3101
 Frc consts  --      0.6124                 0.7244                 0.8130
 IR Inten    --      0.6109                 0.0151                 4.2767

                     13                     14                     15
                      A                      A                      A
 Frequencies --    483.3506               501.4301               574.8791
 Red. masses --     10.4859                 8.6254                 4.1422
 Frc consts  --      1.4434                 1.2778                 0.8066
 IR Inten    --      4.2812                 2.9600                 4.0945

                     16                     17                     18
                      A                      A                      A
 Frequencies --    592.2301               621.3297               711.0679
 Red. masses --      8.9360                 7.1463                 8.4054
 Frc consts  --      1.8466                 1.6254                 2.5040
 IR Inten    --      3.0263                 4.0920                16.9672

                     19                     20                     21
                      A                      A                      A
 Frequencies --    731.6044               763.9409               764.3773
 Red. masses --      8.4053                 8.2910                 2.4534
 Frc consts  --      2.6507                 2.8509                 0.8446
 IR Inten    --     30.2695                 0.9363                44.5554

                     22                     23                     24
                      A                      A                      A
 Frequencies --    787.0259               844.9528               848.5598
 Red. masses --      6.9003                 2.0822                11.6310
 Frc consts  --      2.5182                 0.8759                 4.9344
 IR Inten    --      0.0596                10.8811                11.9695

                     25                     26                     27
                      A                      A                      A
 Frequencies --    923.3123               966.8669              1010.6491
 Red. masses --     10.6948                 1.3934                 1.3286
 Frc consts  --      5.3718                 0.7674                 0.7996
 IR Inten    --     56.7970                 0.9749                 1.3341

                     28                     29                     30
                      A                      A                      A
 Frequencies --   1105.7458              1159.1144              1191.6444
 Red. masses --      2.0290                10.5663                 1.1848
 Frc consts  --      1.4617                 8.3642                 0.9913
 IR Inten    --      8.7993                 2.6810                 0.1168

                     31                     32                     33
                      A                      A                      A
 Frequencies --   1222.5618              1229.0795              1356.1072
 Red. masses --      3.0056                 1.9334                 8.2154
 Frc consts  --      2.6469                 1.7208                 8.9016
 IR Inten    --      3.2704                10.7347                 1.2195

                     34                     35                     36
                      A                      A                      A
 Frequencies --   1391.5770              1399.5129              1480.7196
 Red. masses --     14.6142                14.6286                 2.3902
 Frc consts  --     16.6740                16.8814                 3.0877
 IR Inten    --    387.9195                26.0734                 2.9165

                     37                     38                     39
                      A                      A                      A
 Frequencies --   1488.2229              1611.7280              1635.8448
 Red. masses --      3.5989                 6.6141                 8.6000
 Frc consts  --      4.6964                10.1228                13.5591
 IR Inten    --      6.4157                 7.6546               118.6431

                     40                     41                     42
                      A                      A                      A
 Frequencies --   1663.4957              1680.3340              2357.6472
 Red. masses --     12.9566                10.8230                12.6796
 Frc consts  --     21.1245                18.0048                41.5252
 IR Inten    --    163.6075               123.8880                 1.3261

                     43                     44                     45
                      A                      A                      A
 Frequencies --   3221.4046              3248.0499              3250.0752
 Red. masses --      1.0906                 1.0919                 1.0954
 Frc consts  --      6.6682                 6.7867                 6.8173
 IR Inten    --      1.7090                 9.2482                 0.7012

 - Thermochemistry -
 -------------------
 Temperature   298.150 Kelvin.  Pressure   1.00000 Atm.
 Atom     1 has atomic number  6 and mass  12.00000

 Molecular mass:   193.01236 amu.
 Principal axes and moments of inertia in atomic units:
                           1         2         3
     Eigenvalues --  1505.174003100.771434484.68531
           X            1.00000  -0.00000   0.00023
           Y            0.00000   1.00000  -0.00000
           Z           -0.00023   0.00000   1.00000
 This molecule is an asymmetric top.
 Rotational symmetry number  1.
 Warning -- assumption of classical behavior for rotation
           may cause significant error
 Rotational temperatures (Kelvin)      0.05754     0.02793     0.01931
 Rotational constants (GHZ):           1.19902     0.58203     0.40242
 Zero-point vibrational energy     272224.3 (Joules/Mol)
                                   65.06317 (Kcal/Mol)
 Warning -- explicit consideration of  16 degrees of freedom as
           vibrations may cause significant error
 Vibrational temperatures:     51.09    74.91    87.22   255.36   264.22
          (Kelvin)            266.56   277.05   409.72   458.52   559.04
                              585.96   586.27   695.43   721.45   827.12
                              852.09   893.95  1023.07  1052.61  1099.14
                             1099.77  1132.35  1215.70  1220.89  1328.44
                             1391.10  1454.10  1590.92  1667.70  1714.51
                             1758.99  1768.37  1951.13  2002.17  2013.58
                             2130.42  2141.22  2318.91  2353.61  2393.40
                             2417.62  3392.12  4634.88  4673.21  4676.13

 Zero-point correction=                           0.103685 (Hartree/Particle)
 Thermal correction to Energy=                    0.114941
 Thermal correction to Enthalpy=                  0.115885
 Thermal correction to Gibbs Free Energy=         0.064772
 Sum of electronic and zero-point Energies=           -733.362999
 Sum of electronic and thermal Energies=              -733.351743
 Sum of electronic and thermal Enthalpies=            -733.350799
 Sum of electronic and thermal Free Energies=         -733.401912

                     E (Thermal)             CV                S
                      KCal/Mol        Cal/Mol-Kelvin    Cal/Mol-Kelvin
 Total                   72.127             40.583            107.577
 Electronic               0.000              0.000              0.000
 Translational            0.889              2.981             41.678
 Rotational               0.889              2.981             31.415
 Vibrational             70.349             34.622             34.484
 Vibration     1          0.594              1.982              5.495
 Vibration     2          0.596              1.977              4.737
 Vibration     3          0.597              1.973              4.437
 Vibration     4          0.628              1.870              2.355
 Vibration     5          0.631              1.862              2.291
 Vibration     6          0.631              1.860              2.275
 Vibration     7          0.635              1.850              2.203
 Vibration     8          0.683              1.702              1.505
 Vibration     9          0.705              1.638              1.317
 Vibration    10          0.757              1.495              1.006
 Vibration    11          0.772              1.454              0.936
 Vibration    12          0.772              1.454              0.936
 Vibration    13          0.840              1.287              0.701
 Vibration    14          0.857              1.247              0.655
 Vibration    15          0.931              1.086              0.495
 Vibration    16          0.950              1.048              0.463

 Optimization completed.
    -- Stationary point found.
 Normal termination of Gaussian 09 at Fri Aug 20 15:50:34 2021.
