 Gaussian 09, Revision E.01,
 Gaussian 09:  ES64L-G09RevE.01 30-Nov-2015

 -------------------------
 #P OPT Freq B3LYP/6-31G**
 -------------------------

 ------
 XEKWIW
 ------
 Symbolic Z-matrix:
 Charge =  0 Multiplicity = 1

 SCF Done:  E(RB3LYP) =  -604.147094453     A.U. after   16 cycles
 SCF Done:  E(RB3LYP) =  -604.219333637     A.U. after   14 cycles
 SCF Done:  E(RB3LYP) =  -604.238690458     A.U. after   15 cycles
 SCF Done:  E(RB3LYP) =  -604.231902375     A.U. after   17 cycles
 SCF Done:  E(RB3LYP) =  -604.239066056     A.U. after   11 cycles
 SCF Done:  E(RB3LYP) =  -604.237918814     A.U. after   14 cycles
 SCF Done:  E(RB3LYP) =  -604.239299769     A.U. after   11 cycles
 SCF Done:  E(RB3LYP) =  -604.239386010     A.U. after   12 cycles
 SCF Done:  E(RB3LYP) =  -604.239422838     A.U. after   11 cycles
 SCF Done:  E(RB3LYP) =  -604.239445088     A.U. after   10 cycles
 SCF Done:  E(RB3LYP) =  -604.239458808     A.U. after   11 cycles
 SCF Done:  E(RB3LYP) =  -604.239462800     A.U. after   11 cycles
 SCF Done:  E(RB3LYP) =  -604.239463545     A.U. after   10 cycles
 SCF Done:  E(RB3LYP) =  -604.239463745     A.U. after   10 cycles
 Optimization completed.
    -- Stationary point found.
 Normal termination of Gaussian 09 at Fri Aug 20 16:01:26 2021.

 ----------------------------------------------------------------------
 #P Geom=AllCheck Guess=TCheck SCRF=Check GenChk RB3LYP/6-31G(d,p) Freq
 ----------------------------------------------------------------------

 Structure from the checkpoint file:  "/public/home/users/caep010/.cache/gau_scr/Gau-39757.chk"
 ------
 XEKWIW
 ------
 Charge =  0 Multiplicity = 1

                         Standard orientation:
 ---------------------------------------------------------------------
 Center     Atomic      Atomic             Coordinates (Angstroms)
 Number     Number       Type             X           Y           Z
 ---------------------------------------------------------------------
      1          6           0        0.625913   -1.130703    0.000284
      2          1           0        1.074746   -2.115895    0.000427
      3          6           0        1.446817   -0.003366    0.000004
      4          7           0        2.904046   -0.183031    0.000002
      5          8           0        3.604337    0.829448    0.000759
      6          8           0        3.337317   -1.335502   -0.000767
      7          6           0       -0.751678   -0.960788    0.000325
      8          1           0       -1.408786   -1.824406    0.000622
      9          6           0       -1.299498    0.334111    0.000008
     10          7           0       -2.673671    0.551848   -0.000019
     11          6           0       -3.706140   -0.083997    0.000009
     12          8           0       -4.775475   -0.570754   -0.000002
     13          6           0        0.922629    1.288222   -0.000278
     14          1           0        1.596435    2.135455   -0.000439
     15          6           0       -0.456076    1.455177   -0.000318
     16          1           0       -0.896263    2.445643   -0.000602
 ---------------------------------------------------------------------

 SCF Done:  E(RB3LYP) =  -604.239463745     A.U. after    1 cycles

 The electronic state is 1-A.
 Alpha  occ. eigenvalues --  -19.22781 -19.18596 -19.18594 -14.57777 -14.39692
 Alpha  occ. eigenvalues --  -10.35856 -10.28719 -10.26274 -10.23469 -10.23354
 Alpha  occ. eigenvalues --  -10.23261 -10.22895  -1.22913  -1.13042  -1.05630
 Alpha  occ. eigenvalues --   -0.99582  -0.90194  -0.82388  -0.79041  -0.73510
 Alpha  occ. eigenvalues --   -0.65585  -0.63666  -0.59076  -0.56029  -0.53710
 Alpha  occ. eigenvalues --   -0.52620  -0.52534  -0.49973  -0.49146  -0.48242
 Alpha  occ. eigenvalues --   -0.46880  -0.46160  -0.44141  -0.41696  -0.39157
 Alpha  occ. eigenvalues --   -0.35434  -0.33215  -0.31504  -0.31305  -0.29597
 Alpha  occ. eigenvalues --   -0.29239  -0.26718
 Alpha virt. eigenvalues --   -0.09789  -0.04093  -0.02254  -0.01142   0.06120
 Alpha virt. eigenvalues --    0.07848   0.09719   0.12603   0.14276   0.14445
 Alpha virt. eigenvalues --    0.17474   0.17931   0.23084   0.25907   0.26383

 Mulliken charges:
               1
     1  C   -0.101313
     2  H    0.146624
     3  C    0.250581
     4  N    0.385519
     5  O   -0.395893
     6  O   -0.397042
     7  C   -0.096101
     8  H    0.112935
     9  C    0.276365
    10  N   -0.500489
    11  C    0.618485
    12  O   -0.377185
    13  C   -0.094164
    14  H    0.145717
    15  C   -0.095510
    16  H    0.121472
 Sum of Mulliken charges =  -0.00000

 Dipole moment (field-independent basis, Debye):
    X=             -2.6947    Y=              0.4686    Z=              0.0001  Tot=              2.7352
 Quadrupole moment (field-independent basis, Debye-Ang):
   XX=            -90.6288   YY=            -61.7983   ZZ=            -65.6721
   XY=              0.6435   XZ=             -0.0008   YZ=             -0.0054

  Exact polarizability: 169.714   7.264  94.151  -0.000  -0.002  33.559
 Approx polarizability: 272.691  23.154 191.856   0.001   0.011  51.560

                      1                      2                      3
                      A                      A                      A
 Frequencies --     47.3787                67.5793                77.5756
 Red. masses --     11.4241                 7.3024                11.6243
 Frc consts  --      0.0151                 0.0196                 0.0412
 IR Inten    --      1.2361                 0.1700                 1.7104

                      4                      5                      6
                      A                      A                      A
 Frequencies --    131.8101               230.3779               312.9637
 Red. masses --     10.1352                 9.6340                 7.4523
 Frc consts  --      0.1037                 0.3013                 0.4301
 IR Inten    --      3.4094                 4.9533                 0.0949

                      7                      8                      9
                      A                      A                      A
 Frequencies --    326.5456               410.8650               425.7461
 Red. masses --     11.7409                 7.1802                 3.1151
 Frc consts  --      0.7376                 0.7141                 0.3327
 IR Inten    --      0.0147                11.1384                 0.0001

                     10                     11                     12
                      A                      A                      A
 Frequencies --    504.7145               537.7475               556.6804
 Red. masses --      3.0467                 6.9163                12.0782
 Frc consts  --      0.4573                 1.1784                 2.2053
 IR Inten    --      1.3081                 1.8829                24.5781

                     13                     14                     15
                      A                      A                      A
 Frequencies --    562.4264               638.6162               656.6132
 Red. masses --      8.7771                 8.0896                 9.0823
 Frc consts  --      1.6358                 1.9438                 2.3071
 IR Inten    --     12.4130                10.3588                12.4135

                     16                     17                     18
                      A                      A                      A
 Frequencies --    696.5155               757.4371               781.8871
 Red. masses --      4.0080                 5.7990                 7.4717
 Frc consts  --      1.1456                 1.9602                 2.6913
 IR Inten    --      9.9204                22.9121                 3.0780

                     19                     20                     21
                      A                      A                      A
 Frequencies --    839.8910               870.1120               874.7928
 Red. masses --      1.2594                10.0152                 1.6850
 Frc consts  --      0.5234                 4.4675                 0.7598
 IR Inten    --      0.9016                55.5987                37.7135

                     22                     23                     24
                      A                      A                      A
 Frequencies --    981.4209               990.6854              1029.3117
 Red. masses --      1.3223                 1.3134                 2.7852
 Frc consts  --      0.7504                 0.7595                 1.7386
 IR Inten    --      0.4745                 0.2213                 2.0955

                     25                     26                     27
                      A                      A                      A
 Frequencies --   1128.1066              1130.2322              1157.5250
 Red. masses --      1.2614                 2.8416                 4.0421
 Frc consts  --      0.9458                 2.1387                 3.1909
 IR Inten    --     14.9126                75.7436                57.7565

                     28                     29                     30
                      A                      A                      A
 Frequencies --   1201.1336              1317.3161              1363.7418
 Red. masses --      1.3472                 1.3519                 7.8875
 Frc consts  --      1.1451                 1.3823                 8.6428
 IR Inten    --      2.4366                 2.9335                17.5598

                     31                     32                     33
                      A                      A                      A
 Frequencies --   1394.7477              1455.3563              1492.5093
 Red. masses --     14.1266                 3.4057                 2.9174
 Frc consts  --     16.1912                 4.2501                 3.8290
 IR Inten    --    468.8442                 0.9142                 1.1527

                     34                     35                     36
                      A                      A                      A
 Frequencies --   1574.7625              1611.4212              1653.1827
 Red. masses --      5.7468                 9.9818                 6.2167
 Frc consts  --      8.3967                15.2714                10.0104
 IR Inten    --     74.0261                74.4359               160.6185

                     37                     38                     39
                      A                      A                      A
 Frequencies --   1666.4204              2375.1708              3205.8926
 Red. masses --      9.8509                12.7114                 1.0915
 Frc consts  --     16.1174                42.2506                 6.6093
 IR Inten    --    146.6932              1740.8118                 3.9695

                     40                     41                     42
                      A                      A                      A
 Frequencies --   3224.4676              3247.2896              3248.5371
 Red. masses --      1.0911                 1.0930                 1.0938
 Frc consts  --      6.6842                 6.7905                 6.8012
 IR Inten    --      1.5851                 2.4564                 2.4577

 - Thermochemistry -
 -------------------
 Temperature   298.150 Kelvin.  Pressure   1.00000 Atm.
 Atom     1 has atomic number  6 and mass  12.00000

 Molecular mass:   164.02219 amu.
 Principal axes and moments of inertia in atomic units:
                           1         2         3
     Eigenvalues --   503.985844320.446754824.43242
           X            1.00000   0.00142  -0.00000
           Y           -0.00142   1.00000  -0.00003
           Z            0.00000   0.00003   1.00000
 This molecule is an asymmetric top.
 Rotational symmetry number  1.
 Warning -- assumption of classical behavior for rotation
           may cause significant error
 Rotational temperatures (Kelvin)      0.17186     0.02005     0.01795
 Rotational constants (GHZ):           3.58094     0.41772     0.37408
 Zero-point vibrational energy     279672.0 (Joules/Mol)
                                   66.84321 (Kcal/Mol)
 Warning -- explicit consideration of  13 degrees of freedom as
           vibrations may cause significant error
 Vibrational temperatures:     68.17    97.23   111.61   189.65   331.46
          (Kelvin)            450.28   469.83   591.14   612.55   726.17
                              773.70   800.94   809.21   918.83   944.72
                             1002.13  1089.78  1124.96  1208.41  1251.90
                             1258.63  1412.04  1425.37  1480.95  1623.09
                             1626.15  1665.42  1728.16  1895.32  1962.12
                             2006.73  2093.93  2147.39  2265.73  2318.47
                             2378.56  2397.60  3417.34  4612.56  4639.28
                             4672.12  4673.91

 Zero-point correction=                           0.106521 (Hartree/Particle)
 Thermal correction to Energy=                    0.116113
 Thermal correction to Enthalpy=                  0.117057
 Thermal correction to Gibbs Free Energy=         0.069962
 Sum of electronic and zero-point Energies=           -604.132942
 Sum of electronic and thermal Energies=              -604.123351
 Sum of electronic and thermal Enthalpies=            -604.122407
 Sum of electronic and thermal Free Energies=         -604.169502

                     E (Thermal)             CV                S
                      KCal/Mol        Cal/Mol-Kelvin    Cal/Mol-Kelvin
 Total                   72.862             34.947             99.120
 Electronic               0.000              0.000              0.000
 Translational            0.889              2.981             41.193
 Rotational               0.889              2.981             30.730
 Vibrational             71.084             28.985             27.197
 Vibration     1          0.595              1.979              4.924
 Vibration     2          0.598              1.970              4.223
 Vibration     3          0.599              1.964              3.951
 Vibration     4          0.612              1.922              2.919
 Vibration     5          0.652              1.795              1.876
 Vibration     6          0.701              1.649              1.347
 Vibration     7          0.710              1.622              1.277
 Vibration     8          0.775              1.447              0.924
 Vibration     9          0.788              1.414              0.873
 Vibration    10          0.860              1.240              0.646
 Vibration    11          0.893              1.167              0.570
 Vibration    12          0.912              1.125              0.531
 Vibration    13          0.918              1.113              0.519

 Optimization completed.
    -- Stationary point found.
 Normal termination of Gaussian 09 at Fri Aug 20 16:01:48 2021.
