 Gaussian 09, Revision E.01,
 Gaussian 09:  ES64L-G09RevE.01 30-Nov-2015

 -------------------------
 #P OPT Freq B3LYP/6-31G**
 -------------------------

 --------
 SONDEE01
 --------
 Symbolic Z-matrix:
 Charge =  0 Multiplicity = 1

 SCF Done:  E(RB3LYP) =  -753.129936203     A.U. after   15 cycles
 SCF Done:  E(RB3LYP) =  -753.231220443     A.U. after   13 cycles
 SCF Done:  E(RB3LYP) =  -753.276248692     A.U. after   15 cycles
 SCF Done:  E(RB3LYP) =  -753.268722302     A.U. after   15 cycles
 SCF Done:  E(RB3LYP) =  -753.277239965     A.U. after   11 cycles
 SCF Done:  E(RB3LYP) =  -753.278184829     A.U. after   13 cycles
 SCF Done:  E(RB3LYP) =  -753.278423022     A.U. after   13 cycles
 SCF Done:  E(RB3LYP) =  -753.278525661     A.U. after   13 cycles
 SCF Done:  E(RB3LYP) =  -753.278611166     A.U. after   13 cycles
 SCF Done:  E(RB3LYP) =  -753.278687593     A.U. after   13 cycles
 SCF Done:  E(RB3LYP) =  -753.281647558     A.U. after   11 cycles
 SCF Done:  E(RB3LYP) =  -753.281654267     A.U. after   14 cycles
 SCF Done:  E(RB3LYP) =  -753.281698554     A.U. after   13 cycles
 SCF Done:  E(RB3LYP) =  -753.281728035     A.U. after   13 cycles
 SCF Done:  E(RB3LYP) =  -753.281733609     A.U. after   11 cycles
 SCF Done:  E(RB3LYP) =  -753.281736660     A.U. after   10 cycles
 SCF Done:  E(RB3LYP) =  -753.281737464     A.U. after    8 cycles
 SCF Done:  E(RB3LYP) =  -753.281737634     A.U. after    8 cycles
 SCF Done:  E(RB3LYP) =  -753.281737621     A.U. after    8 cycles
 Optimization completed.
    -- Stationary point found.
 Normal termination of Gaussian 09 at Fri Aug 20 16:18:14 2021.

 ----------------------------------------------------------------------
 #P Geom=AllCheck Guess=TCheck SCRF=Check GenChk RB3LYP/6-31G(d,p) Freq
 ----------------------------------------------------------------------

 Structure from the checkpoint file:  "/public/home/users/caep010/.cache/gau_scr/Gau-192117.chk"
 --------
 SONDEE01
 --------
 Charge =  0 Multiplicity = 1

                         Standard orientation:
 ---------------------------------------------------------------------
 Center     Atomic      Atomic             Coordinates (Angstroms)
 Number     Number       Type             X           Y           Z
 ---------------------------------------------------------------------
      1          7           0        0.935748    0.698897    0.175771
      2          6           0       -0.292226    0.204166    0.502127
      3          6           0       -1.506330    1.073589    0.716814
      4          7           0       -0.296764   -1.118893    0.625819
      5          1           0       -1.441055    1.603279    1.672731
      6          6           0        0.974480   -1.515962    0.365146
      7          1           0        1.286608   -2.549238    0.385651
      8          6           0        1.288413    2.103188   -0.044066
      9          1           0        2.038896    2.423480    0.678866
     10          6           0        1.759985   -0.417296    0.086647
     11          1           0       -1.604120    1.802772   -0.093047
     12          8           0       -2.683561    0.284982    0.799650
     13          1           0        0.388247    2.705804    0.068504
     14          6           0       -3.190608   -0.101831   -0.415868
     15          7           0       -4.242962   -0.943919   -0.224667
     16          8           0       -2.779405    0.302287   -1.484257
     17          1           0       -4.576696   -1.424596   -1.044548
     18          1           0       -4.329707   -1.408898    0.665649
     19          7           0        3.144559   -0.381089   -0.223570
     20          8           0        3.731265   -1.464727   -0.272443
     21          8           0        3.676155    0.721351   -0.421234
     22          1           0        1.695846    2.236149   -1.045802
 ---------------------------------------------------------------------

 SCF Done:  E(RB3LYP) =  -753.281737621     A.U. after    1 cycles

 The electronic state is 1-A.
 Alpha  occ. eigenvalues --  -19.20100 -19.17952 -19.17843 -19.12995 -14.57781
 Alpha  occ. eigenvalues --  -14.43158 -14.36800 -14.34043 -10.34418 -10.27952
 Alpha  occ. eigenvalues --  -10.27600 -10.27558 -10.25356 -10.23736  -1.22420
 Alpha  occ. eigenvalues --   -1.11588  -1.05507  -1.04765  -1.02149  -0.92299
 Alpha  occ. eigenvalues --   -0.91674  -0.83382  -0.76814  -0.74472  -0.69207
 Alpha  occ. eigenvalues --   -0.63840  -0.59420  -0.58192  -0.56326  -0.55557
 Alpha  occ. eigenvalues --   -0.54133  -0.52951  -0.52508  -0.50660  -0.49187
 Alpha  occ. eigenvalues --   -0.46937  -0.46446  -0.45736  -0.44824  -0.43217
 Alpha  occ. eigenvalues --   -0.42030  -0.41499  -0.37614  -0.31784  -0.31262
 Alpha  occ. eigenvalues --   -0.30847  -0.30166  -0.29654  -0.29052  -0.28658
 Alpha  occ. eigenvalues --   -0.28122  -0.25803
 Alpha virt. eigenvalues --   -0.08551   0.01131   0.04004   0.05691   0.06755
 Alpha virt. eigenvalues --    0.08162   0.10288   0.11338   0.11795   0.12464
 Alpha virt. eigenvalues --    0.14245   0.15449   0.15980   0.17000   0.19227

 Mulliken charges:
               1
     1  N   -0.501175
     2  C    0.475909
     3  C   -0.007794
     4  N   -0.481669
     5  H    0.139661
     6  C    0.081788
     7  H    0.135899
     8  C   -0.172814
     9  H    0.159966
    10  C    0.478064
    11  H    0.150558
    12  O   -0.476940
    13  H    0.122468
    14  C    0.771536
    15  N   -0.622494
    16  O   -0.502476
    17  H    0.288430
    18  H    0.288842
    19  N    0.336369
    20  O   -0.402322
    21  O   -0.428175
    22  H    0.166368
 Sum of Mulliken charges =  -0.00000

 Dipole moment (field-independent basis, Debye):
    X=             -3.7223    Y=              1.5226    Z=              1.9404  Tot=              4.4653
 Quadrupole moment (field-independent basis, Debye-Ang):
   XX=            -88.4688   YY=            -70.0665   ZZ=            -80.7679
   XY=             10.8241   XZ=             -0.1460   YZ=              2.9784

  Exact polarizability: 137.452   5.602 103.543 -10.058  -2.599  65.068
 Approx polarizability: 200.434  14.255 184.947 -26.299 -11.490 107.848

                      1                      2                      3
                      A                      A                      A
 Frequencies --     16.2413                45.3030                65.0796
 Red. masses --      6.2231                 8.2799                 5.3869
 Frc consts  --      0.0010                 0.0100                 0.0134
 IR Inten    --      0.9805                 1.6270                 7.7473

                      4                      5                      6
                      A                      A                      A
 Frequencies --     66.5385                99.9362               137.6206
 Red. masses --      5.3487                 6.0953                 1.0946
 Frc consts  --      0.0140                 0.0359                 0.0122
 IR Inten    --      5.2225                 2.5376                 0.2493

                      7                      8                      9
                      A                      A                      A
 Frequencies --    177.7019               228.6178               267.8376
 Red. masses --      7.4543                 4.3942                 6.4610
 Frc consts  --      0.1387                 0.1353                 0.2731
 IR Inten    --      5.3098                 0.0513                 1.6243

                     10                     11                     12
                      A                      A                      A
 Frequencies --    271.1101               294.0250               330.6892
 Red. masses --      6.6697                 3.4574                 2.8716
 Frc consts  --      0.2888                 0.1761                 0.1850
 IR Inten    --      0.7133                11.3737                19.7724

                     13                     14                     15
                      A                      A                      A
 Frequencies --    375.6764               402.5666               454.1599
 Red. masses --      5.2325                 1.2506                 5.6352
 Frc consts  --      0.4351                 0.1194                 0.6848
 IR Inten    --      0.6134               326.2302                 0.9552

                     16                     17                     18
                      A                      A                      A
 Frequencies --    493.0139               527.5710               602.3208
 Red. masses --      1.5568                 1.8887                 4.4778
 Frc consts  --      0.2229                 0.3097                 0.9571
 IR Inten    --      3.7680                15.6451                 1.6225

                     19                     20                     21
                      A                      A                      A
 Frequencies --    613.9238               658.7883               684.2595
 Red. masses --      4.8527                 4.8756                 4.6836
 Frc consts  --      1.0776                 1.2467                 1.2920
 IR Inten    --      9.3224                 0.7824                 0.8214

                     22                     23                     24
                      A                      A                      A
 Frequencies --    696.1316               749.6968               766.8660
 Red. masses --      6.4043                10.4856                 9.3784
 Frc consts  --      1.8285                 3.4723                 3.2495
 IR Inten    --      5.1960                14.4801                19.7021

                     25                     26                     27
                      A                      A                      A
 Frequencies --    797.6623               837.2673               876.5747
 Red. masses --      5.7224                12.8593                 3.4952
 Frc consts  --      2.1452                 5.3113                 1.5823
 IR Inten    --     37.8014                35.6593                30.0176

                     28                     29                     30
                      A                      A                      A
 Frequencies --    892.8778               963.6544              1039.8486
 Red. masses --      1.4118                 3.4130                 1.9885
 Frc consts  --      0.6632                 1.8673                 1.2668
 IR Inten    --     12.2474                11.1700                 2.9359

                     31                     32                     33
                      A                      A                      A
 Frequencies --   1121.9156              1132.0099              1150.8782
 Red. masses --      2.3318                 2.2462                 1.3035
 Frc consts  --      1.7293                 1.6959                 1.0172
 IR Inten    --     15.6074                67.0054                 0.2097

                     34                     35                     36
                      A                      A                      A
 Frequencies --   1161.5260              1178.7395              1224.3484
 Red. masses --      3.3493                 2.0731                 3.2451
 Frc consts  --      2.6623                 1.6971                 2.8661
 IR Inten    --    117.3478                 4.7635                91.6200

                     37                     38                     39
                      A                      A                      A
 Frequencies --   1312.6065              1315.3786              1358.0162
 Red. masses --      2.7688                 1.4806                 2.2621
 Frc consts  --      2.8107                 1.5093                 2.4580
 IR Inten    --     69.6934                69.3666               489.3667

                     40                     41                     42
                      A                      A                      A
 Frequencies --   1379.5100              1413.0017              1422.6979
 Red. masses --      4.4279                 2.2643                 6.7957
 Frc consts  --      4.9647                 2.6636                 8.1042
 IR Inten    --     35.6922                34.6919               221.1948

                     43                     44                     45
                      A                      A                      A
 Frequencies --   1468.2659              1479.3548              1491.8419
 Red. masses --      1.4297                 1.1641                 1.0639
 Frc consts  --      1.8159                 1.5010                 1.3950
 IR Inten    --     23.4780                45.9133                 8.6633

                     46                     47                     48
                      A                      A                      A
 Frequencies --   1496.8533              1515.5740              1530.2587
 Red. masses --      1.9271                 3.0441                 1.7598
 Frc consts  --      2.5440                 4.1196                 2.4280
 IR Inten    --      7.2472               112.5592                66.8551

                     49                     50                     51
                      A                      A                      A
 Frequencies --   1561.0795              1615.9907              1623.6793
 Red. masses --      4.8950                11.3320                 1.2469
 Frc consts  --      7.0284                17.4356                 1.9368
 IR Inten    --     39.6319               183.1404               151.4820

                     52                     53                     54
                      A                      A                      A
 Frequencies --   1853.0688              3063.2206              3092.4268
 Red. masses --      9.8797                 1.0572                 1.0321
 Frc consts  --     19.9884                 5.8445                 5.8155
 IR Inten    --    334.0072                19.0743                16.0001

                     55                     56                     57
                      A                      A                      A
 Frequencies --   3111.7277              3173.1245              3185.9668
 Red. masses --      1.1064                 1.1062                 1.1061
 Frc consts  --      6.3118                 6.5622                 6.6147
 IR Inten    --      4.9147                 3.5954                 7.5499

                     58                     59                     60
                      A                      A                      A
 Frequencies --   3285.2163              3615.4624              3748.4388
 Red. masses --      1.0981                 1.0458                 1.1042
 Frc consts  --      6.9829                 8.0539                 9.1411
 IR Inten    --      0.6978                57.9124                56.1798

 - Thermochemistry -
 -------------------
 Temperature   298.150 Kelvin.  Pressure   1.00000 Atm.
 Atom     1 has atomic number  7 and mass  14.00307

 Molecular mass:   200.05455 amu.
 Principal axes and moments of inertia in atomic units:
                           1         2         3
     Eigenvalues --  1042.247725106.482025606.89938
           X            0.99993   0.01196  -0.00009
           Y           -0.01196   0.99986   0.01136
           Z            0.00023  -0.01136   0.99994
 This molecule is an asymmetric top.
 Rotational symmetry number  1.
 Warning -- assumption of classical behavior for rotation
           may cause significant error
 Rotational temperatures (Kelvin)      0.08310     0.01696     0.01545
 Rotational constants (GHZ):           1.73159     0.35342     0.32188
 Zero-point vibrational energy     427759.1 (Joules/Mol)
                                  102.23688 (Kcal/Mol)
 Warning -- explicit consideration of  19 degrees of freedom as
           vibrations may cause significant error
 Vibrational temperatures:     23.37    65.18    93.63    95.73   143.79
          (Kelvin)            198.01   255.67   328.93   385.36   390.07
                              423.04   475.79   540.51   579.20   653.43
                              709.34   759.06   866.60   883.30   947.85
                              984.50  1001.58  1078.65  1103.35  1147.66
                             1204.64  1261.19  1284.65  1386.48  1496.11
                             1614.18  1628.71  1655.86  1671.17  1695.94
                             1761.56  1888.55  1892.53  1953.88  1984.80
                             2032.99  2046.94  2112.50  2128.46  2146.43
                             2153.64  2180.57  2201.70  2246.04  2325.05
                             2336.11  2666.15  4407.29  4449.31  4477.08
                             4565.41  4583.89  4726.69  5201.84  5393.16

 Zero-point correction=                           0.162925 (Hartree/Particle)
 Thermal correction to Energy=                    0.176097
 Thermal correction to Enthalpy=                  0.177041
 Thermal correction to Gibbs Free Energy=         0.120781
 Sum of electronic and zero-point Energies=           -753.118813
 Sum of electronic and thermal Energies=              -753.105640
 Sum of electronic and thermal Enthalpies=            -753.104696
 Sum of electronic and thermal Free Energies=         -753.160957

                     E (Thermal)             CV                S
                      KCal/Mol        Cal/Mol-Kelvin    Cal/Mol-Kelvin
 Total                  110.503             46.821            118.411
 Electronic               0.000              0.000              0.000
 Translational            0.889              2.981             41.785
 Rotational               0.889              2.981             31.768
 Vibrational            108.725             40.859             44.858
 Vibration     1          0.593              1.986              7.048
 Vibration     2          0.595              1.979              5.013
 Vibration     3          0.597              1.971              4.297
 Vibration     4          0.598              1.970              4.253
 Vibration     5          0.604              1.949              3.456
 Vibration     6          0.614              1.916              2.837
 Vibration     7          0.628              1.870              2.352
 Vibration     8          0.651              1.797              1.890
 Vibration     9          0.673              1.732              1.610
 Vibration    10          0.675              1.726              1.589
 Vibration    11          0.689              1.685              1.451
 Vibration    12          0.713              1.614              1.257
 Vibration    13          0.747              1.522              1.057
 Vibration    14          0.768              1.465              0.953
 Vibration    15          0.813              1.352              0.783
 Vibration    16          0.849              1.266              0.676
 Vibration    17          0.883              1.189              0.593
 Vibration    18          0.961              1.027              0.446
 Vibration    19          0.973              1.002              0.426

 Optimization completed.
    -- Stationary point found.
 Normal termination of Gaussian 09 at Fri Aug 20 16:18:53 2021.
