 Gaussian 09, Revision E.01,
 Gaussian 09:  ES64L-G09RevE.01 30-Nov-2015

 -------------------------
 #P OPT Freq B3LYP/6-31G**
 -------------------------

 --------
 SOJGED01
 --------
 Symbolic Z-matrix:
 Charge =  0 Multiplicity = 1

 SCF Done:  E(RB3LYP) =  -603.055331778     A.U. after   16 cycles
 SCF Done:  E(RB3LYP) =  -603.131967163     A.U. after   14 cycles
 SCF Done:  E(RB3LYP) =  -603.151124716     A.U. after   15 cycles
 SCF Done:  E(RB3LYP) =  -603.148335827     A.U. after   15 cycles
 SCF Done:  E(RB3LYP) =  -603.152031561     A.U. after   11 cycles
 SCF Done:  E(RB3LYP) =  -603.151568371     A.U. after   14 cycles
 SCF Done:  E(RB3LYP) =  -603.152583833     A.U. after   11 cycles
 SCF Done:  E(RB3LYP) =  -603.152720741     A.U. after   11 cycles
 SCF Done:  E(RB3LYP) =  -603.152735177     A.U. after   12 cycles
 SCF Done:  E(RB3LYP) =  -603.152740505     A.U. after   10 cycles
 SCF Done:  E(RB3LYP) =  -603.152741369     A.U. after    9 cycles
 SCF Done:  E(RB3LYP) =  -603.152741441     A.U. after    8 cycles
 Optimization completed.
    -- Stationary point found.
 Normal termination of Gaussian 09 at Fri Aug 20 15:43:22 2021.

 ----------------------------------------------------------------------
 #P Geom=AllCheck Guess=TCheck SCRF=Check GenChk RB3LYP/6-31G(d,p) Freq
 ----------------------------------------------------------------------

 Structure from the checkpoint file:  "/public/home/users/caep010/.cache/gau_scr/Gau-130154.chk"
 --------
 SOJGED01
 --------
 Charge =  0 Multiplicity = 1

                         Standard orientation:
 ---------------------------------------------------------------------
 Center     Atomic      Atomic             Coordinates (Angstroms)
 Number     Number       Type             X           Y           Z
 ---------------------------------------------------------------------
      1          8           0        0.278621   -0.772090   -0.000198
      2          6           0        1.204132    0.207553   -0.000068
      3          6           0       -0.942206   -0.146396    0.000175
      4          6           0       -0.763905    1.223774    0.000252
      5          6           0        0.634795    1.452223    0.000295
      6          7           0        2.579617   -0.182332   -0.000088
      7          1           0       -1.555000    1.954713    0.000501
      8          6           0       -2.072468   -1.046099    0.000246
      9          8           0        2.840183   -1.384164    0.000128
     10          7           0       -3.328370   -0.763382    0.000020
     11          8           0       -3.561942    0.611264   -0.000265
     12          1           0       -4.527950    0.659611   -0.001185
     13          8           0        3.398586    0.742206   -0.000290
     14          1           0       -1.847820   -2.109079    0.000324
     15          1           0        1.166361    2.390683    0.000443
 ---------------------------------------------------------------------

 SCF Done:  E(RB3LYP) =  -603.152741441     A.U. after    1 cycles

 The electronic state is 1-A.
 Alpha  occ. eigenvalues --  -19.26032 -19.22022 -19.18569 -19.18381 -14.58269
 Alpha  occ. eigenvalues --  -14.41496 -10.31061 -10.28909 -10.25412 -10.23650
 Alpha  occ. eigenvalues --  -10.22807  -1.23243  -1.15953  -1.11208  -1.05709
 Alpha  occ. eigenvalues --   -0.89338  -0.85000  -0.82918  -0.73318  -0.65951
 Alpha  occ. eigenvalues --   -0.61352  -0.59010  -0.57710  -0.54791  -0.54669
 Alpha  occ. eigenvalues --   -0.51102  -0.49041  -0.48709  -0.47784  -0.44980
 Alpha  occ. eigenvalues --   -0.43477  -0.43448  -0.41845  -0.32367  -0.31700
 Alpha  occ. eigenvalues --   -0.31450  -0.31026  -0.30564  -0.29646  -0.25210
 Alpha virt. eigenvalues --   -0.10354  -0.04717   0.03842   0.04902   0.07832
 Alpha virt. eigenvalues --    0.09110   0.11688   0.13020   0.14315   0.15491
 Alpha virt. eigenvalues --    0.17591   0.21740   0.25131   0.27433   0.30962

 Mulliken charges:
               1
     1  O   -0.453259
     2  C    0.526450
     3  C    0.338962
     4  C   -0.123520
     5  C   -0.092589
     6  N    0.335171
     7  H    0.139888
     8  C    0.042994
     9  O   -0.385988
    10  N   -0.158026
    11  O   -0.412954
    12  H    0.346635
    13  O   -0.400661
    14  H    0.150137
    15  H    0.146760
 Sum of Mulliken charges =   0.00000

 Dipole moment (field-independent basis, Debye):
    X=             -4.6886    Y=              2.1992    Z=             -0.0008  Tot=              5.1787
 Quadrupole moment (field-independent basis, Debye-Ang):
   XX=            -65.5163   YY=            -58.4391   ZZ=            -60.4727
   XY=             -1.4821   XZ=              0.0084   YZ=              0.0001

  Exact polarizability: 152.479   0.156  82.932   0.002  -0.001  30.367
 Approx polarizability: 252.471   2.090 168.048  -0.003  -0.004  46.952

                      1                      2                      3
                      A                      A                      A
 Frequencies --     63.6336                77.3187               138.7222
 Red. masses --      6.2414                 9.7586                 8.3364
 Frc consts  --      0.0149                 0.0344                 0.0945
 IR Inten    --      0.7564                 0.3713                 1.5688

                      4                      5                      6
                      A                      A                      A
 Frequencies --    160.5528               215.7168               241.0229
 Red. masses --      7.4485                 7.7727                 6.3057
 Frc consts  --      0.1131                 0.2131                 0.2158
 IR Inten    --      0.4539                 0.3842                 6.3964

                      7                      8                      9
                      A                      A                      A
 Frequencies --    328.6027               431.8020               436.5036
 Red. masses --      7.2600                 1.4542                10.6646
 Frc consts  --      0.4619                 0.1597                 1.1972
 IR Inten    --      1.3474                68.0575                 0.7034

                     10                     11                     12
                      A                      A                      A
 Frequencies --    532.3650               551.0646               599.9655
 Red. masses --      7.1131                 2.9286                 5.4756
 Frc consts  --      1.1878                 0.5240                 1.1613
 IR Inten    --      1.5031                54.0881                 4.8180

                     13                     14                     15
                      A                      A                      A
 Frequencies --    620.5160               697.6592               747.0975
 Red. masses --      7.9397                 4.4779                 8.2185
 Frc consts  --      1.8012                 1.2841                 2.7027
 IR Inten    --      2.7714                 1.7219                18.6671

                     16                     17                     18
                      A                      A                      A
 Frequencies --    821.7350               837.0002               839.9671
 Red. masses --     12.0456                 1.2900                 5.4814
 Frc consts  --      4.7923                 0.5324                 2.2786
 IR Inten    --     38.0778                32.2242                44.7544

                     19                     20                     21
                      A                      A                      A
 Frequencies --    905.9883               917.8261               954.3142
 Red. masses --      1.2610                 1.3661                 7.4702
 Frc consts  --      0.6098                 0.6780                 4.0084
 IR Inten    --     14.1194                 0.5846               151.6250

                     22                     23                     24
                      A                      A                      A
 Frequencies --    994.4818              1004.7377              1049.9636
 Red. masses --      5.1609                 4.5256                 1.2987
 Frc consts  --      3.0072                 2.6917                 0.8436
 IR Inten    --     33.7486                44.1874                36.1834

                     25                     26                     27
                      A                      A                      A
 Frequencies --   1203.3401              1222.7828              1292.2437
 Red. masses --      3.2565                 2.4773                 4.2878
 Frc consts  --      2.7783                 2.1824                 4.2186
 IR Inten    --     47.8587                 0.6698                30.2432

                     28                     29                     30
                      A                      A                      A
 Frequencies --   1341.0796              1385.6104              1401.5264
 Red. masses --      1.4224                 1.4914                10.2679
 Frc consts  --      1.5072                 1.6870                11.8832
 IR Inten    --    156.0974                59.0219               407.6016

                     31                     32                     33
                      A                      A                      A
 Frequencies --   1437.7436              1524.6383              1613.1740
 Red. masses --      2.8690                 9.6918                 7.2161
 Frc consts  --      3.4941                13.2736                11.0641
 IR Inten    --     49.7137                48.8700                50.9855

                     34                     35                     36
                      A                      A                      A
 Frequencies --   1639.5697              1705.7913              3203.5257
 Red. masses --     11.7801                 6.1802                 1.0901
 Frc consts  --     18.6577                10.5950                 6.5916
 IR Inten    --    163.8257                 0.9719                 2.9059

                     37                     38                     39
                      A                      A                      A
 Frequencies --   3298.8499              3318.0887              3811.1096
 Red. masses --      1.0965                 1.0997                 1.0679
 Frc consts  --      7.0307                 7.1338                 9.1387
 IR Inten    --      2.3068                 2.8870               144.6687

 - Thermochemistry -
 -------------------
 Temperature   298.150 Kelvin.  Pressure   1.00000 Atm.
 Atom     1 has atomic number  8 and mass  15.99491

 Molecular mass:   156.01711 amu.
 Principal axes and moments of inertia in atomic units:
                           1         2         3
     Eigenvalues --   483.012273161.516023644.52822
           X            1.00000   0.00067   0.00001
           Y           -0.00067   1.00000   0.00000
           Z           -0.00001  -0.00000   1.00000
 This molecule is an asymmetric top.
 Rotational symmetry number  1.
 Warning -- assumption of classical behavior for rotation
           may cause significant error
 Rotational temperatures (Kelvin)      0.17932     0.02740     0.02377
 Rotational constants (GHZ):           3.73643     0.57085     0.49519
 Zero-point vibrational energy     260592.3 (Joules/Mol)
                                   62.28306 (Kcal/Mol)
 Warning -- explicit consideration of  13 degrees of freedom as
           vibrations may cause significant error
 Vibrational temperatures:     91.55   111.24   199.59   231.00   310.37
          (Kelvin)            346.78   472.79   621.27   628.03   765.95
                              792.86   863.22   892.78  1003.77  1074.91
                             1182.29  1204.26  1208.52  1303.51  1320.55
                             1373.04  1430.84  1445.59  1510.66  1731.34
                             1759.31  1859.25  1929.51  1993.58  2016.48
                             2068.59  2193.61  2320.99  2358.97  2454.25
                             4609.15  4746.30  4773.98  5483.33

 Zero-point correction=                           0.099254 (Hartree/Particle)
 Thermal correction to Energy=                    0.108392
 Thermal correction to Enthalpy=                  0.109336
 Thermal correction to Gibbs Free Energy=         0.063957
 Sum of electronic and zero-point Energies=           -603.053487
 Sum of electronic and thermal Energies=              -603.044350
 Sum of electronic and thermal Enthalpies=            -603.043405
 Sum of electronic and thermal Free Energies=         -603.088784

                     E (Thermal)             CV                S
                      KCal/Mol        Cal/Mol-Kelvin    Cal/Mol-Kelvin
 Total                   68.017             33.077             95.508
 Electronic               0.000              0.000              0.000
 Translational            0.889              2.981             41.044
 Rotational               0.889              2.981             30.099
 Vibrational             66.239             27.115             24.365
 Vibration     1          0.597              1.972              4.341
 Vibration     2          0.599              1.964              3.958
 Vibration     3          0.614              1.915              2.821
 Vibration     4          0.622              1.891              2.543
 Vibration     5          0.645              1.817              1.995
 Vibration     6          0.658              1.778              1.795
 Vibration     7          0.712              1.618              1.267
 Vibration     8          0.793              1.401              0.853
 Vibration     9          0.797              1.391              0.838
 Vibration    10          0.887              1.178              0.582
 Vibration    11          0.906              1.137              0.542
 Vibration    12          0.958              1.032              0.450
 Vibration    13          0.981              0.989              0.416

 Optimization completed.
    -- Stationary point found.
 Normal termination of Gaussian 09 at Fri Aug 20 15:43:41 2021.
