 Gaussian 09, Revision E.01,
 Gaussian 09:  ES64L-G09RevE.01 30-Nov-2015

 -------------------------
 #P OPT Freq B3LYP/6-31G**
 -------------------------

 ------
 KAJFAD
 ------
 Symbolic Z-matrix:
 Charge =  0 Multiplicity = 1

 SCF Done:  E(RB3LYP) =  -661.779179256     A.U. after   17 cycles
 SCF Done:  E(RB3LYP) =  -661.889437574     A.U. after   13 cycles
 SCF Done:  E(RB3LYP) =  -661.949004157     A.U. after   15 cycles
 SCF Done:  E(RB3LYP) =  -661.952049810     A.U. after   14 cycles
 SCF Done:  E(RB3LYP) =  -661.942795981     A.U. after   16 cycles
 SCF Done:  E(RB3LYP) =  -661.952265920     A.U. after   12 cycles
 SCF Done:  E(RB3LYP) =  -661.952636647     A.U. after   13 cycles
 SCF Done:  E(RB3LYP) =  -661.952723557     A.U. after   12 cycles
 SCF Done:  E(RB3LYP) =  -661.952760829     A.U. after   11 cycles
 SCF Done:  E(RB3LYP) =  -661.952785832     A.U. after   11 cycles
 SCF Done:  E(RB3LYP) =  -661.952792864     A.U. after   11 cycles
 SCF Done:  E(RB3LYP) =  -661.952797914     A.U. after   11 cycles
 SCF Done:  E(RB3LYP) =  -661.952800633     A.U. after   11 cycles
 SCF Done:  E(RB3LYP) =  -661.952801653     A.U. after   10 cycles
 SCF Done:  E(RB3LYP) =  -661.952801630     A.U. after    8 cycles
 SCF Done:  E(RB3LYP) =  -661.952801607     A.U. after    7 cycles
 Optimization completed.
    -- Stationary point found.
 Normal termination of Gaussian 09 at Fri Aug 20 16:04:10 2021.

 ----------------------------------------------------------------------
 #P Geom=AllCheck Guess=TCheck SCRF=Check GenChk RB3LYP/6-31G(d,p) Freq
 ----------------------------------------------------------------------

 Structure from the checkpoint file:  "/public/home/users/caep010/.cache/gau_scr/Gau-110344.chk"
 ------
 KAJFAD
 ------
 Charge =  0 Multiplicity = 1

                         Standard orientation:
 ---------------------------------------------------------------------
 Center     Atomic      Atomic             Coordinates (Angstroms)
 Number     Number       Type             X           Y           Z
 ---------------------------------------------------------------------
      1          8           0       -1.810587    2.440087    0.024583
      2          7           0       -0.765818    1.687958    0.008448
      3          6           0       -0.945326    0.317536   -0.213561
      4          6           0        0.484551    2.196836    0.200456
      5          6           0        1.608274    1.395103    0.192263
      6          1           0        2.592992    1.812082    0.348689
      7          1           0        0.493914    3.266458    0.358009
      8          6           0        1.431762    0.029350   -0.019255
      9          6           0        0.169710   -0.519752   -0.219791
     10          1           0        0.065944   -1.583795   -0.378371
     11          7           0        2.597121   -0.853698   -0.027022
     12          8           0        2.402050   -2.057280   -0.208561
     13          7           0       -2.234943   -0.023199   -0.424007
     14          6           0       -2.735075   -1.386052   -0.496741
     15          6           0       -2.890201   -2.070649    0.866354
     16          1           0       -3.586170   -1.516061    1.502750
     17          1           0       -2.858828    0.767297   -0.282680
     18          1           0       -2.072123   -1.970730   -1.145098
     19          1           0       -3.700872   -1.342632   -1.008762
     20          8           0        3.703201   -0.340471    0.148604
     21          1           0       -3.277300   -3.086622    0.738757
     22          1           0       -1.931556   -2.136355    1.389420
 ---------------------------------------------------------------------

 SCF Done:  E(RB3LYP) =  -661.952801607     A.U. after    1 cycles

 The electronic state is 1-A.
 Alpha  occ. eigenvalues --  -19.18349 -19.18346 -19.14090 -14.57564 -14.49164
 Alpha  occ. eigenvalues --  -14.37611 -10.29805 -10.26455 -10.25601 -10.24849
 Alpha  occ. eigenvalues --  -10.22934 -10.22666 -10.19850  -1.22632  -1.12395
 Alpha  occ. eigenvalues --   -1.05346  -0.96893  -0.91527  -0.84163  -0.80685
 Alpha  occ. eigenvalues --   -0.76162  -0.72954  -0.69096  -0.64537  -0.61537
 Alpha  occ. eigenvalues --   -0.57283  -0.55917  -0.53541  -0.52058  -0.51094
 Alpha  occ. eigenvalues --   -0.50721  -0.49467  -0.48655  -0.48207  -0.45304
 Alpha  occ. eigenvalues --   -0.43603  -0.42943  -0.41421  -0.39285  -0.37357
 Alpha  occ. eigenvalues --   -0.36231  -0.33994  -0.31200  -0.31191  -0.29479
 Alpha  occ. eigenvalues --   -0.27194  -0.26025  -0.21730
 Alpha virt. eigenvalues --   -0.09894  -0.03146  -0.00986   0.06923   0.08175
 Alpha virt. eigenvalues --    0.10313   0.11622   0.13005   0.14051   0.14197
 Alpha virt. eigenvalues --    0.14582   0.16261   0.16857   0.17937   0.19109

 Mulliken charges:
               1
     1  O   -0.527662
     2  N   -0.099796
     3  C    0.574974
     4  C    0.130987
     5  C   -0.154566
     6  H    0.147128
     7  H    0.149014
     8  C    0.269201
     9  C   -0.163027
    10  H    0.144937
    11  N    0.387160
    12  O   -0.402987
    13  N   -0.578996
    14  C   -0.060763
    15  C   -0.315593
    16  H    0.119325
    17  H    0.295569
    18  H    0.122480
    19  H    0.124385
    20  O   -0.399222
    21  H    0.116040
    22  H    0.121413
 Sum of Mulliken charges =  -0.00000

 Dipole moment (field-independent basis, Debye):
    X=             -3.3203    Y=             -0.3924    Z=              0.0336  Tot=              3.3436
 Quadrupole moment (field-independent basis, Debye-Ang):
   XX=            -81.4652   YY=            -77.7425   ZZ=            -74.5017
   XY=             16.2440   XZ=              0.9628   YZ=              0.8620

  Exact polarizability: 160.944  -5.277 131.138   5.847   7.733  52.529
 Approx polarizability: 300.173 -43.263 256.874  14.668  21.181  79.585

                      1                      2                      3
                      A                      A                      A
 Frequencies --     44.3303                55.6170                70.9518
 Red. masses --      4.5810                 3.1260                 7.1681
 Frc consts  --      0.0053                 0.0057                 0.0213
 IR Inten    --      1.8041                 0.1148                 0.7270

                      4                      5                      6
                      A                      A                      A
 Frequencies --    118.3715               156.6533               197.4406
 Red. masses --      9.6976                 2.2029                 4.7999
 Frc consts  --      0.0801                 0.0319                 0.1102
 IR Inten    --      6.4072                 0.7727                 0.0783

                      7                      8                      9
                      A                      A                      A
 Frequencies --    225.5205               285.4747               333.8505
 Red. masses --      1.5747                 2.6618                 5.8240
 Frc consts  --      0.0472                 0.1278                 0.3824
 IR Inten    --      0.9019                 5.7673                 1.2649

                     10                     11                     12
                      A                      A                      A
 Frequencies --    354.8093               365.4520               442.2404
 Red. masses --      6.0392                 8.8989                 3.4373
 Frc consts  --      0.4479                 0.7002                 0.3961
 IR Inten    --      2.8880                 2.3871                13.9562

                     13                     14                     15
                      A                      A                      A
 Frequencies --    464.3108               505.6064               545.6294
 Red. masses --      3.5493                 3.3290                 2.2512
 Frc consts  --      0.4508                 0.5014                 0.3949
 IR Inten    --      3.7450                18.5517                34.4390

                     16                     17                     18
                      A                      A                      A
 Frequencies --    570.1314               585.5953               618.0702
 Red. masses --      5.1445                 2.0142                 4.0271
 Frc consts  --      0.9852                 0.4070                 0.9064
 IR Inten    --      2.5266                40.4984                 1.9026

                     19                     20                     21
                      A                      A                      A
 Frequencies --    670.9339               695.4474               746.3106
 Red. masses --      8.1853                 6.1007                 5.3188
 Frc consts  --      2.1709                 1.7384                 1.7454
 IR Inten    --     27.9224                 4.9859                28.4222

                     22                     23                     24
                      A                      A                      A
 Frequencies --    781.8698               817.6844               829.1062
 Red. masses --      1.4987                 1.4299                 5.6910
 Frc consts  --      0.5398                 0.5633                 2.3049
 IR Inten    --     14.9213                10.4127                 8.3870

                     25                     26                     27
                      A                      A                      A
 Frequencies --    846.9457               874.5892               908.4491
 Red. masses --      2.8271                 1.4668                 2.4369
 Frc consts  --      1.1948                 0.6611                 1.1849
 IR Inten    --      5.4628                28.6006                 2.0539

                     28                     29                     30
                      A                      A                      A
 Frequencies --    930.2592               974.0710              1077.9987
 Red. masses --      1.2588                 3.7752                 2.5619
 Frc consts  --      0.6418                 2.1104                 1.7541
 IR Inten    --      0.0482                26.6271                 8.9508

                     31                     32                     33
                      A                      A                      A
 Frequencies --   1103.0960              1126.9326              1138.2814
 Red. masses --      1.7080                 1.9649                 1.6237
 Frc consts  --      1.2245                 1.4702                 1.2395
 IR Inten    --     56.8878                54.8159                 1.7931

                     34                     35                     36
                      A                      A                      A
 Frequencies --   1171.4438              1239.4031              1283.7453
 Red. masses --      1.7466                 1.9061                 6.1437
 Frc consts  --      1.4122                 1.7252                 5.9654
 IR Inten    --     30.8384                 1.2920               131.3918

                     37                     38                     39
                      A                      A                      A
 Frequencies --   1295.1308              1336.2843              1373.9437
 Red. masses --      1.5540                 1.2113                 4.9575
 Frc consts  --      1.5358                 1.2743                 5.5138
 IR Inten    --      4.4919                33.3605               415.0905

                     40                     41                     42
                      A                      A                      A
 Frequencies --   1394.2380              1396.6510              1425.6669
 Red. masses --      6.0016                 1.3269                 1.2571
 Frc consts  --      6.8737                 1.5249                 1.5055
 IR Inten    --    159.1809                41.0876                13.5902

                     43                     44                     45
                      A                      A                      A
 Frequencies --   1484.6083              1498.8806              1505.5057
 Red. masses --      2.6023                 1.4488                 1.0627
 Frc consts  --      3.3793                 1.9177                 1.4191
 IR Inten    --      7.9694                14.5440                 0.6412

                     46                     47                     48
                      A                      A                      A
 Frequencies --   1508.9332              1522.4318              1566.5209
 Red. masses --      1.4723                 1.1113                 5.5621
 Frc consts  --      1.9751                 1.5176                 8.0420
 IR Inten    --      9.9425                11.4715                70.5931

                     49                     50                     51
                      A                      A                      A
 Frequencies --   1608.6155              1648.5896              1688.2298
 Red. masses --      5.8774                11.1866                 6.6970
 Frc consts  --      8.9607                17.9131                11.2459
 IR Inten    --    336.8923               139.3457               235.7150

                     52                     53                     54
                      A                      A                      A
 Frequencies --   3051.3713              3054.8638              3099.8990
 Red. masses --      1.0370                 1.0621                 1.1019
 Frc consts  --      5.6887                 5.8398                 6.2386
 IR Inten    --     15.7465                33.2124                 7.2438

                     55                     56                     57
                      A                      A                      A
 Frequencies --   3127.3051              3133.6867              3259.6941
 Red. masses --      1.1023                 1.1043                 1.0898
 Frc consts  --      6.3519                 6.3889                 6.8224
 IR Inten    --     31.1909                29.7429                 4.6010

                     58                     59                     60
                      A                      A                      A
 Frequencies --   3261.0009              3270.9146              3533.4761
 Red. masses --      1.0906                 1.0967                 1.0749
 Frc consts  --      6.8332                 6.9134                 7.9070
 IR Inten    --      3.5544                 6.1065                55.8938

 - Thermochemistry -
 -------------------
 Temperature   298.150 Kelvin.  Pressure   1.00000 Atm.
 Atom     1 has atomic number  8 and mass  15.99491

 Molecular mass:   183.06439 amu.
 Principal axes and moments of inertia in atomic units:
                           1         2         3
     Eigenvalues --  1561.039243155.685054536.90121
           X            0.99727   0.07383  -0.00335
           Y           -0.07384   0.99726  -0.00481
           Z            0.00298   0.00505   0.99998
 This molecule is an asymmetric top.
 Rotational symmetry number  1.
 Warning -- assumption of classical behavior for rotation
           may cause significant error
 Rotational temperatures (Kelvin)      0.05548     0.02745     0.01909
 Rotational constants (GHZ):           1.15612     0.57190     0.39779
 Zero-point vibrational energy     443832.9 (Joules/Mol)
                                  106.07861 (Kcal/Mol)
 Warning -- explicit consideration of  18 degrees of freedom as
           vibrations may cause significant error
 Vibrational temperatures:     63.78    80.02   102.08   170.31   225.39
          (Kelvin)            284.07   324.47   410.73   480.34   510.49
                              525.80   636.28   668.04   727.45   785.04
                              820.29   842.54   889.26   965.32  1000.59
                             1073.77  1124.93  1176.46  1192.90  1218.56
                             1258.34  1307.05  1338.43  1401.47  1551.00
                             1587.11  1621.40  1637.73  1685.44  1783.22
                             1847.02  1863.40  1922.61  1976.80  2006.00
                             2009.47  2051.21  2136.02  2156.55  2166.08
                             2171.02  2190.44  2253.87  2314.44  2371.95
                             2428.98  4390.24  4395.26  4460.06  4499.49
                             4508.67  4689.97  4691.85  4706.11  5083.88

 Zero-point correction=                           0.169047 (Hartree/Particle)
 Thermal correction to Energy=                    0.180765
 Thermal correction to Enthalpy=                  0.181710
 Thermal correction to Gibbs Free Energy=         0.130161
 Sum of electronic and zero-point Energies=           -661.783755
 Sum of electronic and thermal Energies=              -661.772036
 Sum of electronic and thermal Enthalpies=            -661.771092
 Sum of electronic and thermal Free Energies=         -661.822640

                     E (Thermal)             CV                S
                      KCal/Mol        Cal/Mol-Kelvin    Cal/Mol-Kelvin
 Total                  113.432             43.781            108.493
 Electronic               0.000              0.000              0.000
 Translational            0.889              2.981             41.520
 Rotational               0.889              2.981             31.481
 Vibrational            111.655             37.819             35.492
 Vibration     1          0.595              1.980              5.056
 Vibration     2          0.596              1.975              4.607
 Vibration     3          0.598              1.968              4.127
 Vibration     4          0.609              1.934              3.127
 Vibration     5          0.620              1.895              2.590
 Vibration     6          0.637              1.843              2.157
 Vibration     7          0.650              1.802              1.914
 Vibration     8          0.683              1.701              1.501
 Vibration     9          0.715              1.608              1.241
 Vibration    10          0.731              1.565              1.145
 Vibration    11          0.739              1.543              1.099
 Vibration    12          0.802              1.378              0.820
 Vibration    13          0.822              1.329              0.754
 Vibration    14          0.861              1.238              0.644
 Vibration    15          0.901              1.149              0.553
 Vibration    16          0.926              1.096              0.504
 Vibration    17          0.943              1.063              0.475
 Vibration    18          0.978              0.994              0.420

 Optimization completed.
    -- Stationary point found.
 Normal termination of Gaussian 09 at Fri Aug 20 16:04:46 2021.
