 Gaussian 09, Revision E.01,
 Gaussian 09:  ES64L-G09RevE.01 30-Nov-2015

 -------------------------
 #P OPT Freq B3LYP/6-31G**
 -------------------------

 ------
 TISJUB
 ------
 Symbolic Z-matrix:
 Charge =  0 Multiplicity = 1

 SCF Done:  E(RB3LYP) =  -716.457483192     A.U. after   18 cycles
 SCF Done:  E(RB3LYP) =  -716.514306119     A.U. after   14 cycles
 SCF Done:  E(RB3LYP) =  -716.517007677     A.U. after   15 cycles
 SCF Done:  E(RB3LYP) =  -716.517540924     A.U. after   17 cycles
 SCF Done:  E(RB3LYP) =  -716.519956494     A.U. after   17 cycles
 SCF Done:  E(RB3LYP) =  -716.526915976     A.U. after   16 cycles
 SCF Done:  E(RB3LYP) =  -716.527284535     A.U. after   15 cycles
 SCF Done:  E(RB3LYP) =  -716.527359406     A.U. after   15 cycles
 SCF Done:  E(RB3LYP) =  -716.527786528     A.U. after   14 cycles
 SCF Done:  E(RB3LYP) =  -716.527760865     A.U. after   12 cycles
 SCF Done:  E(RB3LYP) =  -716.527806552     A.U. after   11 cycles
 SCF Done:  E(RB3LYP) =  -716.527809361     A.U. after   10 cycles
 SCF Done:  E(RB3LYP) =  -716.527809715     A.U. after    9 cycles
 Optimization completed.
    -- Stationary point found.
 Normal termination of Gaussian 09 at Fri Aug 20 15:37:52 2021.

 ----------------------------------------------------------------------
 #P Geom=AllCheck Guess=TCheck SCRF=Check GenChk RB3LYP/6-31G(d,p) Freq
 ----------------------------------------------------------------------

 Structure from the checkpoint file:  "/public/home/users/caep010/.cache/gau_scr/Gau-5774.chk"
 ------
 TISJUB
 ------
 Charge =  0 Multiplicity = 1

                         Standard orientation:
 ---------------------------------------------------------------------
 Center     Atomic      Atomic             Coordinates (Angstroms)
 Number     Number       Type             X           Y           Z
 ---------------------------------------------------------------------
      1          6           0       -0.979546   -0.166212   -0.000117
      2          6           0       -2.177030   -1.102505    0.000018
      3          8           0       -1.984063   -2.297897    0.000373
      4          7           0       -1.133190    1.206131   -0.000085
      5          8           0       -2.298661    1.760389    0.000055
      6          6           0       -0.031808    2.024427    0.000159
      7          1           0       -0.274909    3.077777    0.000347
      8          6           0        1.243607    1.508463    0.000159
      9          1           0        2.105047    2.163608    0.000227
     10          8           0       -3.375415   -0.540023   -0.000353
     11          1           0       -3.249179    0.452246   -0.000008
     12          6           0        0.297902   -0.711366   -0.000057
     13          1           0        0.390190   -1.790102   -0.000018
     14          6           0        1.403872    0.122716   -0.000017
     15          7           0        2.756400   -0.449065    0.000005
     16          8           0        3.697391    0.343453   -0.000145
     17          8           0        2.851299   -1.672939   -0.000038
 ---------------------------------------------------------------------

 SCF Done:  E(RB3LYP) =  -716.527809715     A.U. after    1 cycles

 The electronic state is 1-A.
 Alpha  occ. eigenvalues --  -19.21169 -19.21140 -19.19595 -19.19365 -19.15100
 Alpha  occ. eigenvalues --  -14.60416 -14.54589 -10.34681 -10.30005 -10.29978
 Alpha  occ. eigenvalues --  -10.29615 -10.27521 -10.26940  -1.25573  -1.17289
 Alpha  occ. eigenvalues --   -1.11102  -1.08387  -1.03346  -0.96548  -0.88030
 Alpha  occ. eigenvalues --   -0.85192  -0.76490  -0.73023  -0.67652  -0.62836
 Alpha  occ. eigenvalues --   -0.59478  -0.58631  -0.56416  -0.56152  -0.54796
 Alpha  occ. eigenvalues --   -0.53255  -0.53093  -0.51322  -0.48370  -0.46042
 Alpha  occ. eigenvalues --   -0.45652  -0.44467  -0.40297  -0.40097  -0.34227
 Alpha  occ. eigenvalues --   -0.33776  -0.33497  -0.32326  -0.32046  -0.31504
 Alpha  occ. eigenvalues --   -0.29684  -0.28373
 Alpha virt. eigenvalues --   -0.13334  -0.09481  -0.06245   0.02544   0.05276
 Alpha virt. eigenvalues --    0.10083   0.10240   0.12440   0.13224   0.13786
 Alpha virt. eigenvalues --    0.15774   0.18383   0.22598   0.23597   0.24126

 Mulliken charges:
               1
     1  C    0.229138
     2  C    0.640591
     3  O   -0.453765
     4  N   -0.109488
     5  O   -0.513292
     6  C    0.135628
     7  H    0.171839
     8  C   -0.121374
     9  H    0.171077
    10  O   -0.502361
    11  H    0.366695
    12  C   -0.121349
    13  H    0.195578
    14  C    0.278415
    15  N    0.396100
    16  O   -0.387051
    17  O   -0.376382
 Sum of Mulliken charges =  -0.00000

 Dipole moment (field-independent basis, Debye):
    X=              1.2301    Y=              4.6302    Z=              0.0003  Tot=              4.7908
 Quadrupole moment (field-independent basis, Debye-Ang):
   XX=            -93.2400   YY=            -75.2830   ZZ=            -69.5678
   XY=             -0.1439   XZ=              0.0005   YZ=              0.0024

  Exact polarizability: 140.133  -5.793 110.136   0.001   0.001  34.329
 Approx polarizability: 260.134 -28.267 229.706   0.003  -0.001  54.072

                      1                      2                      3
                      A                      A                      A
 Frequencies --     56.0231                74.4482               120.5684
 Red. masses --     15.5839                10.0816                 9.2592
 Frc consts  --      0.0288                 0.0329                 0.0793
 IR Inten    --      0.5009                 0.0534                 6.6069

                      4                      5                      6
                      A                      A                      A
 Frequencies --    149.8615               165.6990               298.5073
 Red. masses --      6.1137                12.5664                 8.4717
 Frc consts  --      0.0809                 0.2033                 0.4448
 IR Inten    --      5.7301                 3.5078                21.3831

                      7                      8                      9
                      A                      A                      A
 Frequencies --    317.6180               346.7681               383.1039
 Red. masses --      8.1499                10.7344                 8.8207
 Frc consts  --      0.4844                 0.7605                 0.7628
 IR Inten    --      0.5938                 3.4830                20.6333

                     10                     11                     12
                      A                      A                      A
 Frequencies --    446.0443               449.2604               525.6922
 Red. masses --      3.9444                12.4924                10.4821
 Frc consts  --      0.4624                 1.4856                 1.7067
 IR Inten    --      0.0136                 1.4247                11.3270

                     13                     14                     15
                      A                      A                      A
 Frequencies --    529.4185               610.1259               671.4263
 Red. masses --      3.9134                 5.5210                 8.2712
 Frc consts  --      0.6463                 1.2109                 2.1969
 IR Inten    --      3.5890                12.4877                27.3862

                     16                     17                     18
                      A                      A                      A
 Frequencies --    674.1504               678.9981               750.7977
 Red. masses --      5.8950                 7.5462                 7.3182
 Frc consts  --      1.5785                 2.0498                 2.4305
 IR Inten    --     20.5796                 7.3515                10.1870

                     19                     20                     21
                      A                      A                      A
 Frequencies --    753.7274               793.9854               843.1813
 Red. masses --      6.8388                 8.6429                 6.9384
 Frc consts  --      2.2891                 3.2102                 2.9064
 IR Inten    --     14.0649                29.2700                 0.1077

                     22                     23                     24
                      A                      A                      A
 Frequencies --    854.8449               877.3090               929.0126
 Red. masses --      1.5301                 1.0618                 7.7656
 Frc consts  --      0.6588                 0.4815                 3.9489
 IR Inten    --     31.8723                75.4488                24.3919

                     25                     26                     27
                      A                      A                      A
 Frequencies --    973.6911               982.7901              1081.1179
 Red. masses --      1.3207                 1.3194                 1.7346
 Frc consts  --      0.7377                 0.7509                 1.1945
 IR Inten    --      6.8912                 5.5118                15.4091

                     28                     29                     30
                      A                      A                      A
 Frequencies --   1139.3127              1173.2209              1227.3859
 Red. masses --      1.4708                 4.5023                 3.8007
 Frc consts  --      1.1248                 3.6512                 3.3735
 IR Inten    --     10.4355               129.2188                40.0141

                     31                     32                     33
                      A                      A                      A
 Frequencies --   1267.9631              1285.8151              1343.2312
 Red. masses --      1.6399                 7.5153                 4.4388
 Frc consts  --      1.5534                 7.3207                 4.7187
 IR Inten    --      5.8359                 8.7149               217.2490

                     34                     35                     36
                      A                      A                      A
 Frequencies --   1392.9413              1475.4429              1494.6274
 Red. masses --     12.1185                 4.8116                 2.7783
 Frc consts  --     13.8537                 6.1714                 3.6568
 IR Inten    --    351.1780               107.6883                89.6361

                     37                     38                     39
                      A                      A                      A
 Frequencies --   1529.7182              1597.9064              1658.4900
 Red. masses --      1.4577                 9.3350                 9.2015
 Frc consts  --      2.0098                14.0433                14.9120
 IR Inten    --    335.5621                37.8219                61.5775

                     40                     41                     42
                      A                      A                      A
 Frequencies --   1671.9619              1849.7681              3162.1718
 Red. masses --      8.3878                 9.0413                 1.0712
 Frc consts  --     13.8150                18.2269                 6.3110
 IR Inten    --    146.8817               265.9852               497.7997

                     43                     44                     45
                      A                      A                      A
 Frequencies --   3254.2621              3257.3886              3271.2219
 Red. masses --      1.0912                 1.0918                 1.0966
 Frc consts  --      6.8083                 6.8254                 6.9137
 IR Inten    --      7.2329                27.8527                 4.1472

 - Thermochemistry -
 -------------------
 Temperature   298.150 Kelvin.  Pressure   1.00000 Atm.
 Atom     1 has atomic number  6 and mass  12.00000

 Molecular mass:   184.01202 amu.
 Principal axes and moments of inertia in atomic units:
                           1         2         3
     Eigenvalues --  1156.344563320.357384476.70191
           X            1.00000   0.00249   0.00000
           Y           -0.00249   1.00000   0.00000
           Z           -0.00000  -0.00000   1.00000
 This molecule is an asymmetric top.
 Rotational symmetry number  1.
 Warning -- assumption of classical behavior for rotation
           may cause significant error
 Rotational temperatures (Kelvin)      0.07490     0.02609     0.01935
 Rotational constants (GHZ):           1.56073     0.54354     0.40314
 Zero-point vibrational energy     289442.5 (Joules/Mol)
                                   69.17841 (Kcal/Mol)
 Warning -- explicit consideration of  14 degrees of freedom as
           vibrations may cause significant error
 Vibrational temperatures:     80.60   107.11   173.47   215.62   238.40
          (Kelvin)            429.48   456.98   498.92   551.20   641.76
                              646.38   756.35   761.71   877.83   966.03
                              969.95   976.93  1080.23  1084.44  1142.37
                             1213.15  1229.93  1262.25  1336.64  1400.92
                             1414.01  1555.49  1639.21  1688.00  1765.93
                             1824.31  1850.00  1932.61  2004.13  2122.83
                             2150.43  2200.92  2299.03  2386.19  2405.58
                             2661.40  4549.65  4682.15  4686.65  4706.55

 Zero-point correction=                           0.110243 (Hartree/Particle)
 Thermal correction to Energy=                    0.120347
 Thermal correction to Enthalpy=                  0.121292
 Thermal correction to Gibbs Free Energy=         0.073437
 Sum of electronic and zero-point Energies=           -716.417567
 Sum of electronic and thermal Energies=              -716.407462
 Sum of electronic and thermal Enthalpies=            -716.406518
 Sum of electronic and thermal Free Energies=         -716.454373

                     E (Thermal)             CV                S
                      KCal/Mol        Cal/Mol-Kelvin    Cal/Mol-Kelvin
 Total                   75.519             37.746            100.718
 Electronic               0.000              0.000              0.000
 Translational            0.889              2.981             41.536
 Rotational               0.889              2.981             31.220
 Vibrational             73.742             31.784             27.963
 Vibration     1          0.596              1.975              4.593
 Vibration     2          0.599              1.966              4.032
 Vibration     3          0.609              1.932              3.091
 Vibration     4          0.618              1.903              2.674
 Vibration     5          0.624              1.885              2.484
 Vibration     6          0.692              1.676              1.425
 Vibration     7          0.704              1.640              1.322
 Vibration     8          0.725              1.582              1.181
 Vibration     9          0.752              1.506              1.027
 Vibration    10          0.805              1.370              0.808
 Vibration    11          0.808              1.363              0.798
 Vibration    12          0.881              1.193              0.597
 Vibration    13          0.884              1.185              0.589
 Vibration    14          0.969              1.010              0.433

 Optimization completed.
    -- Stationary point found.
 Normal termination of Gaussian 09 at Fri Aug 20 15:38:19 2021.
