 Gaussian 09, Revision E.01,
 Gaussian 09:  ES64L-G09RevE.01 30-Nov-2015

 -------------------------
 #P OPT Freq B3LYP/6-31G**
 -------------------------

 ------
 OJOLAC
 ------
 Symbolic Z-matrix:
 Charge =  0 Multiplicity = 1

 SCF Done:  E(RB3LYP) =  -719.935515195     A.U. after   18 cycles
 SCF Done:  E(RB3LYP) =  -720.029116586     A.U. after   16 cycles
 SCF Done:  E(RB3LYP) =  -720.081235907     A.U. after   16 cycles
 SCF Done:  E(RB3LYP) =  -720.083816915     A.U. after   16 cycles
 SCF Done:  E(RB3LYP) =  -720.075803248     A.U. after   16 cycles
 SCF Done:  E(RB3LYP) =  -720.084226812     A.U. after   12 cycles
 SCF Done:  E(RB3LYP) =  -720.085943990     A.U. after   15 cycles
 SCF Done:  E(RB3LYP) =  -720.086699477     A.U. after   15 cycles
 SCF Done:  E(RB3LYP) =  -720.087426500     A.U. after   16 cycles
 SCF Done:  E(RB3LYP) =  -720.087916018     A.U. after   16 cycles
 SCF Done:  E(RB3LYP) =  -720.088713940     A.U. after   13 cycles
 SCF Done:  E(RB3LYP) =  -720.088716749     A.U. after   13 cycles
 SCF Done:  E(RB3LYP) =  -720.088720175     A.U. after   14 cycles
 SCF Done:  E(RB3LYP) =  -720.088722618     A.U. after   14 cycles
 SCF Done:  E(RB3LYP) =  -720.088723640     A.U. after   14 cycles
 SCF Done:  E(RB3LYP) =  -720.088724168     A.U. after   10 cycles
 SCF Done:  E(RB3LYP) =  -720.088727170     A.U. after   13 cycles
 SCF Done:  E(RB3LYP) =  -720.088727614     A.U. after   10 cycles
 SCF Done:  E(RB3LYP) =  -720.088727553     A.U. after    9 cycles
 Optimization completed.
    -- Stationary point found.
 Normal termination of Gaussian 09 at Fri Aug 20 15:58:39 2021.

 ----------------------------------------------------------------------
 #P Geom=AllCheck Guess=TCheck SCRF=Check GenChk RB3LYP/6-31G(d,p) Freq
 ----------------------------------------------------------------------

 Structure from the checkpoint file:  "/public/home/users/caep010/.cache/gau_scr/Gau-24192.chk"
 ------
 OJOLAC
 ------
 Charge =  0 Multiplicity = 1

                         Standard orientation:
 ---------------------------------------------------------------------
 Center     Atomic      Atomic             Coordinates (Angstroms)
 Number     Number       Type             X           Y           Z
 ---------------------------------------------------------------------
      1          7           0       -1.465659    1.503363    0.543322
      2          6           0       -0.927698    0.145810    0.033385
      3          8           0       -0.723300    2.414386    0.304665
      4          6           0       -0.073271    0.222831   -1.236285
      5          6           0       -0.068306   -0.419305    1.191499
      6          7           0       -2.194866   -0.652634   -0.138627
      7          1           0       -0.638517   -0.146361   -2.091121
      8          1           0        0.191557    1.272733   -1.406129
      9          8           0        1.072535   -0.605017   -1.109332
     10          1           0       -0.490998   -0.153287    2.161285
     11          1           0       -0.052901   -1.511997    1.106932
     12          8           0        1.206266    0.169391    1.103813
     13          8           0       -2.778143   -0.558860   -1.214318
     14          8           0       -2.586828   -1.284171    0.838413
     15          6           0        1.963089   -0.236821   -0.055728
     16          6           0        2.777357   -1.487512    0.255321
     17          6           0        2.830849    0.961175   -0.428008
     18          1           0        2.120362   -2.305734    0.561144
     19          1           0        3.485336   -1.279942    1.060702
     20          1           0        3.328844   -1.806889   -0.632558
     21          1           0        2.213733    1.837255   -0.638972
     22          1           0        3.436871    0.724784   -1.305835
     23          1           0        3.493032    1.211442    0.404645
 ---------------------------------------------------------------------

 SCF Done:  E(RB3LYP) =  -720.088727553     A.U. after    1 cycles

 The electronic state is 1-A.
 Alpha  occ. eigenvalues --  -19.25551 -19.20412 -19.20351 -19.18174 -19.17985
 Alpha  occ. eigenvalues --  -14.58606 -14.49160 -10.31205 -10.29254 -10.27526
 Alpha  occ. eigenvalues --  -10.26666 -10.19237 -10.19148  -1.24488  -1.20529
 Alpha  occ. eigenvalues --   -1.10188  -1.07416  -1.03008  -0.88399  -0.80016
 Alpha  occ. eigenvalues --   -0.73129  -0.71611  -0.70529  -0.70369  -0.61734
 Alpha  occ. eigenvalues --   -0.57824  -0.57362  -0.55057  -0.54694  -0.52707
 Alpha  occ. eigenvalues --   -0.52019  -0.50271  -0.49154  -0.47518  -0.47019
 Alpha  occ. eigenvalues --   -0.44547  -0.43217  -0.41820  -0.40886  -0.40666
 Alpha  occ. eigenvalues --   -0.39686  -0.39068  -0.38058  -0.33405  -0.33157
 Alpha  occ. eigenvalues --   -0.32851  -0.31239  -0.30529  -0.27860  -0.25806
 Alpha virt. eigenvalues --   -0.12055  -0.08617   0.06110   0.07389   0.09371
 Alpha virt. eigenvalues --    0.10771   0.11529   0.11762   0.13842   0.15192
 Alpha virt. eigenvalues --    0.15476   0.16479   0.17672   0.17976   0.18904

 Mulliken charges:
               1
     1  N    0.083640
     2  C    0.152378
     3  O   -0.206959
     4  C    0.050364
     5  C    0.071908
     6  N    0.451950
     7  H    0.157365
     8  H    0.127905
     9  O   -0.504536
    10  H    0.147713
    11  H    0.137071
    12  O   -0.500339
    13  O   -0.370627
    14  O   -0.362546
    15  C    0.474058
    16  C   -0.309730
    17  C   -0.317035
    18  H    0.114137
    19  H    0.118876
    20  H    0.122793
    21  H    0.121250
    22  H    0.117604
    23  H    0.122761
 Sum of Mulliken charges =  -0.00000

 Dipole moment (field-independent basis, Debye):
    X=              3.4248    Y=             -0.0047    Z=             -0.1820  Tot=              3.4296
 Quadrupole moment (field-independent basis, Debye-Ang):
   XX=            -80.2228   YY=            -77.7289   ZZ=            -75.5884
   XY=             -3.0990   XZ=             -0.4862   YZ=             -2.9848

  Exact polarizability: 103.930   1.982  89.592   0.633  -4.061  82.887
 Approx polarizability: 136.889   8.044 149.399   4.023 -10.874 149.620

                      1                      2                      3
                      A                      A                      A
 Frequencies --     18.5978                37.8232               114.1760
 Red. masses --     13.2677                 4.5252                 8.2765
 Frc consts  --      0.0027                 0.0038                 0.0636
 IR Inten    --      0.1281                 0.6157                 0.2377

                      4                      5                      6
                      A                      A                      A
 Frequencies --    151.3516               164.8178               201.5162
 Red. masses --      4.4340                 3.9950                 1.1006
 Frc consts  --      0.0598                 0.0639                 0.0263
 IR Inten    --      0.5833                 2.0090                 0.3127

                      7                      8                      9
                      A                      A                      A
 Frequencies --    216.8236               238.8595               254.6020
 Red. masses --      8.2016                 1.1503                 3.4429
 Frc consts  --      0.2272                 0.0387                 0.1315
 IR Inten    --      4.2224                 0.5971                 3.8650

                     10                     11                     12
                      A                      A                      A
 Frequencies --    302.7813               325.9787               357.8077
 Red. masses --      3.6834                 3.3383                 3.3567
 Frc consts  --      0.1990                 0.2090                 0.2532
 IR Inten    --      1.3395                 1.8719                 1.4294

                     13                     14                     15
                      A                      A                      A
 Frequencies --    377.1226               383.0577               402.4955
 Red. masses --      2.7568                 3.5274                 3.2336
 Frc consts  --      0.2310                 0.3050                 0.3086
 IR Inten    --      9.7139                 4.0864                 3.8238

                     16                     17                     18
                      A                      A                      A
 Frequencies --    460.1261               521.2474               523.6886
 Red. masses --      4.3957                 3.3204                 6.4112
 Frc consts  --      0.5483                 0.5315                 1.0359
 IR Inten    --      4.8993                16.4304                16.4096

                     19                     20                     21
                      A                      A                      A
 Frequencies --    552.9942               609.4803               685.9974
 Red. masses --      5.1542                 7.6645                 6.4137
 Frc consts  --      0.9286                 1.6775                 1.7783
 IR Inten    --      2.5064                47.5526                11.0451

                     22                     23                     24
                      A                      A                      A
 Frequencies --    733.3651               751.3749               777.3054
 Red. masses --      4.4908                 4.4967                 4.3779
 Frc consts  --      1.4230                 1.4957                 1.5585
 IR Inten    --      0.4954                22.9134                11.3798

                     25                     26                     27
                      A                      A                      A
 Frequencies --    841.3887               853.9158               933.6226
 Red. masses --      2.9886                 5.8550                 1.4620
 Frc consts  --      1.2466                 2.5154                 0.7508
 IR Inten    --     54.0923                36.4883                 0.7067

                     28                     29                     30
                      A                      A                      A
 Frequencies --    947.7408               963.0300              1013.3998
 Red. masses --      2.3695                 2.3290                 1.3488
 Frc consts  --      1.2540                 1.2726                 0.8161
 IR Inten    --     14.1027                18.8162                 0.3508

                     31                     32                     33
                      A                      A                      A
 Frequencies --   1064.0551              1092.5075              1126.0093
 Red. masses --      5.0823                 2.7299                 3.1002
 Frc consts  --      3.3903                 1.9197                 2.3160
 IR Inten    --     15.5009                15.8810                 4.4646

                     34                     35                     36
                      A                      A                      A
 Frequencies --   1136.2519              1187.7451              1196.1719
 Red. masses --      4.8470                 2.6766                 4.2323
 Frc consts  --      3.6870                 2.2248                 3.5679
 IR Inten    --    178.4109                16.0693                31.4165

                     37                     38                     39
                      A                      A                      A
 Frequencies --   1251.1634              1260.3726              1290.1813
 Red. masses --      2.4460                 2.7624                 1.2438
 Frc consts  --      2.2560                 2.5854                 1.2198
 IR Inten    --    154.5889               118.2064                 3.2044

                     40                     41                     42
                      A                      A                      A
 Frequencies --   1313.1150              1376.0478              1388.6400
 Red. masses --      1.2639                 1.3456                 1.6459
 Frc consts  --      1.2840                 1.5011                 1.8699
 IR Inten    --      6.6728                19.7501                41.2794

                     43                     44                     45
                      A                      A                      A
 Frequencies --   1414.5058              1418.4353              1430.4723
 Red. masses --      3.2556                 1.3818                 1.2825
 Frc consts  --      3.8379                 1.6380                 1.5462
 IR Inten    --    109.5882                24.4741                14.8370

                     46                     47                     48
                      A                      A                      A
 Frequencies --   1487.5762              1487.9260              1495.3891
 Red. masses --      1.0513                 1.0536                 1.0854
 Frc consts  --      1.3707                 1.3744                 1.4300
 IR Inten    --      0.5970                 0.4676                 0.4963

                     49                     50                     51
                      A                      A                      A
 Frequencies --   1501.2551              1511.4259              1518.9228
 Red. masses --      1.0664                 1.0626                 1.0623
 Frc consts  --      1.4160                 1.4302                 1.4439
 IR Inten    --     16.8216                 1.2038                 4.4342

                     52                     53                     54
                      A                      A                      A
 Frequencies --   1661.8908              1696.0473              3058.0630
 Red. masses --     13.9634                13.7782                 1.0638
 Frc consts  --     22.7219                23.3517                 5.8613
 IR Inten    --    216.5568               130.5812                 7.1606

                     55                     56                     57
                      A                      A                      A
 Frequencies --   3059.1596              3065.1146              3070.0509
 Red. masses --      1.0629                 1.0382                 1.0370
 Frc consts  --      5.8607                 5.7466                 5.7584
 IR Inten    --      6.0975                16.2293                 4.7850

                     58                     59                     60
                      A                      A                      A
 Frequencies --   3142.4600              3145.0498              3145.7916
 Red. masses --      1.1029                 1.1026                 1.1019
 Frc consts  --      6.4169                 6.4260                 6.4244
 IR Inten    --     14.6731                 8.3705                 1.4389

                     61                     62                     63
                      A                      A                      A
 Frequencies --   3152.0180              3155.0472              3165.3855
 Red. masses --      1.1036                 1.1040                 1.0973
 Frc consts  --      6.4599                 6.4748                 6.4776
 IR Inten    --     17.6806                18.9385                 0.1191

 - Thermochemistry -
 -------------------
 Temperature   298.150 Kelvin.  Pressure   1.00000 Atm.
 Atom     1 has atomic number  7 and mass  14.00307

 Molecular mass:   190.05897 amu.
 Principal axes and moments of inertia in atomic units:
                           1         2         3
     Eigenvalues --  1300.641042907.290403248.54312
           X            0.99995  -0.00965  -0.00278
           Y            0.00943   0.99759  -0.06869
           Z            0.00343   0.06866   0.99763
 This molecule is an asymmetric top.
 Rotational symmetry number  1.
 Warning -- assumption of classical behavior for rotation
           may cause significant error
 Rotational temperatures (Kelvin)      0.06659     0.02979     0.02666
 Rotational constants (GHZ):           1.38758     0.62076     0.55555
 Zero-point vibrational energy     461643.3 (Joules/Mol)
                                  110.33540 (Kcal/Mol)
 Warning -- explicit consideration of  20 degrees of freedom as
           vibrations may cause significant error
 Vibrational temperatures:     26.76    54.42   164.27   217.76   237.14
          (Kelvin)            289.94   311.96   343.67   366.32   435.63
                              469.01   514.80   542.59   551.13   579.10
                              662.02   749.96   753.47   795.63   876.91
                              987.00  1055.15  1081.06  1118.37  1210.57
                             1228.59  1343.27  1363.59  1385.58  1458.05
                             1530.94  1571.87  1620.07  1634.81  1708.90
                             1721.02  1800.14  1813.39  1856.28  1889.28
                             1979.82  1997.94  2035.16  2040.81  2058.13
                             2140.29  2140.79  2151.53  2159.97  2174.60
                             2185.39  2391.09  2440.23  4399.87  4401.44
                             4410.01  4417.11  4521.29  4525.02  4526.09
                             4535.05  4539.40  4554.28

 Zero-point correction=                           0.175831 (Hartree/Particle)
 Thermal correction to Energy=                    0.188558
 Thermal correction to Enthalpy=                  0.189502
 Thermal correction to Gibbs Free Energy=         0.135866
 Sum of electronic and zero-point Energies=           -719.912897
 Sum of electronic and thermal Energies=              -719.900170
 Sum of electronic and thermal Enthalpies=            -719.899226
 Sum of electronic and thermal Free Energies=         -719.952862

                     E (Thermal)             CV                S
                      KCal/Mol        Cal/Mol-Kelvin    Cal/Mol-Kelvin
 Total                  118.322             47.156            112.886
 Electronic               0.000              0.000              0.000
 Translational            0.889              2.981             41.632
 Rotational               0.889              2.981             30.886
 Vibrational            116.544             41.194             40.368
 Vibration     1          0.593              1.986              6.779
 Vibration     2          0.594              1.982              5.370
 Vibration     3          0.607              1.938              3.197
 Vibration     4          0.619              1.901              2.655
 Vibration     5          0.623              1.886              2.494
 Vibration     6          0.638              1.838              2.119
 Vibration     7          0.646              1.815              1.985
 Vibration     8          0.657              1.781              1.811
 Vibration     9          0.665              1.755              1.699
 Vibration    10          0.694              1.668              1.401
 Vibration    11          0.710              1.624              1.280
 Vibration    12          0.733              1.559              1.132
 Vibration    13          0.748              1.519              1.051
 Vibration    14          0.752              1.506              1.027
 Vibration    15          0.768              1.465              0.954
 Vibration    16          0.818              1.338              0.766
 Vibration    17          0.876              1.203              0.607
 Vibration    18          0.879              1.198              0.601
 Vibration    19          0.908              1.133              0.538
 Vibration    20          0.968              1.012              0.434

 Optimization completed.
    -- Stationary point found.
 Normal termination of Gaussian 09 at Fri Aug 20 15:59:23 2021.
