 Gaussian 09, Revision E.01,
 Gaussian 09:  ES64L-G09RevE.01 30-Nov-2015

 -------------------------
 #P OPT Freq B3LYP/6-31G**
 -------------------------

 --------
 ZZZFYW01
 --------
 Symbolic Z-matrix:
 Charge =  0 Multiplicity = 1

 SCF Done:  E(RB3LYP) =  -641.167149558     A.U. after   16 cycles
 SCF Done:  E(RB3LYP) =  -641.224596443     A.U. after   14 cycles
 SCF Done:  E(RB3LYP) =  -641.234653676     A.U. after   15 cycles
 SCF Done:  E(RB3LYP) =  -641.225087121     A.U. after   17 cycles
 SCF Done:  E(RB3LYP) =  -641.235211535     A.U. after   12 cycles
 SCF Done:  E(RB3LYP) =  -641.234873688     A.U. after   15 cycles
 SCF Done:  E(RB3LYP) =  -641.235590012     A.U. after   11 cycles
 SCF Done:  E(RB3LYP) =  -641.235566863     A.U. after   14 cycles
 SCF Done:  E(RB3LYP) =  -641.235745762     A.U. after    9 cycles
 SCF Done:  E(RB3LYP) =  -641.232854720     A.U. after   15 cycles
 SCF Done:  E(RB3LYP) =  -641.235787052     A.U. after   10 cycles
 SCF Done:  E(RB3LYP) =  -641.235819756     A.U. after   10 cycles
 SCF Done:  E(RB3LYP) =  -641.235821100     A.U. after    8 cycles
 Optimization completed.
    -- Stationary point found.
 Normal termination of Gaussian 09 at Fri Aug 20 15:42:53 2021.

 ----------------------------------------------------------------------
 #P Geom=AllCheck Guess=TCheck SCRF=Check GenChk RB3LYP/6-31G(d,p) Freq
 ----------------------------------------------------------------------

 Structure from the checkpoint file:  "/public/home/users/caep010/.cache/gau_scr/Gau-148968.chk"
 --------
 ZZZFYW01
 --------
 Charge =  0 Multiplicity = 1

                         Standard orientation:
 ---------------------------------------------------------------------
 Center     Atomic      Atomic             Coordinates (Angstroms)
 Number     Number       Type             X           Y           Z
 ---------------------------------------------------------------------
      1          6           0       -0.222682   -0.698905    0.010060
      2          7           0        1.015626   -1.487843    0.151001
      3          6           0       -1.424989   -1.397306    0.006132
      4          8           0        1.063632   -2.554041   -0.455834
      5          6           0       -0.221987    0.699010   -0.009996
      6          6           0       -1.423640    1.398550   -0.006121
      7          6           0       -2.630401    0.698479    0.000807
      8          1           0       -3.566566    1.246574   -0.001549
      9          6           0       -2.631069   -0.696021   -0.000904
     10          8           0        1.873869   -1.047844    0.907038
     11          7           0        1.017001    1.486844   -0.150899
     12          8           0        1.066453    2.552279    0.457136
     13          8           0        1.874026    1.047023   -0.908420
     14          1           0       -1.393323    2.481316   -0.021786
     15          1           0       -3.567878   -1.243125    0.001506
     16          1           0       -1.395848   -2.479951    0.021898
 ---------------------------------------------------------------------

 SCF Done:  E(RB3LYP) =  -641.235821100     A.U. after    1 cycles

 The electronic state is 1-A.
 Alpha  occ. eigenvalues --  -19.20057 -19.20056 -19.20022 -19.20022 -14.59209
 Alpha  occ. eigenvalues --  -14.59209 -10.29021 -10.28968 -10.24889 -10.24888
 Alpha  occ. eigenvalues --  -10.24573 -10.24518  -1.24738  -1.24211  -1.07493
 Alpha  occ. eigenvalues --   -1.07129  -0.92898  -0.83731  -0.83187  -0.74796
 Alpha  occ. eigenvalues --   -0.70841  -0.65213  -0.61804  -0.58118  -0.55904
 Alpha  occ. eigenvalues --   -0.55741  -0.54278  -0.53277  -0.52255  -0.51662
 Alpha  occ. eigenvalues --   -0.48992  -0.48560  -0.42936  -0.41970  -0.41129
 Alpha  occ. eigenvalues --   -0.33502  -0.32859  -0.32800  -0.32010  -0.31991
 Alpha  occ. eigenvalues --   -0.31624  -0.29831  -0.29177
 Alpha virt. eigenvalues --   -0.11168  -0.08623  -0.04523  -0.02888   0.04657
 Alpha virt. eigenvalues --    0.10108   0.11249   0.11376   0.14964   0.15808
 Alpha virt. eigenvalues --    0.17274   0.23609   0.25191   0.25898   0.26208

 Mulliken charges:
               1
     1  C    0.255099
     2  N    0.368280
     3  C   -0.081699
     4  O   -0.366539
     5  C    0.255000
     6  C   -0.081679
     7  C   -0.080297
     8  H    0.121487
     9  C   -0.080334
    10  O   -0.364204
    11  N    0.368287
    12  O   -0.366500
    13  O   -0.364153
    14  H    0.147880
    15  H    0.121482
    16  H    0.147890
 Sum of Mulliken charges =  -0.00000

 Dipole moment (field-independent basis, Debye):
    X=             -6.6549    Y=              0.0033    Z=              0.0003  Tot=              6.6549
 Quadrupole moment (field-independent basis, Debye-Ang):
   XX=            -63.1173   YY=            -69.5179   ZZ=            -68.5465
   XY=             -0.0047   XZ=             -0.0007   YZ=             -2.3848

  Exact polarizability: 112.219   0.001 103.348   0.004   8.490  43.452
 Approx polarizability: 189.616   0.026 195.069   0.014  36.991  87.646

                      1                      2                      3
                      A                      A                      A
 Frequencies --     39.1082                99.9236               118.6173
 Red. masses --     15.0815                15.5784                 4.9366
 Frc consts  --      0.0136                 0.0916                 0.0409
 IR Inten    --      0.2777                 0.0976                 0.1449

                      4                      5                      6
                      A                      A                      A
 Frequencies --    178.2987               197.6160               274.7121
 Red. masses --      6.9862                15.0629                 6.3687
 Frc consts  --      0.1309                 0.3466                 0.2832
 IR Inten    --      0.7590                 0.8889                 1.8834

                      7                      8                      9
                      A                      A                      A
 Frequencies --    337.6247               376.0096               420.8329
 Red. masses --     10.7842                 8.9594                 3.6165
 Frc consts  --      0.7243                 0.7463                 0.3774
 IR Inten    --      1.9746                 0.1897                 0.5048

                     10                     11                     12
                      A                      A                      A
 Frequencies --    426.2965               560.2462               593.9481
 Red. masses --      8.6430                 5.0269                 5.1512
 Frc consts  --      0.9254                 0.9296                 1.0707
 IR Inten    --      4.8437                 0.7535                 5.5405

                     13                     14                     15
                      A                      A                      A
 Frequencies --    655.0356               694.0659               714.5935
 Red. masses --      6.4009                 6.7033                 7.0452
 Frc consts  --      1.6182                 1.9026                 2.1196
 IR Inten    --      4.7166                 1.7017                21.2170

                     16                     17                     18
                      A                      A                      A
 Frequencies --    741.2874               781.9511               805.0794
 Red. masses --      3.1947                 4.7256                 1.7574
 Frc consts  --      1.0343                 1.7024                 0.6711
 IR Inten    --     40.9263                 8.2808                17.0518

                     19                     20                     21
                      A                      A                      A
 Frequencies --    854.2728               872.0567               906.1806
 Red. masses --     10.9707                 9.4775                 1.4881
 Frc consts  --      4.7171                 4.2465                 0.7200
 IR Inten    --     44.8367                23.7926                 2.5333

                     22                     23                     24
                      A                      A                      A
 Frequencies --    979.1076              1008.1592              1064.6618
 Red. masses --      1.3723                 1.3067                 2.3153
 Frc consts  --      0.7751                 0.7825                 1.5463
 IR Inten    --      1.4502                 1.4396                 0.4968

                     25                     26                     27
                      A                      A                      A
 Frequencies --   1092.4198              1170.5975              1171.0850
 Red. masses --      4.9372                 1.6444                 2.4332
 Frc consts  --      3.4715                 1.3276                 1.9661
 IR Inten    --      0.3144                 3.0643                15.9413

                     28                     29                     30
                      A                      A                      A
 Frequencies --   1194.6297              1296.1110              1372.0600
 Red. masses --      1.2183                 1.5010                 8.1706
 Frc consts  --      1.0244                 1.4857                 9.0626
 IR Inten    --      1.2708                 0.8133                 6.9967

                     31                     32                     33
                      A                      A                      A
 Frequencies --   1400.8054              1415.2550              1487.4056
 Red. masses --     14.4955                14.5661                 2.2780
 Frc consts  --     16.7586                17.1895                 2.9694
 IR Inten    --    142.5791               250.3236                 2.2412

                     34                     35                     36
                      A                      A                      A
 Frequencies --   1512.4312              1636.9860              1638.7709
 Red. masses --      2.5203                 7.1642                 7.7759
 Frc consts  --      3.3967                11.3111                12.3038
 IR Inten    --      4.2053               150.3274                26.6000

                     37                     38                     39
                      A                      A                      A
 Frequencies --   1661.0735              1675.1280              3206.7357
 Red. masses --     10.5738                11.7911                 1.0879
 Frc consts  --     17.1894                19.4939                 6.5910
 IR Inten    --    263.5631                29.3992                 1.9847

                     40                     41                     42
                      A                      A                      A
 Frequencies --   3220.0952              3238.4532              3240.7196
 Red. masses --      1.0937                 1.0933                 1.0946
 Frc consts  --      6.6818                 6.7555                 6.7734
 IR Inten    --      5.2348                 1.8783                 1.0216

 - Thermochemistry -
 -------------------
 Temperature   298.150 Kelvin.  Pressure   1.00000 Atm.
 Atom     1 has atomic number  6 and mass  12.00000

 Molecular mass:   168.01711 amu.
 Principal axes and moments of inertia in atomic units:
                           1         2         3
     Eigenvalues --  1517.949251629.074532906.56855
           X            1.00000  -0.00021  -0.00000
           Y            0.00021   1.00000  -0.00030
           Z            0.00000   0.00030   1.00000
 This molecule is an asymmetric top.
 Rotational symmetry number  1.
 Warning -- assumption of classical behavior for rotation
           may cause significant error
 Rotational temperatures (Kelvin)      0.05706     0.05317     0.02980
 Rotational constants (GHZ):           1.18893     1.10783     0.62092
 Zero-point vibrational energy     277117.6 (Joules/Mol)
                                   66.23270 (Kcal/Mol)
 Warning -- explicit consideration of  12 degrees of freedom as
           vibrations may cause significant error
 Vibrational temperatures:     56.27   143.77   170.66   256.53   284.33
          (Kelvin)            395.25   485.77   540.99   605.48   613.34
                              806.07   854.56   942.45   998.60  1028.14
                             1066.55  1125.05  1158.33  1229.11  1254.69
                             1303.79  1408.72  1450.51  1531.81  1571.75
                             1684.23  1684.93  1718.80  1864.81  1974.09
                             2015.44  2036.23  2140.04  2176.05  2355.25
                             2357.82  2389.91  2410.13  4613.77  4632.99
                             4659.41  4662.67

 Zero-point correction=                           0.105549 (Hartree/Particle)
 Thermal correction to Energy=                    0.114943
 Thermal correction to Enthalpy=                  0.115888
 Thermal correction to Gibbs Free Energy=         0.069658
 Sum of electronic and zero-point Energies=           -641.130273
 Sum of electronic and thermal Energies=              -641.120878
 Sum of electronic and thermal Enthalpies=            -641.119934
 Sum of electronic and thermal Free Energies=         -641.166163

                     E (Thermal)             CV                S
                      KCal/Mol        Cal/Mol-Kelvin    Cal/Mol-Kelvin
 Total                   72.128             34.433             97.298
 Electronic               0.000              0.000              0.000
 Translational            0.889              2.981             41.265
 Rotational               0.889              2.981             30.353
 Vibrational             70.351             28.472             25.680
 Vibration     1          0.594              1.981              5.304
 Vibration     2          0.604              1.949              3.456
 Vibration     3          0.609              1.934              3.123
 Vibration     4          0.629              1.869              2.346
 Vibration     5          0.637              1.843              2.155
 Vibration     6          0.677              1.720              1.566
 Vibration     7          0.718              1.600              1.223
 Vibration     8          0.747              1.521              1.055
 Vibration     9          0.783              1.425              0.889
 Vibration    10          0.788              1.413              0.871
 Vibration    11          0.916              1.117              0.523
 Vibration    12          0.952              1.045              0.460

 Optimization completed.
    -- Stationary point found.
 Normal termination of Gaussian 09 at Fri Aug 20 15:43:16 2021.
