 Gaussian 09, Revision E.01,
 Gaussian 09:  ES64L-G09RevE.01 30-Nov-2015

 -------------------------
 #P OPT Freq B3LYP/6-31G**
 -------------------------

 ------
 KAXLOK
 ------
 Symbolic Z-matrix:
 Charge =  0 Multiplicity = 1

 SCF Done:  E(RB3LYP) =  -687.417922051     A.U. after   15 cycles
 SCF Done:  E(RB3LYP) =  -687.531562975     A.U. after   13 cycles
 SCF Done:  E(RB3LYP) =  -687.634817007     A.U. after   14 cycles
 SCF Done:  E(RB3LYP) =  -687.659090473     A.U. after   13 cycles
 SCF Done:  E(RB3LYP) =  -687.662399032     A.U. after   13 cycles
 SCF Done:  E(RB3LYP) =  -687.663337014     A.U. after   13 cycles
 SCF Done:  E(RB3LYP) =  -687.662113066     A.U. after   14 cycles
 SCF Done:  E(RB3LYP) =  -687.663552918     A.U. after   10 cycles
 SCF Done:  E(RB3LYP) =  -687.664341088     A.U. after   13 cycles
 SCF Done:  E(RB3LYP) =  -687.664832048     A.U. after   13 cycles
 SCF Done:  E(RB3LYP) =  -687.665154541     A.U. after   13 cycles
 SCF Done:  E(RB3LYP) =  -687.665286433     A.U. after   13 cycles
 SCF Done:  E(RB3LYP) =  -687.665339009     A.U. after   12 cycles
 SCF Done:  E(RB3LYP) =  -687.665345901     A.U. after   11 cycles
 SCF Done:  E(RB3LYP) =  -687.665347653     A.U. after    9 cycles
 SCF Done:  E(RB3LYP) =  -687.665347631     A.U. after    8 cycles
 SCF Done:  E(RB3LYP) =  -687.665347901     A.U. after    7 cycles
 Optimization completed.
    -- Stationary point found.
 Normal termination of Gaussian 09 at Fri Aug 20 15:54:51 2021.

 ----------------------------------------------------------------------
 #P Geom=AllCheck Guess=TCheck SCRF=Check GenChk RB3LYP/6-31G(d,p) Freq
 ----------------------------------------------------------------------

 Structure from the checkpoint file:  "/public/home/users/caep010/.cache/gau_scr/Gau-128818.chk"
 ------
 KAXLOK
 ------
 Charge =  0 Multiplicity = 1

                         Standard orientation:
 ---------------------------------------------------------------------
 Center     Atomic      Atomic             Coordinates (Angstroms)
 Number     Number       Type             X           Y           Z
 ---------------------------------------------------------------------
      1          6           0       -0.780333   -2.189226    0.250631
      2          6           0       -2.127789   -2.541839   -0.390562
      3          6           0       -2.932342   -1.246024   -0.232391
      4          7           0       -0.616404   -0.760847   -0.055053
      5          1           0       -0.804714   -2.365576    1.334945
      6          6           0       -1.895688   -0.132548   -0.460142
      7          6           0       -2.229908    1.135388    0.322260
      8          6           0        0.561564   -0.112173   -0.224266
      9          1           0       -2.602374   -3.405612    0.081881
     10          8           0       -1.396479    2.184031   -0.120017
     11          6           0        1.826291   -0.477552    0.137838
     12          6           0        2.319680   -1.621331    0.975054
     13          7           0        2.865692    0.430461   -0.300670
     14          8           0        2.582160    1.428065   -0.983402
     15          8           0        4.026709    0.150964    0.036614
     16          6           0       -1.552176    3.378405    0.622770
     17          1           0        0.050912   -2.762305   -0.166886
     18          1           0       -1.985463   -2.772491   -1.451854
     19          1           0       -2.578995    3.768662    0.550499
     20          1           0       -1.310310    3.229298    1.685696
     21          1           0        1.492121   -2.153689    1.443258
     22          1           0        2.912315   -2.336931    0.394099
     23          1           0        2.975029   -1.247452    1.766029
     24          1           0        0.473828    0.851892   -0.712793
     25          1           0       -3.291716    1.389058    0.156527
     26          1           0       -2.096696    0.947456    1.400992
     27          1           0       -1.845014    0.139553   -1.523824
     28          1           0       -3.335892   -1.175626    0.785832
     29          1           0       -0.861393    4.110261    0.200500
     30          1           0       -3.771556   -1.166871   -0.927560
 ---------------------------------------------------------------------

 SCF Done:  E(RB3LYP) =  -687.665347901     A.U. after    1 cycles

 The electronic state is 1-A.
 Alpha  occ. eigenvalues --  -19.16470 -19.13566 -19.13247 -14.52829 -14.38022
 Alpha  occ. eigenvalues --  -10.25014 -10.24552 -10.24060 -10.23727 -10.23462
 Alpha  occ. eigenvalues --  -10.21406 -10.21318 -10.21159 -10.18292  -1.17503
 Alpha  occ. eigenvalues --   -1.04884  -1.00049  -0.97465  -0.83877  -0.79787
 Alpha  occ. eigenvalues --   -0.78799  -0.71838  -0.69826  -0.68052  -0.64939
 Alpha  occ. eigenvalues --   -0.61960  -0.59119  -0.55025  -0.53092  -0.51072
 Alpha  occ. eigenvalues --   -0.49850  -0.49461  -0.49026  -0.48361  -0.46746
 Alpha  occ. eigenvalues --   -0.45941  -0.44261  -0.43420  -0.42022  -0.41463
 Alpha  occ. eigenvalues --   -0.40314  -0.39973  -0.39571  -0.37270  -0.36681
 Alpha  occ. eigenvalues --   -0.36260  -0.35517  -0.33235  -0.31900  -0.27139
 Alpha  occ. eigenvalues --   -0.26864  -0.26622  -0.24578  -0.20765
 Alpha virt. eigenvalues --   -0.04350   0.05604   0.06525   0.07995   0.09276
 Alpha virt. eigenvalues --    0.10125   0.10877   0.11537   0.12627   0.13454
 Alpha virt. eigenvalues --    0.14211   0.15157   0.15337   0.16118   0.16849

 Mulliken charges:
               1
     1  C   -0.026198
     2  C   -0.223228
     3  C   -0.227864
     4  N   -0.473847
     5  H    0.117371
     6  C    0.075719
     7  C    0.099251
     8  C    0.113673
     9  H    0.112106
    10  O   -0.482590
    11  C    0.173064
    12  C   -0.359429
    13  N    0.409780
    14  O   -0.449796
    15  O   -0.429053
    16  C   -0.064514
    17  H    0.129953
    18  H    0.120798
    19  H    0.092864
    20  H    0.099164
    21  H    0.093860
    22  H    0.127977
    23  H    0.140386
    24  H    0.174437
    25  H    0.084496
    26  H    0.086762
    27  H    0.123355
    28  H    0.111192
    29  H    0.131881
    30  H    0.118432
 Sum of Mulliken charges =  -0.00000

 Dipole moment (field-independent basis, Debye):
    X=             -7.7929    Y=             -2.7839    Z=              1.7430  Tot=              8.4568
 Quadrupole moment (field-independent basis, Debye-Ang):
   XX=            -97.8370   YY=            -76.1195   ZZ=            -83.1639
   XY=             -5.7881   XZ=              2.6107   YZ=              4.1188

  Exact polarizability: 172.402   8.204 126.188   5.168  -8.587  88.577
 Approx polarizability: 256.934   9.009 173.076  10.670 -23.531 141.498

                      1                      2                      3
                      A                      A                      A
 Frequencies --     26.9913                50.9112                70.1985
 Red. masses --      4.2605                 4.0648                 3.6553
 Frc consts  --      0.0018                 0.0062                 0.0106
 IR Inten    --      0.6317                 0.7917                 0.2010

                      4                      5                      6
                      A                      A                      A
 Frequencies --     89.5121               111.4029               119.2191
 Red. masses --      2.9657                 3.0349                 4.2198
 Frc consts  --      0.0140                 0.0222                 0.0353
 IR Inten    --      2.1318                 1.1753                 2.2711

                      7                      8                      9
                      A                      A                      A
 Frequencies --    145.0515               157.9650               195.6996
 Red. masses --      2.2266                 1.4478                 2.1959
 Frc consts  --      0.0276                 0.0213                 0.0496
 IR Inten    --      1.1345                 0.1501                 1.8583

                     10                     11                     12
                      A                      A                      A
 Frequencies --    232.9370               245.9961               266.9865
 Red. masses --      1.4552                 2.3256                 4.5635
 Frc consts  --      0.0465                 0.0829                 0.1917
 IR Inten    --      4.1460                 1.4347                 0.7433

                     13                     14                     15
                      A                      A                      A
 Frequencies --    277.0601               300.9539               352.9786
 Red. masses --      2.9096                 3.2201                 4.4191
 Frc consts  --      0.1316                 0.1718                 0.3244
 IR Inten    --      3.8743                 1.2451                 0.1885

                     16                     17                     18
                      A                      A                      A
 Frequencies --    380.0738               428.0623               454.0625
 Red. masses --      2.7456                 3.7599                 2.8804
 Frc consts  --      0.2337                 0.4059                 0.3499
 IR Inten    --      0.7838                 9.6148                13.4380

                     19                     20                     21
                      A                      A                      A
 Frequencies --    516.0646               558.0389               593.3240
 Red. masses --      2.5928                 6.4990                 1.9559
 Frc consts  --      0.4068                 1.1924                 0.4057
 IR Inten    --     12.8462                 4.0639                 1.0424

                     22                     23                     24
                      A                      A                      A
 Frequencies --    655.8170               725.0092               752.5210
 Red. masses --      4.3670                 3.7559                 9.5221
 Frc consts  --      1.1066                 1.1632                 3.1770
 IR Inten    --      2.6644                 6.7178                14.7987

                     25                     26                     27
                      A                      A                      A
 Frequencies --    817.7140               869.2598               884.7257
 Red. masses --      3.5691                 5.8903                 1.9096
 Frc consts  --      1.4061                 2.6223                 0.8807
 IR Inten    --      6.2510                20.9466                15.6437

                     28                     29                     30
                      A                      A                      A
 Frequencies --    899.9777               941.4817               955.6018
 Red. masses --      1.4539                 2.5629                 1.7575
 Frc consts  --      0.6938                 1.3384                 0.9456
 IR Inten    --      3.7532                 8.6145                 0.0414

                     31                     32                     33
                      A                      A                      A
 Frequencies --    977.7709               992.9001               994.8097
 Red. masses --      1.4757                 1.9559                 2.8563
 Frc consts  --      0.8312                 1.1361                 1.6655
 IR Inten    --     50.7304                38.7311                11.7333

                     34                     35                     36
                      A                      A                      A
 Frequencies --   1020.2670              1039.6103              1071.5079
 Red. masses --      1.9498                 1.8248                 1.3665
 Frc consts  --      1.1958                 1.1620                 0.9244
 IR Inten    --      5.6149                 5.9993                 5.4978

                     37                     38                     39
                      A                      A                      A
 Frequencies --   1115.9078              1136.0512              1139.4302
 Red. masses --      2.2043                 2.7408                 2.0057
 Frc consts  --      1.6172                 2.0841                 1.5343
 IR Inten    --     17.3615                47.0539                12.6363

                     40                     41                     42
                      A                      A                      A
 Frequencies --   1171.0345              1183.8336              1193.2164
 Red. masses --      3.0487                 1.2803                 1.5991
 Frc consts  --      2.4632                 1.0571                 1.3414
 IR Inten    --     99.1104                12.0900                18.3606

                     43                     44                     45
                      A                      A                      A
 Frequencies --   1206.4754              1223.9165              1237.9900
 Red. masses --      2.3773                 1.7918                 1.6601
 Frc consts  --      2.0388                 1.5814                 1.4990
 IR Inten    --      7.9867                16.9987                25.3269

                     46                     47                     48
                      A                      A                      A
 Frequencies --   1267.6683              1283.4664              1305.7840
 Red. masses --      1.1786                 1.2546                 1.3078
 Frc consts  --      1.1159                 1.2177                 1.3138
 IR Inten    --     13.7934                 5.6060                13.5965

                     49                     50                     51
                      A                      A                      A
 Frequencies --   1344.7485              1348.0885              1363.4675
 Red. masses --      5.9397                 1.4116                 1.2668
 Frc consts  --      6.3284                 1.5115                 1.3875
 IR Inten    --    934.1539                 3.2762                 2.4261

                     52                     53                     54
                      A                      A                      A
 Frequencies --   1367.2648              1391.8004              1412.0861
 Red. masses --      1.2997                 1.5294                 1.8499
 Frc consts  --      1.4316                 1.7455                 2.1733
 IR Inten    --     10.4263                15.6110                94.0815

                     55                     56                     57
                      A                      A                      A
 Frequencies --   1421.4009              1434.4719              1453.0969
 Red. masses --      1.5422                 1.5334                 2.0065
 Frc consts  --      1.8358                 1.8590                 2.4962
 IR Inten    --     32.4254                17.5850                37.0501

                     58                     59                     60
                      A                      A                      A
 Frequencies --   1488.9537              1489.9449              1500.5882
 Red. masses --      1.1547                 1.0491                 1.0466
 Frc consts  --      1.5083                 1.3722                 1.3885
 IR Inten    --      4.1657                 6.7839                 7.5192

                     61                     62                     63
                      A                      A                      A
 Frequencies --   1503.3432              1508.7427              1511.3589
 Red. masses --      1.0886                 1.0993                 1.0703
 Frc consts  --      1.4495                 1.4743                 1.4404
 IR Inten    --      3.6274                14.2241                13.2837

                     64                     65                     66
                      A                      A                      A
 Frequencies --   1514.2061              1533.8130              1536.9610
 Red. masses --      1.0976                 1.0978                 1.0977
 Frc consts  --      1.4828                 1.5217                 1.5278
 IR Inten    --      1.3181                 4.9985                 3.7573

                     67                     68                     69
                      A                      A                      A
 Frequencies --   1586.1659              1705.1495              2959.8867
 Red. masses --     10.9698                 6.7690                 1.0557
 Frc consts  --     16.2610                11.5957                 5.4491
 IR Inten    --    123.2333               412.9700                44.1206

                     70                     71                     72
                      A                      A                      A
 Frequencies --   2990.4452              2998.0553              3016.5683
 Red. masses --      1.0400                 1.1003                 1.0705
 Frc consts  --      5.4798                 5.8267                 5.7396
 IR Inten    --     81.3155                29.1280                40.2278

                     73                     74                     75
                      A                      A                      A
 Frequencies --   3026.7916              3040.9957              3046.4265
 Red. masses --      1.0869                 1.1046                 1.0696
 Frc consts  --      5.8666                 6.0186                 5.8485
 IR Inten    --     49.5375                51.7554                24.6854

                     76                     77                     78
                      A                      A                      A
 Frequencies --   3053.5540              3066.6791              3111.0146
 Red. masses --      1.0450                 1.0633                 1.0942
 Frc consts  --      5.7408                 5.8917                 6.2393
 IR Inten    --     23.3081                23.2577                 8.9937

                     79                     80                     81
                      A                      A                      A
 Frequencies --   3112.6547              3120.0834              3126.8979
 Red. masses --      1.0951                 1.0971                 1.1045
 Frc consts  --      6.2511                 6.2929                 6.3625
 IR Inten    --     17.8095                26.3113                30.6825

                     82                     83                     84
                      A                      A                      A
 Frequencies --   3145.0390              3167.7310              3226.0083
 Red. masses --      1.0975                 1.0974                 1.0885
 Frc consts  --      6.3959                 6.4881                 6.6745
 IR Inten    --     17.5142                15.2819                10.6702

 - Thermochemistry -
 -------------------
 Temperature   298.150 Kelvin.  Pressure   1.00000 Atm.
 Atom     1 has atomic number  6 and mass  12.00000

 Molecular mass:   200.11609 amu.
 Principal axes and moments of inertia in atomic units:
                           1         2         3
     Eigenvalues --  2187.905863806.820395568.60755
           X            0.99959  -0.02807   0.00600
           Y            0.02802   0.99958   0.00771
           Z           -0.00621  -0.00754   0.99995
 This molecule is an asymmetric top.
 Rotational symmetry number  1.
 Warning -- assumption of classical behavior for rotation
           may cause significant error
 Rotational temperatures (Kelvin)      0.03959     0.02275     0.01555
 Rotational constants (GHZ):           0.82487     0.47408     0.32409
 Zero-point vibrational energy     671474.2 (Joules/Mol)
                                  160.48619 (Kcal/Mol)
 Warning -- explicit consideration of  21 degrees of freedom as
           vibrations may cause significant error
 Vibrational temperatures:     38.83    73.25   101.00   128.79   160.28
          (Kelvin)            171.53   208.70   227.28   281.57   335.14
                              353.93   384.13   398.63   433.00   507.86
                              546.84   615.89   653.29   742.50   802.89
                              853.66   943.57  1043.13  1082.71  1176.51
                             1250.67  1272.92  1294.87  1354.58  1374.90
                             1406.79  1428.56  1431.31  1467.93  1495.77
                             1541.66  1605.54  1634.52  1639.38  1684.86
                             1703.27  1716.77  1735.85  1760.94  1781.19
                             1823.89  1846.62  1878.73  1934.79  1939.60
                             1961.72  1967.19  2002.49  2031.67  2045.08
                             2063.88  2090.68  2142.27  2143.70  2159.01
                             2162.97  2170.74  2174.51  2178.60  2206.81
                             2211.34  2282.14  2453.33  4258.61  4302.58
                             4313.53  4340.16  4354.87  4375.31  4383.12
                             4393.38  4412.26  4476.05  4478.41  4489.10
                             4498.90  4525.00  4557.65  4641.50

 Zero-point correction=                           0.255751 (Hartree/Particle)
 Thermal correction to Energy=                    0.270427
 Thermal correction to Enthalpy=                  0.271372
 Thermal correction to Gibbs Free Energy=         0.212842
 Sum of electronic and zero-point Energies=           -687.409597
 Sum of electronic and thermal Energies=              -687.394921
 Sum of electronic and thermal Enthalpies=            -687.393976
 Sum of electronic and thermal Free Energies=         -687.452506

                     E (Thermal)             CV                S
                      KCal/Mol        Cal/Mol-Kelvin    Cal/Mol-Kelvin
 Total                  169.696             53.116            123.187
 Electronic               0.000              0.000              0.000
 Translational            0.889              2.981             41.786
 Rotational               0.889              2.981             32.206
 Vibrational            167.918             47.154             49.195
 Vibration     1          0.593              1.984              6.039
 Vibration     2          0.595              1.977              4.782
 Vibration     3          0.598              1.968              4.148
 Vibration     4          0.602              1.957              3.671
 Vibration     5          0.607              1.940              3.244
 Vibration     6          0.609              1.933              3.113
 Vibration     7          0.616              1.908              2.736
 Vibration     8          0.621              1.894              2.574
 Vibration     9          0.636              1.846              2.173
 Vibration    10          0.654              1.791              1.856
 Vibration    11          0.660              1.769              1.759
 Vibration    12          0.672              1.734              1.616
 Vibration    13          0.678              1.716              1.552
 Vibration    14          0.693              1.672              1.412
 Vibration    15          0.729              1.569              1.153
 Vibration    16          0.750              1.513              1.039
 Vibration    17          0.790              1.409              0.865
 Vibration    18          0.813              1.352              0.784
 Vibration    19          0.871              1.214              0.619
 Vibration    20          0.914              1.122              0.528
 Vibration    21          0.951              1.046              0.461

 Normal termination of Gaussian 09 at Fri Aug 20 15:55:58 2021.
