 Gaussian 09, Revision E.01,
 Gaussian 09:  ES64L-G09RevE.01 30-Nov-2015

 -------------------------
 #P OPT Freq B3LYP/6-31G**
 -------------------------

 --------
 MNIANL05
 --------
 Symbolic Z-matrix:
 Charge =  0 Multiplicity = 1

 SCF Done:  E(RB3LYP) =  -491.979511884     A.U. after   15 cycles
 SCF Done:  E(RB3LYP) =  -492.077582192     A.U. after   14 cycles
 SCF Done:  E(RB3LYP) =  -492.115394054     A.U. after   15 cycles
 SCF Done:  E(RB3LYP) =  -492.099249172     A.U. after   17 cycles
 SCF Done:  E(RB3LYP) =  -492.116513463     A.U. after   13 cycles
 SCF Done:  E(RB3LYP) =  -492.117037217     A.U. after   13 cycles
 SCF Done:  E(RB3LYP) =  -492.117131367     A.U. after   12 cycles
 SCF Done:  E(RB3LYP) =  -492.117138015     A.U. after   10 cycles
 SCF Done:  E(RB3LYP) =  -492.117139451     A.U. after    9 cycles
 SCF Done:  E(RB3LYP) =  -492.117144044     A.U. after   10 cycles
 SCF Done:  E(RB3LYP) =  -492.035322711     A.U. after   16 cycles
 SCF Done:  E(RB3LYP) =  -492.117145714     A.U. after    8 cycles
 SCF Done:  E(RB3LYP) =  -492.117374329     A.U. after   14 cycles
 SCF Done:  E(RB3LYP) =  -492.117781680     A.U. after   12 cycles
 SCF Done:  E(RB3LYP) =  -492.118000722     A.U. after   14 cycles
 SCF Done:  E(RB3LYP) =  -492.118128969     A.U. after   12 cycles
 SCF Done:  E(RB3LYP) =  -492.118132460     A.U. after   10 cycles
 SCF Done:  E(RB3LYP) =  -492.118133073     A.U. after    9 cycles
 SCF Done:  E(RB3LYP) =  -492.118133179     A.U. after    8 cycles
 Optimization completed.
    -- Stationary point found.
 Normal termination of Gaussian 09 at Fri Aug 20 15:40:58 2021.

 ----------------------------------------------------------------------
 #P Geom=AllCheck Guess=TCheck SCRF=Check GenChk RB3LYP/6-31G(d,p) Freq
 ----------------------------------------------------------------------

 Structure from the checkpoint file:  "/public/home/users/caep010/.cache/gau_scr/Gau-89607.chk"
 --------
 MNIANL05
 --------
 Charge =  0 Multiplicity = 1

                         Standard orientation:
 ---------------------------------------------------------------------
 Center     Atomic      Atomic             Coordinates (Angstroms)
 Number     Number       Type             X           Y           Z
 ---------------------------------------------------------------------
      1          6           0       -0.591272    0.125031   -0.003024
      2          6           0        0.403103   -0.846705   -0.008001
      3          6           0        1.748203   -0.447238   -0.007845
      4          1           0        0.121760   -1.892682   -0.015192
      5          7           0        2.766267   -1.390327   -0.069691
      6          1           0        3.669562   -1.091073    0.268267
      7          6           0        2.039773    0.930890   -0.001044
      8          1           0        3.077292    1.254384   -0.004692
      9          1           0        2.525277   -2.322739    0.234384
     10          7           0       -1.996900   -0.320231    0.001029
     11          8           0       -2.871651    0.545269    0.001559
     12          8           0       -2.216426   -1.531975    0.004613
     13          6           0       -0.320869    1.490927    0.003440
     14          1           0       -1.132889    2.204947    0.008955
     15          6           0        1.018737    1.877399    0.004522
     16          1           0        1.271996    2.932892    0.011246
 ---------------------------------------------------------------------

 SCF Done:  E(RB3LYP) =  -492.118133179     A.U. after    1 cycles

 The electronic state is 1-A.
 Alpha  occ. eigenvalues --  -19.17514 -19.17504 -14.56584 -14.36106 -10.25363
 Alpha  occ. eigenvalues --  -10.24801 -10.21130 -10.20919 -10.20879 -10.20464
 Alpha  occ. eigenvalues --   -1.21780  -1.04474  -0.94027  -0.87167  -0.79595
 Alpha  occ. eigenvalues --   -0.75319  -0.69819  -0.62766  -0.59813  -0.55676
 Alpha  occ. eigenvalues --   -0.53371  -0.52507  -0.50534  -0.49941  -0.48875
 Alpha  occ. eigenvalues --   -0.44979  -0.44541  -0.40310  -0.38978  -0.37417
 Alpha  occ. eigenvalues --   -0.33204  -0.30378  -0.30168  -0.28475  -0.27491
 Alpha  occ. eigenvalues --   -0.22527
 Alpha virt. eigenvalues --   -0.08246  -0.01042   0.01308   0.06495   0.08822
 Alpha virt. eigenvalues --    0.10584   0.15047   0.15357   0.15959   0.18486
 Alpha virt. eigenvalues --    0.19694   0.24043   0.27524   0.28572   0.29275

 Mulliken charges:
               1
     1  C    0.239132
     2  C   -0.125554
     3  C    0.280441
     4  H    0.125029
     5  N   -0.657666
     6  H    0.263873
     7  C   -0.094611
     8  H    0.087072
     9  H    0.266976
    10  N    0.384946
    11  O   -0.395546
    12  O   -0.400285
    13  C   -0.102890
    14  H    0.129342
    15  C   -0.101078
    16  H    0.100820
 Sum of Mulliken charges =  -0.00000

 Dipole moment (field-independent basis, Debye):
    X=              5.5650    Y=              0.2871    Z=              0.9917  Tot=              5.6600
 Quadrupole moment (field-independent basis, Debye-Ang):
   XX=            -57.4194   YY=            -51.0652   ZZ=            -58.3895
   XY=             -4.1948   XZ=              3.3696   YZ=             -1.8078

  Exact polarizability: 115.647  -3.506 100.053   0.381  -0.109  30.009
 Approx polarizability: 186.916 -13.004 193.855  -0.517   0.870  46.281

                      1                      2                      3
                      A                      A                      A
 Frequencies --     56.7725               167.4025               219.4595
 Red. masses --     10.4508                 5.1585                 6.0557
 Frc consts  --      0.0198                 0.0852                 0.1718
 IR Inten    --      0.0733                 0.9815                 1.0025

                      4                      5                      6
                      A                      A                      A
 Frequencies --    229.0962               324.3161               378.0203
 Red. masses --      3.6245                 1.0511                 5.7689
 Frc consts  --      0.1121                 0.0651                 0.4857
 IR Inten    --      4.5439                16.1666                 2.1615

                      7                      8                      9
                      A                      A                      A
 Frequencies --    410.2197               439.2557               511.0223
 Red. masses --      5.1986                 3.2083                 2.5145
 Frc consts  --      0.5154                 0.3647                 0.3869
 IR Inten    --      0.1268                 2.4629               160.8423

                     10                     11                     12
                      A                      A                      A
 Frequencies --    525.0965               561.4963               567.7081
 Red. masses --      2.2848                 6.0249                 3.2026
 Frc consts  --      0.3712                 1.1192                 0.6081
 IR Inten    --    127.5879                 5.5566                75.3238

                     13                     14                     15
                      A                      A                      A
 Frequencies --    684.2586               689.6249               749.1584
 Red. masses --      2.4972                 6.7652                 3.7218
 Frc consts  --      0.6889                 1.8956                 1.2307
 IR Inten    --      3.3640                 5.9423                44.2271

                     16                     17                     18
                      A                      A                      A
 Frequencies --    807.9893               827.4376               882.8066
 Red. masses --      1.6241                 9.3921                 1.5729
 Frc consts  --      0.6247                 3.7886                 0.7223
 IR Inten    --     12.7086                37.8338                17.0948

                     19                     20                     21
                      A                      A                      A
 Frequencies --    914.1313               950.2040               980.3996
 Red. masses --      1.4240                 3.9930                 1.2783
 Frc consts  --      0.7011                 2.1241                 0.7239
 IR Inten    --      4.3645                 5.8107                 0.3294

                     22                     23                     24
                      A                      A                      A
 Frequencies --   1012.1922              1085.0565              1112.5918
 Red. masses --      6.1809                 1.5596                 1.9627
 Frc consts  --      3.7310                 1.0818                 1.4315
 IR Inten    --      1.5551                 6.2031                19.5728

                     25                     26                     27
                      A                      A                      A
 Frequencies --   1132.5412              1195.0569              1302.1900
 Red. masses --      1.2715                 1.1328                 1.8853
 Frc consts  --      0.9609                 0.9532                 1.8836
 IR Inten    --     11.4908                 0.7932                25.9920

                     28                     29                     30
                      A                      A                      A
 Frequencies --   1347.2029              1386.7195              1399.2477
 Red. masses --      1.8794                 6.4022                14.1333
 Frc consts  --      2.0098                 7.2536                16.3036
 IR Inten    --     48.0906                29.9649               282.9169

                     31                     32                     33
                      A                      A                      A
 Frequencies --   1504.0311              1533.6220              1625.4286
 Red. masses --      2.9468                 2.7953                 8.0478
 Frc consts  --      3.9275                 3.8736                12.5275
 IR Inten    --      0.2530                41.7522               172.8283

                     34                     35                     36
                      A                      A                      A
 Frequencies --   1641.1878              1666.3381              1688.3337
 Red. masses --      5.4848                 1.4157                 4.1640
 Frc consts  --      8.7041                 2.3160                 6.9933
 IR Inten    --    105.1710                90.9882                58.7079

                     37                     38                     39
                      A                      A                      A
 Frequencies --   3181.7317              3204.6702              3231.9866
 Red. masses --      1.0885                 1.0935                 1.0910
 Frc consts  --      6.4921                 6.6165                 6.7146
 IR Inten    --     10.3321                13.1966                 3.3726

                     40                     41                     42
                      A                      A                      A
 Frequencies --   3257.5010              3584.3840              3693.8195
 Red. masses --      1.0930                 1.0474                 1.0997
 Frc consts  --      6.8336                 7.9288                 8.8406
 IR Inten    --      2.7435                28.4389                16.9514

 - Thermochemistry -
 -------------------
 Temperature   298.150 Kelvin.  Pressure   1.00000 Atm.
 Atom     1 has atomic number  6 and mass  12.00000

 Molecular mass:   138.04293 amu.
 Principal axes and moments of inertia in atomic units:
                           1         2         3
     Eigenvalues --   667.328381828.421402494.40064
           X            0.99988  -0.01498   0.00314
           Y            0.01499   0.99988  -0.00411
           Z           -0.00308   0.00416   0.99999
 This molecule is an asymmetric top.
 Rotational symmetry number  1.
 Warning -- assumption of classical behavior for rotation
           may cause significant error
 Rotational temperatures (Kelvin)      0.12979     0.04737     0.03472
 Rotational constants (GHZ):           2.70443     0.98705     0.72352
 Zero-point vibrational energy     314987.0 (Joules/Mol)
                                   75.28369 (Kcal/Mol)
 Warning -- explicit consideration of  12 degrees of freedom as
           vibrations may cause significant error
 Vibrational temperatures:     81.68   240.85   315.75   329.62   466.62
          (Kelvin)            543.89   590.21   631.99   735.25   755.50
                              807.87   816.80   984.49   992.22  1077.87
                             1162.51  1190.50  1270.16  1315.23  1367.13
                             1410.57  1456.32  1561.15  1600.77  1629.47
                             1719.42  1873.56  1938.32  1995.18  2013.20
                             2163.96  2206.54  2338.63  2361.30  2397.49
                             2429.13  4577.80  4610.80  4650.10  4686.81
                             5157.12  5314.58

 Zero-point correction=                           0.119972 (Hartree/Particle)
 Thermal correction to Energy=                    0.128214
 Thermal correction to Enthalpy=                  0.129159
 Thermal correction to Gibbs Free Energy=         0.086571
 Sum of electronic and zero-point Energies=           -491.998161
 Sum of electronic and thermal Energies=              -491.989919
 Sum of electronic and thermal Enthalpies=            -491.988975
 Sum of electronic and thermal Free Energies=         -492.031562

                     E (Thermal)             CV                S
                      KCal/Mol        Cal/Mol-Kelvin    Cal/Mol-Kelvin
 Total                   80.456             31.762             89.633
 Electronic               0.000              0.000              0.000
 Translational            0.889              2.981             40.679
 Rotational               0.889              2.981             29.500
 Vibrational             78.678             25.800             19.454
 Vibration     1          0.596              1.975              4.566
 Vibration     2          0.624              1.883              2.464
 Vibration     3          0.647              1.811              1.964
 Vibration     4          0.652              1.797              1.886
 Vibration     5          0.709              1.627              1.288
 Vibration     6          0.748              1.517              1.047
 Vibration     7          0.774              1.448              0.926
 Vibration     8          0.799              1.385              0.829
 Vibration     9          0.866              1.226              0.631
 Vibration    10          0.880              1.194              0.598
 Vibration    11          0.917              1.115              0.521
 Vibration    12          0.924              1.101              0.509

 Normal termination of Gaussian 09 at Fri Aug 20 15:41:16 2021.
