 Gaussian 09, Revision E.01,
 Gaussian 09:  ES64L-G09RevE.01 30-Nov-2015

 -------------------------
 #P OPT Freq B3LYP/6-31G**
 -------------------------

 ------
 TANHAR
 ------
 Symbolic Z-matrix:
 Charge =  0 Multiplicity = 1

 SCF Done:  E(RB3LYP) =  -644.352527220     A.U. after   16 cycles
 SCF Done:  E(RB3LYP) =  -644.418666994     A.U. after   14 cycles
 SCF Done:  E(RB3LYP) =  -644.435591859     A.U. after   16 cycles
 SCF Done:  E(RB3LYP) =  -644.423795699     A.U. after   17 cycles
 SCF Done:  E(RB3LYP) =  -644.437641995     A.U. after   12 cycles
 SCF Done:  E(RB3LYP) =  -644.438048277     A.U. after   14 cycles
 SCF Done:  E(RB3LYP) =  -644.438103371     A.U. after   14 cycles
 SCF Done:  E(RB3LYP) =  -644.438122451     A.U. after   12 cycles
 SCF Done:  E(RB3LYP) =  -644.438127482     A.U. after   11 cycles
 SCF Done:  E(RB3LYP) =  -644.438129109     A.U. after    9 cycles
 SCF Done:  E(RB3LYP) =  -644.438130728     A.U. after   10 cycles
 SCF Done:  E(RB3LYP) =  -644.438131305     A.U. after    9 cycles
 SCF Done:  E(RB3LYP) =  -644.438131448     A.U. after    8 cycles
 Optimization completed.
    -- Stationary point found.
 Normal termination of Gaussian 09 at Fri Aug 20 15:54:49 2021.

 ----------------------------------------------------------------------
 #P Geom=AllCheck Guess=TCheck SCRF=Check GenChk RB3LYP/6-31G(d,p) Freq
 ----------------------------------------------------------------------

 Structure from the checkpoint file:  "/public/home/users/caep010/.cache/gau_scr/Gau-195058.chk"
 ------
 TANHAR
 ------
 Charge =  0 Multiplicity = 1

                         Standard orientation:
 ---------------------------------------------------------------------
 Center     Atomic      Atomic             Coordinates (Angstroms)
 Number     Number       Type             X           Y           Z
 ---------------------------------------------------------------------
      1          6           0        1.590308   -0.059371    0.468560
      2          6           0        0.167432   -0.436010    0.745860
      3          6           0       -1.176513   -0.152794    0.305080
      4          6           0       -1.398762    0.786623   -0.714918
      5          6           0       -2.697615    1.060944   -1.134439
      6          6           0       -3.777263    0.401657   -0.542964
      7          1           0       -4.789113    0.616715   -0.872722
      8          6           0       -3.560566   -0.535201    0.472281
      9          7           0        2.237242   -0.652697   -0.787392
     10          8           0        1.929134   -1.803020   -1.068457
     11          8           0        3.000066    0.071166   -1.413008
     12          1           0       -0.554601    1.296225   -1.168800
     13          6           0       -2.266658   -0.814535    0.898130
     14          1           0       -2.089414   -1.541435    1.684508
     15          6           0        2.141282    1.245818    0.785863
     16          7           0        2.519537    2.291912    1.119087
     17          6           0        1.073968   -1.008121    1.484318
     18          1           0        1.397707   -1.666356    2.272889
     19          1           0       -2.867625    1.787811   -1.922161
     20          1           0       -4.401691   -1.046692    0.929516
 ---------------------------------------------------------------------

 SCF Done:  E(RB3LYP) =  -644.438131448     A.U. after    1 cycles

 The electronic state is 1-A.
 Alpha  occ. eigenvalues --  -19.19411 -19.19344 -14.57726 -14.34535 -10.31095
 Alpha  occ. eigenvalues --  -10.26962 -10.25819 -10.24232 -10.23956 -10.22711
 Alpha  occ. eigenvalues --  -10.22602 -10.22349 -10.22105 -10.22002  -1.23582
 Alpha  occ. eigenvalues --   -1.06702  -0.96004  -0.90683  -0.88661  -0.79515
 Alpha  occ. eigenvalues --   -0.77772  -0.75983  -0.66393  -0.65017  -0.63605
 Alpha  occ. eigenvalues --   -0.59994  -0.56981  -0.56489  -0.53863  -0.51823
 Alpha  occ. eigenvalues --   -0.51098  -0.48816  -0.46876  -0.45198  -0.43154
 Alpha  occ. eigenvalues --   -0.41063  -0.40066  -0.38313  -0.37465  -0.37131
 Alpha  occ. eigenvalues --   -0.36148  -0.34300  -0.32297  -0.31498  -0.30993
 Alpha  occ. eigenvalues --   -0.29987  -0.28246  -0.26742
 Alpha virt. eigenvalues --   -0.07925  -0.07097  -0.03118   0.00655   0.01304
 Alpha virt. eigenvalues --    0.03404   0.07086   0.10249   0.11421   0.12693
 Alpha virt. eigenvalues --    0.13003   0.14053   0.15912   0.16361   0.17757

 Mulliken charges:
               1
     1  C    0.074880
     2  C    0.156390
     3  C    0.067355
     4  C   -0.109350
     5  C   -0.084524
     6  C   -0.071483
     7  H    0.105138
     8  C   -0.092095
     9  N    0.473028
    10  O   -0.377965
    11  O   -0.383792
    12  H    0.120316
    13  C   -0.086790
    14  H    0.105624
    15  C    0.340358
    16  N   -0.467166
    17  C   -0.134089
    18  H    0.151187
    19  H    0.108195
    20  H    0.104784
 Sum of Mulliken charges =   0.00000

 Dipole moment (field-independent basis, Debye):
    X=             -5.7645    Y=             -2.1154    Z=              1.8078  Tot=              6.4009
 Quadrupole moment (field-independent basis, Debye-Ang):
   XX=            -77.6948   YY=            -85.6346   ZZ=            -76.3261
   XY=             -7.1561   XZ=              5.1940   YZ=            -12.0168

  Exact polarizability: 163.653   7.742 100.962   9.889 -22.503  90.609
 Approx polarizability: 246.199  21.223 194.747  17.907 -49.790 153.751

                      1                      2                      3
                      A                      A                      A
 Frequencies --     39.1678                40.3367                56.1670
 Red. masses --      7.6689                 5.6571                 8.8800
 Frc consts  --      0.0069                 0.0054                 0.0165
 IR Inten    --      0.1374                 0.2024                 0.0363

                      4                      5                      6
                      A                      A                      A
 Frequencies --     76.3649               158.3383               176.0383
 Red. masses --      7.4379                 9.8273                 5.5270
 Frc consts  --      0.0256                 0.1452                 0.1009
 IR Inten    --      3.2727                 4.5767                 0.9964

                      7                      8                      9
                      A                      A                      A
 Frequencies --    221.0030               276.7645               347.3978
 Red. masses --      5.8222                 4.3419                 8.7092
 Frc consts  --      0.1675                 0.1960                 0.6193
 IR Inten    --      2.5852                 1.6982                 5.1316

                     10                     11                     12
                      A                      A                      A
 Frequencies --    402.8761               414.1607               433.5441
 Red. masses --      4.2599                 3.0851                 7.1670
 Frc consts  --      0.4074                 0.3118                 0.7937
 IR Inten    --      6.9775                 0.9557                 4.8436

                     13                     14                     15
                      A                      A                      A
 Frequencies --    473.2401               508.6442               552.2521
 Red. masses --      5.4443                 8.5647                 4.1445
 Frc consts  --      0.7184                 1.3055                 0.7447
 IR Inten    --      0.0241                 1.3205                 1.8423

                     16                     17                     18
                      A                      A                      A
 Frequencies --    582.4498               626.3052               661.9399
 Red. masses --      5.1270                 6.5040                 8.5727
 Frc consts  --      1.0248                 1.5031                 2.2131
 IR Inten    --      3.9935                 1.4989                15.1942

                     19                     20                     21
                      A                      A                      A
 Frequencies --    698.6683               706.5598               722.5496
 Red. masses --      2.2049                 5.2049                 1.5188
 Frc consts  --      0.6341                 1.5309                 0.4672
 IR Inten    --      2.8505                 4.6295                66.9512

                     22                     23                     24
                      A                      A                      A
 Frequencies --    784.8571               790.6726               842.1480
 Red. masses --      1.8775                 8.5851                12.5856
 Frc consts  --      0.6814                 3.1622                 5.2590
 IR Inten    --     14.6607                12.2303                41.8659

                     25                     26                     27
                      A                      A                      A
 Frequencies --    858.2178               942.8552               953.0368
 Red. masses --      1.2531                 1.4462                 7.1104
 Frc consts  --      0.5438                 0.7575                 3.8051
 IR Inten    --      0.1335                 1.0806                11.3321

                     28                     29                     30
                      A                      A                      A
 Frequencies --    980.9042               983.3771              1011.4898
 Red. masses --      1.3606                 6.8378                 1.2860
 Frc consts  --      0.7713                 3.8959                 0.7752
 IR Inten    --      0.0230                22.1757                 0.0158

                     31                     32                     33
                      A                      A                      A
 Frequencies --   1015.2253              1017.3938              1053.9893
 Red. masses --      1.6883                 3.7985                 2.1173
 Frc consts  --      1.0253                 2.3165                 1.3858
 IR Inten    --      7.3587                 4.9615                 0.2335

                     34                     35                     36
                      A                      A                      A
 Frequencies --   1113.8131              1192.2415              1206.2878
 Red. masses --      1.5610                 1.1045                 1.1711
 Frc consts  --      1.1410                 0.9250                 1.0040
 IR Inten    --      3.7638                 0.2034                 8.7832

                     37                     38                     39
                      A                      A                      A
 Frequencies --   1218.6525              1238.0068              1341.3883
 Red. masses --      8.8740                 4.0226                 2.2110
 Frc consts  --      7.7647                 3.6325                 2.3440
 IR Inten    --     11.2077                29.7378                 2.7583

                     40                     41                     42
                      A                      A                      A
 Frequencies --   1367.6680              1409.5341              1489.3690
 Red. masses --      2.3338                14.2126                 2.2578
 Frc consts  --      2.5720                16.6370                 2.9507
 IR Inten    --      3.1932               133.5817                11.8411

                     43                     44                     45
                      A                      A                      A
 Frequencies --   1532.9425              1631.7351              1655.9825
 Red. masses --      2.1698                 5.3293                 5.4743
 Frc consts  --      3.0041                 8.3603                 8.8448
 IR Inten    --      3.6452                 1.6125                 7.2401

                     46                     47                     48
                      A                      A                      A
 Frequencies --   1682.5461              1859.7803              2362.7032
 Red. masses --     14.5493                 8.0228                12.6902
 Frc consts  --     24.2676                16.3492                41.7384
 IR Inten    --    222.0608                34.1925                 5.6751

                     49                     50                     51
                      A                      A                      A
 Frequencies --   3190.2899              3197.7988              3203.6221
 Red. masses --      1.0858                 1.0882                 1.0919
 Frc consts  --      6.5112                 6.5563                 6.6025
 IR Inten    --      0.2190                 0.3579                 7.4828

                     52                     53                     54
                      A                      A                      A
 Frequencies --   3211.5532              3217.8389              3320.3236
 Red. masses --      1.0956                 1.0988                 1.1171
 Frc consts  --      6.6578                 6.7032                 7.2563
 IR Inten    --     15.6920                 9.6616                24.2273

 - Thermochemistry -
 -------------------
 Temperature   298.150 Kelvin.  Pressure   1.00000 Atm.
 Atom     1 has atomic number  6 and mass  12.00000

 Molecular mass:   186.04293 amu.
 Principal axes and moments of inertia in atomic units:
                           1         2         3
     Eigenvalues --  1370.559424285.904784449.26127
           X            0.99997  -0.00177   0.00750
           Y            0.00388   0.95645  -0.29188
           Z           -0.00665   0.29190   0.95643
 This molecule is an asymmetric top.
 Rotational symmetry number  1.
 Warning -- assumption of classical behavior for rotation
           may cause significant error
 Rotational temperatures (Kelvin)      0.06320     0.02021     0.01947
 Rotational constants (GHZ):           1.31679     0.42109     0.40563
 Zero-point vibrational energy     365178.1 (Joules/Mol)
                                   87.27966 (Kcal/Mol)
 Warning -- explicit consideration of  16 degrees of freedom as
           vibrations may cause significant error
 Vibrational temperatures:     56.35    58.04    80.81   109.87   227.81
          (Kelvin)            253.28   317.97   398.20   499.83   579.65
                              595.88   623.77   680.89   731.82   794.57
                              838.01   901.11   952.38  1005.23  1016.58
                             1039.59  1129.23  1137.60  1211.66  1234.78
                             1356.56  1371.21  1411.30  1414.86  1455.31
                             1460.68  1463.80  1516.45  1602.53  1715.37
                             1735.58  1753.37  1781.21  1929.96  1967.77
                             2028.00  2142.87  2205.56  2347.70  2382.59
                             2420.81  2675.81  3399.40  4590.11  4600.91
                             4609.29  4620.70  4629.75  4777.20

 Zero-point correction=                           0.139089 (Hartree/Particle)
 Thermal correction to Energy=                    0.150840
 Thermal correction to Enthalpy=                  0.151784
 Thermal correction to Gibbs Free Energy=         0.099258
 Sum of electronic and zero-point Energies=           -644.299042
 Sum of electronic and thermal Energies=              -644.287292
 Sum of electronic and thermal Enthalpies=            -644.286348
 Sum of electronic and thermal Free Energies=         -644.338874

                     E (Thermal)             CV                S
                      KCal/Mol        Cal/Mol-Kelvin    Cal/Mol-Kelvin
 Total                   94.653             43.357            110.551
 Electronic               0.000              0.000              0.000
 Translational            0.889              2.981             41.569
 Rotational               0.889              2.981             31.636
 Vibrational             92.876             37.395             37.346
 Vibration     1          0.594              1.981              5.301
 Vibration     2          0.594              1.981              5.242
 Vibration     3          0.596              1.975              4.588
 Vibration     4          0.599              1.965              3.982
 Vibration     5          0.621              1.893              2.570
 Vibration     6          0.628              1.872              2.370
 Vibration     7          0.648              1.809              1.951
 Vibration     8          0.678              1.716              1.554
 Vibration     9          0.725              1.581              1.178
 Vibration    10          0.768              1.464              0.952
 Vibration    11          0.778              1.439              0.912
 Vibration    12          0.794              1.397              0.847
 Vibration    13          0.830              1.309              0.729
 Vibration    14          0.864              1.231              0.637
 Vibration    15          0.908              1.135              0.540
 Vibration    16          0.939              1.069              0.481

 Optimization completed.
    -- Stationary point found.
 Normal termination of Gaussian 09 at Fri Aug 20 15:55:23 2021.
