 Gaussian 09, Revision E.01,
 Gaussian 09:  ES64L-G09RevE.01 30-Nov-2015

 --------------------------------
 #P OPT=calcfc Freq B3LYP/6-31G**
 --------------------------------

 ------
 DUMPEG
 ------
 Symbolic Z-matrix:
 Charge =  0 Multiplicity = 1

 SCF Done:  E(RB3LYP) =  -831.099220236     A.U. after   16 cycles
 SCF Done:  E(RB3LYP) =  -831.099226141     A.U. after   13 cycles
 SCF Done:  E(RB3LYP) =  -831.099223550     A.U. after   13 cycles
 SCF Done:  E(RB3LYP) =  -831.099223934     A.U. after   11 cycles
 SCF Done:  E(RB3LYP) =  -831.099232224     A.U. after   12 cycles
 SCF Done:  E(RB3LYP) =  -831.099218024     A.U. after   12 cycles
 SCF Done:  E(RB3LYP) =  -831.099231639     A.U. after   12 cycles
 SCF Done:  E(RB3LYP) =  -831.099232763     A.U. after   10 cycles
 SCF Done:  E(RB3LYP) =  -831.099231578     A.U. after    9 cycles
 SCF Done:  E(RB3LYP) =  -831.099232853     A.U. after    9 cycles
 Optimization completed on the basis of negligible forces.
    -- Stationary point found.
 Normal termination of Gaussian 09 at Sun Aug 22 16:35:23 2021.

 ----------------------------------------------------------------------
 #P Geom=AllCheck Guess=TCheck SCRF=Check GenChk RB3LYP/6-31G(d,p) Freq
 ----------------------------------------------------------------------

 Structure from the checkpoint file:  "/public/home/users/caep010/.cache/gau_scr/Gau-56746.chk"
 ------
 DUMPEG
 ------
 Charge =  0 Multiplicity = 1

                         Standard orientation:
 ---------------------------------------------------------------------
 Center     Atomic      Atomic             Coordinates (Angstroms)
 Number     Number       Type             X           Y           Z
 ---------------------------------------------------------------------
      1          8           0        0.285604    3.299789   -0.057909
      2          6           0        0.014311    1.167334    0.029592
      3          6           0       -0.417738    2.345529   -0.881013
      4          6           0        0.581693    2.293026    0.933231
      5          1           0       -0.045055    2.328697   -1.911983
      6          1           0        0.026287    2.453664    1.866824
      7          6           0       -1.109459    0.352325    0.656014
      8          6           0        1.087727    0.302398   -0.622958
      9          8           0       -1.724424   -0.369789   -0.436181
     10          8           0        1.657708   -0.490783    0.443778
     11          1           0       -1.500503    2.523238   -0.897700
     12          1           0        1.650905    2.228379    1.161603
     13          1           0       -0.731237   -0.352447    1.401053
     14          1           0        0.665565   -0.353004   -1.388885
     15          1           0       -1.850677    1.004088    1.127054
     16          1           0        1.865018    0.926052   -1.073348
     17          7           0       -2.806377   -1.204924   -0.037858
     18          7           0        2.696852   -1.366056    0.019566
     19          8           0       -3.098009   -1.209760    1.139624
     20          8           0        2.993372   -1.345026   -1.156467
     21          8           0       -3.292921   -1.803555   -0.963267
     22          8           0        3.147068   -2.021561    0.924700
 ---------------------------------------------------------------------

 SCF Done:  E(RB3LYP) =  -831.099232853     A.U. after    1 cycles

 The electronic state is 1-A.
 Alpha  occ. eigenvalues --  -19.25240 -19.25180 -19.22655 -19.22595 -19.22281
 Alpha  occ. eigenvalues --  -19.22222 -19.16694 -14.64834 -14.64787 -10.28109
 Alpha  occ. eigenvalues --  -10.28046 -10.26491 -10.26467 -10.24927  -1.29549
 Alpha  occ. eigenvalues --   -1.29498  -1.11458  -1.11399  -1.09304  -1.08779
 Alpha  occ. eigenvalues --   -1.06648  -0.85071  -0.77044  -0.72450  -0.72396
 Alpha  occ. eigenvalues --   -0.65979  -0.64084  -0.59905  -0.59631  -0.59209
 Alpha  occ. eigenvalues --   -0.59001  -0.57930  -0.55667  -0.55204  -0.52949
 Alpha  occ. eigenvalues --   -0.52353  -0.48434  -0.47890  -0.45771  -0.44772
 Alpha  occ. eigenvalues --   -0.44450  -0.42921  -0.40401  -0.36752  -0.36428
 Alpha  occ. eigenvalues --   -0.35741  -0.35415  -0.35156  -0.34352  -0.34260
 Alpha  occ. eigenvalues --   -0.33501  -0.32794  -0.32202  -0.27531
 Alpha virt. eigenvalues --   -0.07819  -0.07751   0.02204   0.02474   0.05977
 Alpha virt. eigenvalues --    0.07435   0.08490   0.09827   0.11269   0.11761
 Alpha virt. eigenvalues --    0.13175   0.14484   0.15018   0.15735   0.16472

 Mulliken charges:
               1
     1  O   -0.508651
     2  C   -0.126560
     3  C    0.102390
     4  C    0.103162
     5  H    0.111990
     6  H    0.104569
     7  C    0.060874
     8  C    0.061697
     9  O   -0.409355
    10  O   -0.410428
    11  H    0.109851
    12  H    0.118367
    13  H    0.154597
    14  H    0.153632
    15  H    0.132885
    16  H    0.139100
    17  N    0.759024
    18  N    0.758768
    19  O   -0.360296
    20  O   -0.360190
    21  O   -0.347504
    22  O   -0.347923
 Sum of Mulliken charges =  -0.00000

 Dipole moment (field-independent basis, Debye):
    X=             -0.1954    Y=              2.2776    Z=              0.1794  Tot=              2.2930
 Quadrupole moment (field-independent basis, Debye-Ang):
   XX=            -90.9299   YY=            -89.8110   ZZ=            -79.4985
   XY=             -1.1119   XZ=             -0.9620   YZ=              0.5681

  Exact polarizability:  97.322  -0.301  90.217   3.592  -0.127  90.481
 Approx polarizability: 128.833   0.341 126.061   4.095  -1.263 176.262

                      1                      2                      3
                      A                      A                      A
 Frequencies --     26.1233                35.9135                46.8637
 Red. masses --     11.7716                 7.1798                13.4235
 Frc consts  --      0.0047                 0.0055                 0.0174
 IR Inten    --      0.8994                 5.2649                 0.1776

                      4                      5                      6
                      A                      A                      A
 Frequencies --     51.2350                73.2160               116.1723
 Red. masses --     10.4437                 5.5937                 7.3618
 Frc consts  --      0.0162                 0.0177                 0.0585
 IR Inten    --      1.6922                 2.0077                 1.7388

                      7                      8                      9
                      A                      A                      A
 Frequencies --    137.9722               148.6230               189.5587
 Red. masses --      3.8076                 7.9458                 3.3942
 Frc consts  --      0.0427                 0.1034                 0.0719
 IR Inten    --      0.0808                 0.5631                 0.6738

                     10                     11                     12
                      A                      A                      A
 Frequencies --    242.4809               275.6857               299.7393
 Red. masses --      8.2061                 3.5095                 3.6623
 Frc consts  --      0.2843                 0.1572                 0.1939
 IR Inten    --      1.4652                 4.9713                 0.2251

                     13                     14                     15
                      A                      A                      A
 Frequencies --    359.5735               380.4077               475.3664
 Red. masses --      2.2638                 3.7974                 2.6859
 Frc consts  --      0.1724                 0.3238                 0.3576
 IR Inten    --      0.8273                 3.5133                 1.5821

                     16                     17                     18
                      A                      A                      A
 Frequencies --    598.4022               613.3867               651.8190
 Red. masses --      7.6498                 6.3366                 8.7303
 Frc consts  --      1.6139                 1.4047                 2.1854
 IR Inten    --      1.1378                 1.6114                11.1634

                     19                     20                     21
                      A                      A                      A
 Frequencies --    705.9858               759.9461               760.4903
 Red. masses --      9.8069                13.8142                13.2500
 Frc consts  --      2.8799                 4.7005                 4.5149
 IR Inten    --     40.0863                12.5157                12.1257

                     22                     23                     24
                      A                      A                      A
 Frequencies --    780.1916               859.8662               863.1346
 Red. masses --      4.5459                 3.9867                13.9672
 Frc consts  --      1.6303                 1.7367                 6.1308
 IR Inten    --     13.9391                76.3916               401.7640

                     25                     26                     27
                      A                      A                      A
 Frequencies --    883.2642               914.7661               949.6063
 Red. masses --      7.9099                 2.0361                 1.7252
 Frc consts  --      3.6358                 1.0038                 0.9166
 IR Inten    --    182.7848                 3.3874                17.0117

                     28                     29                     30
                      A                      A                      A
 Frequencies --    973.0852               979.8514              1017.7029
 Red. masses --      1.8354                 1.8961                 7.3954
 Frc consts  --      1.0240                 1.0726                 4.5129
 IR Inten    --     32.3600                 0.7823                49.8822

                     31                     32                     33
                      A                      A                      A
 Frequencies --   1024.4817              1049.0392              1053.8481
 Red. masses --      2.5598                11.0491                 4.8314
 Frc consts  --      1.5829                 7.1641                 3.1614
 IR Inten    --     12.0180               111.8706                37.5271

                     34                     35                     36
                      A                      A                      A
 Frequencies --   1145.3516              1160.9069              1162.3754
 Red. masses --      3.2154                 1.2602                 1.1002
 Frc consts  --      2.4852                 1.0007                 0.8758
 IR Inten    --      7.4146                 1.4933                 0.5021

                     37                     38                     39
                      A                      A                      A
 Frequencies --   1205.1741              1249.8333              1287.9919
 Red. masses --      1.8364                 1.3226                 1.3051
 Frc consts  --      1.5715                 1.2172                 1.2756
 IR Inten    --      0.2765                 0.9516                33.2888

                     40                     41                     42
                      A                      A                      A
 Frequencies --   1314.0958              1315.0190              1343.8339
 Red. masses --      1.3753                 1.8920                 4.8613
 Frc consts  --      1.3992                 1.9276                 5.1724
 IR Inten    --     28.3177               139.6896               181.7315

                     43                     44                     45
                      A                      A                      A
 Frequencies --   1346.6832              1393.7997              1405.0241
 Red. masses --      3.9092                 1.5490                 1.8511
 Frc consts  --      4.1770                 1.7729                 2.1530
 IR Inten    --    159.2482                 8.3602                53.5195

                     46                     47                     48
                      A                      A                      A
 Frequencies --   1421.4113              1518.3224              1520.7977
 Red. masses --      1.7815                 1.0803                 1.0846
 Frc consts  --      2.1206                 1.4673                 1.4780
 IR Inten    --     19.4515                 2.8081                 8.1819

                     49                     50                     51
                      A                      A                      A
 Frequencies --   1531.6163              1553.1140              1765.5126
 Red. masses --      1.0805                 1.1068                14.4831
 Frc consts  --      1.4933                 1.5730                26.5983
 IR Inten    --      3.5138                 1.0921                87.3649

                     52                     53                     54
                      A                      A                      A
 Frequencies --   1767.2555              3024.6446              3035.7633
 Red. masses --     14.4806                 1.0576                 1.0603
 Frc consts  --     26.6463                 5.7005                 5.7575
 IR Inten    --    573.9578                77.3580                15.6368

                     55                     56                     57
                      A                      A                      A
 Frequencies --   3074.2071              3077.0312              3082.1188
 Red. masses --      1.0637                 1.0615                 1.1002
 Frc consts  --      5.9231                 5.9214                 6.1576
 IR Inten    --      6.7063                 7.2142                26.6333

                     58                     59                     60
                      A                      A                      A
 Frequencies --   3089.7772              3134.3141              3137.5768
 Red. masses --      1.1051                 1.1098                 1.1108
 Frc consts  --      6.2158                 6.4235                 6.4426
 IR Inten    --     40.9925                11.7320                10.5529

 - Thermochemistry -
 -------------------
 Temperature   298.150 Kelvin.  Pressure   1.00000 Atm.
 Atom     1 has atomic number  8 and mass  15.99491

 Molecular mass:   208.03315 amu.
 Principal axes and moments of inertia in atomic units:
                           1         2         3
     Eigenvalues --  2468.575083942.478725537.74547
           X            1.00000  -0.00059  -0.00304
           Y            0.00060   1.00000   0.00133
           Z            0.00304  -0.00133   0.99999
 This molecule is an asymmetric top.
 Rotational symmetry number  1.
 Warning -- assumption of classical behavior for rotation
           may cause significant error
 Rotational temperatures (Kelvin)      0.03509     0.02197     0.01564
 Rotational constants (GHZ):           0.73109     0.45777     0.32590
 Zero-point vibrational energy     414873.0 (Joules/Mol)
                                   99.15703 (Kcal/Mol)
 Warning -- explicit consideration of  17 degrees of freedom as
           vibrations may cause significant error
 Vibrational temperatures:     37.59    51.67    67.43    73.72   105.34
          (Kelvin)            167.15   198.51   213.84   272.73   348.88
                              396.65   431.26   517.35   547.32   683.95
                              860.97   882.53   937.82  1015.75  1093.39
                             1094.17  1122.52  1237.15  1241.86  1270.82
                             1316.14  1366.27  1400.05  1409.79  1464.25
                             1474.00  1509.33  1516.25  1647.90  1670.28
                             1672.40  1733.97  1798.23  1853.13  1890.69
                             1892.02  1933.47  1937.57  2005.36  2021.51
                             2045.09  2184.52  2188.09  2203.65  2234.58
                             2540.18  2542.68  4351.78  4367.78  4423.09
                             4427.16  4434.48  4445.49  4509.57  4514.27

 Zero-point correction=                           0.158017 (Hartree/Particle)
 Thermal correction to Energy=                    0.171438
 Thermal correction to Enthalpy=                  0.172382
 Thermal correction to Gibbs Free Energy=         0.114353
 Sum of electronic and zero-point Energies=           -830.941216
 Sum of electronic and thermal Energies=              -830.927795
 Sum of electronic and thermal Enthalpies=            -830.926850
 Sum of electronic and thermal Free Energies=         -830.984880

                     E (Thermal)             CV                S
                      KCal/Mol        Cal/Mol-Kelvin    Cal/Mol-Kelvin
 Total                  107.579             46.027            122.133
 Electronic               0.000              0.000              0.000
 Translational            0.889              2.981             41.902
 Rotational               0.889              2.981             32.355
 Vibrational            105.802             40.066             47.876
 Vibration     1          0.593              1.985              6.104
 Vibration     2          0.594              1.982              5.473
 Vibration     3          0.595              1.979              4.946
 Vibration     4          0.596              1.977              4.769
 Vibration     5          0.599              1.967              4.065
 Vibration     6          0.608              1.936              3.163
 Vibration     7          0.614              1.915              2.832
 Vibration     8          0.618              1.904              2.690
 Vibration     9          0.633              1.854              2.232
 Vibration    10          0.659              1.775              1.785
 Vibration    11          0.677              1.718              1.560
 Vibration    12          0.692              1.674              1.418
 Vibration    13          0.734              1.556              1.124
 Vibration    14          0.750              1.512              1.038
 Vibration    15          0.832              1.305              0.723
 Vibration    16          0.956              1.035              0.452
 Vibration    17          0.973              1.004              0.427

 Optimization completed on the basis of negligible forces.
    -- Stationary point found.
 Normal termination of Gaussian 09 at Sun Aug 22 16:36:02 2021.
