 Gaussian 09, Revision E.01,
 Gaussian 09:  ES64L-G09RevE.01 30-Nov-2015

 -------------------------
 #P OPT Freq B3LYP/6-31G**
 -------------------------

 ------
 GEDYEU
 ------
 Symbolic Z-matrix:
 Charge =  0 Multiplicity = 1

 SCF Done:  E(RB3LYP) =  -595.426237706     A.U. after   16 cycles
 SCF Done:  E(RB3LYP) =  -595.475027630     A.U. after   14 cycles
 SCF Done:  E(RB3LYP) =  -595.483986203     A.U. after   15 cycles
 SCF Done:  E(RB3LYP) =  -595.483868769     A.U. after   13 cycles
 SCF Done:  E(RB3LYP) =  -595.484388332     A.U. after    8 cycles
 SCF Done:  E(RB3LYP) =  -595.484538611     A.U. after   12 cycles
 SCF Done:  E(RB3LYP) =  -595.484099227     A.U. after   14 cycles
 SCF Done:  E(RB3LYP) =  -595.484632962     A.U. after   10 cycles
 SCF Done:  E(RB3LYP) =  -595.484805357     A.U. after   12 cycles
 SCF Done:  E(RB3LYP) =  -595.485030037     A.U. after   13 cycles
 SCF Done:  E(RB3LYP) =  -595.485027207     A.U. after   14 cycles
 SCF Done:  E(RB3LYP) =  -595.485197494     A.U. after   11 cycles
 SCF Done:  E(RB3LYP) =  -595.485413483     A.U. after   12 cycles
 SCF Done:  E(RB3LYP) =  -595.485801236     A.U. after   13 cycles
 SCF Done:  E(RB3LYP) =  -595.485853824     A.U. after   12 cycles
 SCF Done:  E(RB3LYP) =  -595.485870151     A.U. after   10 cycles
 SCF Done:  E(RB3LYP) =  -595.485873740     A.U. after    9 cycles
 SCF Done:  E(RB3LYP) =  -595.485874351     A.U. after    9 cycles
 Optimization completed.
    -- Stationary point found.
 Normal termination of Gaussian 09 at Fri Aug 20 15:52:32 2021.

 ----------------------------------------------------------------------
 #P Geom=AllCheck Guess=TCheck SCRF=Check GenChk RB3LYP/6-31G(d,p) Freq
 ----------------------------------------------------------------------

 Structure from the checkpoint file:  "/public/home/users/caep010/.cache/gau_scr/Gau-12982.chk"
 ------
 GEDYEU
 ------
 Charge =  0 Multiplicity = 1

                         Standard orientation:
 ---------------------------------------------------------------------
 Center     Atomic      Atomic             Coordinates (Angstroms)
 Number     Number       Type             X           Y           Z
 ---------------------------------------------------------------------
      1          8           0       -1.908454   -1.657212    0.043718
      2          7           0       -1.943248   -0.441591    0.009678
      3          7           0       -0.747167    0.214504   -0.335764
      4          6           0       -0.635660    1.664749   -0.011699
      5          6           0        0.899899    1.935256   -0.035127
      6          1           0        1.226670    2.388322   -0.975259
      7          1           0        1.227764    2.558393    0.798619
      8          7           0        1.410376    0.576515    0.075100
      9          6           0        0.496669   -0.386039   -0.123314
     10          7           0        1.069052   -1.566610   -0.131209
     11          7           0        2.401289   -1.277339    0.075169
     12          7           0        2.626330   -0.003899    0.179385
     13          1           0       -1.067632    1.847997    0.975839
     14          1           0       -1.179467    2.257648   -0.746327
     15          8           0       -2.902696    0.301309    0.188963
 ---------------------------------------------------------------------

 SCF Done:  E(RB3LYP) =  -595.485874351     A.U. after    1 cycles

 The electronic state is 1-A.
 Alpha  occ. eigenvalues --  -19.21203 -19.21175 -14.63357 -14.46480 -14.45868
 Alpha  occ. eigenvalues --  -14.42423 -14.40844 -14.37633 -10.32738 -10.29925
 Alpha  occ. eigenvalues --  -10.29533  -1.27585  -1.16179  -1.09702  -1.04300
 Alpha  occ. eigenvalues --   -0.96951  -0.90451  -0.82964  -0.76105  -0.71247
 Alpha  occ. eigenvalues --   -0.66633  -0.62358  -0.59357  -0.58516  -0.55548
 Alpha  occ. eigenvalues --   -0.55091  -0.53736  -0.50746  -0.49095  -0.46435
 Alpha  occ. eigenvalues --   -0.45330  -0.39221  -0.37565  -0.35282  -0.33951
 Alpha  occ. eigenvalues --   -0.32905  -0.32610  -0.31167  -0.30072  -0.28524
 Alpha virt. eigenvalues --   -0.08200  -0.03072   0.01607   0.03994   0.05857
 Alpha virt. eigenvalues --    0.07292   0.08740   0.10965   0.12230   0.16066
 Alpha virt. eigenvalues --    0.16941   0.18793   0.21254   0.24330   0.26595

 Mulliken charges:
               1
     1  O   -0.359132
     2  N    0.651122
     3  N   -0.435060
     4  C   -0.065088
     5  C   -0.050066
     6  H    0.167114
     7  H    0.167472
     8  N   -0.359450
     9  C    0.867075
    10  N   -0.390361
    11  N   -0.077861
    12  N   -0.057216
    13  H    0.169758
    14  H    0.168305
    15  O   -0.396612
 Sum of Mulliken charges =  -0.00000

 Dipole moment (field-independent basis, Debye):
    X=             -0.6431    Y=              6.7960    Z=             -0.1844  Tot=              6.8288
 Quadrupole moment (field-independent basis, Debye-Ang):
   XX=            -78.1371   YY=            -60.5829   ZZ=            -58.4359
   XY=              3.7930   XZ=             -0.0802   YZ=             -0.2896

  Exact polarizability:  94.839  -2.867  84.264  -0.359   0.241  40.311
 Approx polarizability: 152.859  -9.953 157.878  -0.367   2.340  64.314

                      1                      2                      3
                      A                      A                      A
 Frequencies --     76.4395                92.9282               159.8722
 Red. masses --      5.3917                 8.1895                 3.0221
 Frc consts  --      0.0186                 0.0417                 0.0455
 IR Inten    --      0.6516                 2.0966                 0.0449

                      4                      5                      6
                      A                      A                      A
 Frequencies --    170.0086               207.1325               334.0885
 Red. masses --      4.9219                 5.9349                 8.7662
 Frc consts  --      0.0838                 0.1500                 0.5765
 IR Inten    --      2.5128                 3.4081                 5.7174

                      7                      8                      9
                      A                      A                      A
 Frequencies --    402.7363               429.4141               528.5809
 Red. masses --      7.7181                10.7712                 7.3708
 Frc consts  --      0.7376                 1.1702                 1.2134
 IR Inten    --      3.0043                 1.2343                 1.9031

                     10                     11                     12
                      A                      A                      A
 Frequencies --    679.9141               693.7564               725.8079
 Red. masses --      5.3349                12.0710                11.2732
 Frc consts  --      1.4531                 3.4230                 3.4990
 IR Inten    --      7.6482                 2.9994                 5.0092

                     13                     14                     15
                      A                      A                      A
 Frequencies --    758.9638               767.7221               809.1033
 Red. masses --     10.2995                 4.5630                 7.2531
 Frc consts  --      3.4955                 1.5846                 2.7976
 IR Inten    --     16.4372                18.2776                26.4668

                     16                     17                     18
                      A                      A                      A
 Frequencies --    867.3658               954.2392               968.6089
 Red. masses --      1.5267                 4.4107                 5.2924
 Frc consts  --      0.6767                 2.3663                 2.9255
 IR Inten    --      4.5370                 5.3491                 7.4024

                     19                     20                     21
                      A                      A                      A
 Frequencies --   1039.5560              1094.1959              1123.4927
 Red. masses --      7.8777                12.2250                 1.6724
 Frc consts  --      5.0159                 8.6236                 1.2437
 IR Inten    --     47.4010                16.3663                 4.8512

                     22                     23                     24
                      A                      A                      A
 Frequencies --   1145.7338              1178.0854              1222.3797
 Red. masses --      6.6890                 3.7203                 1.2102
 Frc consts  --      5.1734                 3.0422                 1.0654
 IR Inten    --      9.6987                56.9014                 9.6197

                     25                     26                     27
                      A                      A                      A
 Frequencies --   1244.9583              1273.4531              1303.6013
 Red. masses --      1.7894                 2.5566                 2.2714
 Frc consts  --      1.6340                 2.4427                 2.2743
 IR Inten    --      5.9589                17.6049                 1.0689

                     28                     29                     30
                      A                      A                      A
 Frequencies --   1335.5995              1364.5252              1391.9522
 Red. masses --      5.5152                 2.8561                 2.0629
 Frc consts  --      5.7964                 3.1332                 2.3550
 IR Inten    --    365.7616               155.1364                 7.5489

                     31                     32                     33
                      A                      A                      A
 Frequencies --   1507.3840              1528.7686              1545.0322
 Red. masses --      1.7990                 1.3202                 1.5699
 Frc consts  --      2.4084                 1.8179                 2.2080
 IR Inten    --      8.6102                 6.3884                12.7192

                     34                     35                     36
                      A                      A                      A
 Frequencies --   1591.5272              1701.5569              3085.7370
 Red. masses --      7.9962                14.4004                 1.0616
 Frc consts  --     11.9333                24.5651                 5.9559
 IR Inten    --     77.8576               285.5937                16.7316

                     37                     38                     39
                      A                      A                      A
 Frequencies --   3093.6055              3143.8528              3165.0168
 Red. masses --      1.0646                 1.1063                 1.1060
 Frc consts  --      6.0030                 6.4423                 6.5275
 IR Inten    --      5.4095                 4.0297                 4.8246

 - Thermochemistry -
 -------------------
 Temperature   298.150 Kelvin.  Pressure   1.00000 Atm.
 Atom     1 has atomic number  8 and mass  15.99491

 Molecular mass:   156.03957 amu.
 Principal axes and moments of inertia in atomic units:
                           1         2         3
     Eigenvalues --   776.218671801.185222532.03436
           X            0.99999   0.00507  -0.00078
           Y           -0.00507   0.99999  -0.00080
           Z            0.00077   0.00081   1.00000
 This molecule is an asymmetric top.
 Rotational symmetry number  1.
 Warning -- assumption of classical behavior for rotation
           may cause significant error
 Rotational temperatures (Kelvin)      0.11158     0.04809     0.03421
 Rotational constants (GHZ):           2.32504     1.00197     0.71276
 Zero-point vibrational energy     267405.4 (Joules/Mol)
                                   63.91143 (Kcal/Mol)
 Warning -- explicit consideration of   9 degrees of freedom as
           vibrations may cause significant error
 Vibrational temperatures:    109.98   133.70   230.02   244.60   298.02
          (Kelvin)            480.68   579.45   617.83   760.51   978.24
                              998.16  1044.27  1091.98  1104.58  1164.12
                             1247.94  1372.94  1393.61  1495.69  1574.30
                             1616.45  1648.45  1695.00  1758.73  1791.22
                             1832.21  1875.59  1921.63  1963.24  2002.71
                             2168.79  2199.55  2222.95  2289.85  2448.16
                             4439.68  4451.00  4523.30  4553.75

 Zero-point correction=                           0.101849 (Hartree/Particle)
 Thermal correction to Energy=                    0.110125
 Thermal correction to Enthalpy=                  0.111069
 Thermal correction to Gibbs Free Energy=         0.067602
 Sum of electronic and zero-point Energies=           -595.384025
 Sum of electronic and thermal Energies=              -595.375750
 Sum of electronic and thermal Enthalpies=            -595.374805
 Sum of electronic and thermal Free Energies=         -595.418272

                     E (Thermal)             CV                S
                      KCal/Mol        Cal/Mol-Kelvin    Cal/Mol-Kelvin
 Total                   69.104             29.762             91.483
 Electronic               0.000              0.000              0.000
 Translational            0.889              2.981             41.044
 Rotational               0.889              2.981             29.650
 Vibrational             67.327             23.801             20.789
 Vibration     1          0.599              1.965              3.980
 Vibration     2          0.602              1.954              3.597
 Vibration     3          0.622              1.892              2.551
 Vibration     4          0.625              1.879              2.435
 Vibration     5          0.641              1.830              2.069
 Vibration     6          0.716              1.607              1.240
 Vibration     7          0.768              1.464              0.953
 Vibration     8          0.791              1.406              0.861
 Vibration     9          0.884              1.187              0.590

 Normal termination of Gaussian 09 at Fri Aug 20 15:52:52 2021.
