 Gaussian 09, Revision E.01,
 Gaussian 09:  ES64L-G09RevE.01 30-Nov-2015

 -------------------------
 #P OPT Freq B3LYP/6-31G**
 -------------------------

 ------
 DNPHOL
 ------
 Symbolic Z-matrix:
 Charge =  0 Multiplicity = 1

 SCF Done:  E(RB3LYP) =  -716.335559231     A.U. after   17 cycles
 SCF Done:  E(RB3LYP) =  -716.436595136     A.U. after   14 cycles
 SCF Done:  E(RB3LYP) =  -716.462604008     A.U. after   16 cycles
 SCF Done:  E(RB3LYP) =  -716.459988403     A.U. after   18 cycles
 SCF Done:  E(RB3LYP) =  -716.467772005     A.U. after   13 cycles
 SCF Done:  E(RB3LYP) =  -716.454946127     A.U. after   16 cycles
 SCF Done:  E(RB3LYP) =  -716.471374880     A.U. after   12 cycles
 SCF Done:  E(RB3LYP) =  -716.470891353     A.U. after   15 cycles
 SCF Done:  E(RB3LYP) =  -716.471759252     A.U. after   10 cycles
 SCF Done:  E(RB3LYP) =  -716.470314158     A.U. after   15 cycles
 SCF Done:  E(RB3LYP) =  -716.472180632     A.U. after   15 cycles
 SCF Done:  E(RB3LYP) =  -716.472433635     A.U. after   10 cycles
 SCF Done:  E(RB3LYP) =  -716.472529992     A.U. after   14 cycles
 SCF Done:  E(RB3LYP) =  -716.472555005     A.U. after   14 cycles
 SCF Done:  E(RB3LYP) =  -716.472562577     A.U. after   14 cycles
 SCF Done:  E(RB3LYP) =  -716.472571407     A.U. after   11 cycles
 SCF Done:  E(RB3LYP) =  -716.472575410     A.U. after   13 cycles
 SCF Done:  E(RB3LYP) =  -716.472575975     A.U. after   10 cycles
 SCF Done:  E(RB3LYP) =  -716.472576091     A.U. after    9 cycles
 Optimization completed.
    -- Stationary point found.
 Normal termination of Gaussian 09 at Fri Aug 20 15:42:50 2021.

 ----------------------------------------------------------------------
 #P Geom=AllCheck Guess=TCheck SCRF=Check GenChk RB3LYP/6-31G(d,p) Freq
 ----------------------------------------------------------------------

 Structure from the checkpoint file:  "/public/home/users/caep010/.cache/gau_scr/Gau-58439.chk"
 ------
 DNPHOL
 ------
 Charge =  0 Multiplicity = 1

                         Standard orientation:
 ---------------------------------------------------------------------
 Center     Atomic      Atomic             Coordinates (Angstroms)
 Number     Number       Type             X           Y           Z
 ---------------------------------------------------------------------
      1          6           0        0.001272   -0.477246    0.017079
      2          6           0        1.206712    0.268387   -0.012533
      3          6           0        1.209608    1.656814   -0.049787
      4          8           0        0.016157   -1.796171    0.101003
      5          1           0       -0.933245   -2.082378    0.135294
      6          7           0        2.517297   -0.402304   -0.009888
      7          8           0        3.467263    0.246081    0.433644
      8          1           0        2.170244    2.157465   -0.046234
      9          8           0        2.589224   -1.536813   -0.467066
     10          6           0       -1.197203    0.292208   -0.009705
     11          7           0       -2.489649   -0.368773    0.029490
     12          8           0       -2.514361   -1.618950    0.110281
     13          6           0       -1.189112    1.689364   -0.070544
     14          6           0        0.013690    2.376094   -0.089817
     15          1           0        0.027903    3.458547   -0.133135
     16          1           0       -2.141669    2.203672   -0.095159
     17          8           0       -3.506604    0.309167   -0.016129
 ---------------------------------------------------------------------

 SCF Done:  E(RB3LYP) =  -716.472576091     A.U. after    1 cycles

 The electronic state is 1-A.
 Alpha  occ. eigenvalues --  -19.21851 -19.21731 -19.21678 -19.19225 -19.19037
 Alpha  occ. eigenvalues --  -14.60887 -14.58580 -10.32811 -10.28635 -10.27876
 Alpha  occ. eigenvalues --  -10.25354 -10.25279 -10.23804  -1.25931  -1.23648
 Alpha  occ. eigenvalues --   -1.11717  -1.08122  -1.06279  -0.92287  -0.86009
 Alpha  occ. eigenvalues --   -0.81615  -0.74208  -0.72645  -0.66278  -0.62528
 Alpha  occ. eigenvalues --   -0.58993  -0.57415  -0.56694  -0.56192  -0.54412
 Alpha  occ. eigenvalues --   -0.54158  -0.52533  -0.51502  -0.49951  -0.45776
 Alpha  occ. eigenvalues --   -0.44478  -0.43019  -0.40985  -0.38865  -0.34504
 Alpha  occ. eigenvalues --   -0.34433  -0.32951  -0.32173  -0.31747  -0.31242
 Alpha  occ. eigenvalues --   -0.29591  -0.27670
 Alpha virt. eigenvalues --   -0.12415  -0.09368  -0.03186  -0.01782   0.04792
 Alpha virt. eigenvalues --    0.09970   0.11618   0.12317   0.14855   0.15770
 Alpha virt. eigenvalues --    0.17285   0.21036   0.24258   0.25716   0.26085

 Mulliken charges:
               1
     1  C    0.337253
     2  C    0.219488
     3  C   -0.069277
     4  O   -0.515101
     5  H    0.368605
     6  N    0.368843
     7  O   -0.388853
     8  H    0.153911
     9  O   -0.357116
    10  C    0.220095
    11  N    0.396329
    12  O   -0.443236
    13  C   -0.081318
    14  C   -0.110415
    15  H    0.121318
    16  H    0.154161
    17  O   -0.374687
 Sum of Mulliken charges =  -0.00000

 Dipole moment (field-independent basis, Debye):
    X=             -1.4676    Y=              3.7862    Z=             -0.1348  Tot=              4.0629
 Quadrupole moment (field-independent basis, Debye-Ang):
   XX=            -91.6137   YY=            -66.9218   ZZ=            -70.7816
   XY=              2.7204   XZ=             -0.7565   YZ=             -1.6377

  Exact polarizability: 135.634   1.152 113.489   1.875   1.224  36.431
 Approx polarizability: 229.925   0.331 235.250   8.028   8.952  61.689

                      1                      2                      3
                      A                      A                      A
 Frequencies --     44.0642                67.1141               103.9652
 Red. masses --     13.9425                12.1527                13.8741
 Frc consts  --      0.0160                 0.0323                 0.0884
 IR Inten    --      0.6116                 3.2917                 0.2050

                      4                      5                      6
                      A                      A                      A
 Frequencies --    192.8212               197.2265               261.6314
 Red. masses --      5.2019                12.8381                 6.3452
 Frc consts  --      0.1140                 0.2942                 0.2559
 IR Inten    --      0.1641                 3.9603                 0.5653

                      7                      8                      9
                      A                      A                      A
 Frequencies --    320.8953               347.5215               399.9891
 Red. masses --      8.8194                10.6988                 6.8530
 Frc consts  --      0.5351                 0.7613                 0.6460
 IR Inten    --      2.9552                 0.4487                 6.6132

                     10                     11                     12
                      A                      A                      A
 Frequencies --    415.6407               452.1280               502.6880
 Red. masses --      7.4146                 7.0565                10.0241
 Frc consts  --      0.7547                 0.8499                 1.4924
 IR Inten    --      0.6122                 2.0633                 0.4426

                     13                     14                     15
                      A                      A                      A
 Frequencies --    550.4915               606.1201               629.1498
 Red. masses --      3.4858                 8.6966                 5.4898
 Frc consts  --      0.6224                 1.8824                 1.2803
 IR Inten    --      4.8025                 9.3568                 5.0998

                     16                     17                     18
                      A                      A                      A
 Frequencies --    696.1732               730.8159               747.3869
 Red. masses --      8.7473                 8.7276                 3.6685
 Frc consts  --      2.4978                 2.7464                 1.2073
 IR Inten    --      3.7497                34.3894                45.0302

                     19                     20                     21
                      A                      A                      A
 Frequencies --    766.0853               812.2859               822.6251
 Red. masses --      5.5972                 1.1252                 1.7641
 Frc consts  --      1.9354                 0.4374                 0.7034
 IR Inten    --     14.2969                70.0472                31.1282

                     22                     23                     24
                      A                      A                      A
 Frequencies --    834.7385               869.6253               927.5874
 Red. masses --      8.9689                 6.9317                 8.7989
 Frc consts  --      3.6821                 3.0886                 4.4606
 IR Inten    --      2.1395                17.5115                71.6457

                     25                     26                     27
                      A                      A                      A
 Frequencies --    975.4662               995.3358              1113.7568
 Red. masses --      1.3756                 1.3090                 1.6748
 Frc consts  --      0.7712                 0.7641                 1.2240
 IR Inten    --      0.6661                 1.1201                25.8217

                     28                     29                     30
                      A                      A                      A
 Frequencies --   1160.6072              1187.9750              1209.9270
 Red. masses --      7.9448                 1.1468                 2.1535
 Frc consts  --      6.3052                 0.9536                 1.8575
 IR Inten    --     13.3603                17.0542                35.9479

                     31                     32                     33
                      A                      A                      A
 Frequencies --   1317.5248              1341.7936              1356.5829
 Red. masses --      5.5935                 2.9908                 5.3240
 Frc consts  --      5.7207                 3.1726                 5.7727
 IR Inten    --    175.4444               103.8505               279.3178

                     34                     35                     36
                      A                      A                      A
 Frequencies --   1395.0502              1440.8854              1500.6577
 Red. masses --      7.7058                 2.2044                 2.6602
 Frc consts  --      8.8358                 2.6965                 3.5297
 IR Inten    --    111.6439                93.3751               149.6126

                     37                     38                     39
                      A                      A                      A
 Frequencies --   1519.4674              1614.1934              1633.7257
 Red. masses --      4.8431                 7.5078                 4.9860
 Frc consts  --      6.5881                11.5259                 7.8408
 IR Inten    --     86.0071               152.0502                93.7297

                     40                     41                     42
                      A                      A                      A
 Frequencies --   1645.9468              1695.3977              3224.5810
 Red. masses --      7.1681                 8.0842                 1.0892
 Frc consts  --     11.4416                13.6908                 6.6730
 IR Inten    --    103.2126               218.6072                 2.3534

                     43                     44                     45
                      A                      A                      A
 Frequencies --   3242.0037              3247.2699              3319.5833
 Red. masses --      1.0923                 1.0950                 1.0668
 Frc consts  --      6.7642                 6.8031                 6.9263
 IR Inten    --      4.5897                 1.6365               344.9735

 - Thermochemistry -
 -------------------
 Temperature   298.150 Kelvin.  Pressure   1.00000 Atm.
 Atom     1 has atomic number  6 and mass  12.00000

 Molecular mass:   184.01202 amu.
 Principal axes and moments of inertia in atomic units:
                           1         2         3
     Eigenvalues --  1108.716563069.024804126.96727
           X            0.99999   0.00357  -0.00004
           Y           -0.00357   0.99999  -0.00353
           Z            0.00003   0.00353   0.99999
 This molecule is an asymmetric top.
 Rotational symmetry number  1.
 Warning -- assumption of classical behavior for rotation
           may cause significant error
 Rotational temperatures (Kelvin)      0.07812     0.02822     0.02099
 Rotational constants (GHZ):           1.62778     0.58805     0.43730
 Zero-point vibrational energy     289714.6 (Joules/Mol)
                                   69.24345 (Kcal/Mol)
 Warning -- explicit consideration of  14 degrees of freedom as
           vibrations may cause significant error
 Vibrational temperatures:     63.40    96.56   149.58   277.43   283.76
          (Kelvin)            376.43   461.70   500.01   575.49   598.01
                              650.51   723.26   792.03   872.07   905.21
                             1001.64  1051.48  1075.32  1102.22  1168.70
                             1183.57  1201.00  1251.20  1334.59  1403.48
                             1432.06  1602.45  1669.85  1709.23  1740.81
                             1895.62  1930.54  1951.82  2007.16  2073.11
                             2159.11  2186.17  2322.46  2350.56  2368.15
                             2439.30  4639.45  4664.51  4672.09  4776.13

 Zero-point correction=                           0.110346 (Hartree/Particle)
 Thermal correction to Energy=                    0.120439
 Thermal correction to Enthalpy=                  0.121384
 Thermal correction to Gibbs Free Energy=         0.073448
 Sum of electronic and zero-point Energies=           -716.362230
 Sum of electronic and thermal Energies=              -716.352137
 Sum of electronic and thermal Enthalpies=            -716.351192
 Sum of electronic and thermal Free Energies=         -716.399129

                     E (Thermal)             CV                S
                      KCal/Mol        Cal/Mol-Kelvin    Cal/Mol-Kelvin
 Total                   75.577             37.659            100.890
 Electronic               0.000              0.000              0.000
 Translational            0.889              2.981             41.536
 Rotational               0.889              2.981             31.019
 Vibrational             73.799             31.698             28.335
 Vibration     1          0.595              1.980              5.067
 Vibration     2          0.598              1.970              4.236
 Vibration     3          0.605              1.946              3.379
 Vibration     4          0.635              1.850              2.201
 Vibration     5          0.637              1.844              2.159
 Vibration     6          0.669              1.743              1.651
 Vibration     7          0.706              1.634              1.306
 Vibration     8          0.725              1.580              1.177
 Vibration     9          0.766              1.470              0.963
 Vibration    10          0.779              1.436              0.907
 Vibration    11          0.811              1.356              0.789
 Vibration    12          0.858              1.244              0.651
 Vibration    13          0.906              1.139              0.543
 Vibration    14          0.965              1.019              0.439

 Optimization completed.
    -- Stationary point found.
 Normal termination of Gaussian 09 at Fri Aug 20 15:43:17 2021.
