 Gaussian 09, Revision E.01,
 Gaussian 09:  ES64L-G09RevE.01 30-Nov-2015

 -------------------------
 #P OPT Freq B3LYP/6-31G**
 -------------------------

 ------
 ISAJER
 ------
 Symbolic Z-matrix:
 Charge =  0 Multiplicity = 1

 SCF Done:  E(RB3LYP) =  -713.597939129     A.U. after   17 cycles
 SCF Done:  E(RB3LYP) =  -713.667256054     A.U. after   14 cycles
 SCF Done:  E(RB3LYP) =  -713.684523763     A.U. after   17 cycles
 SCF Done:  E(RB3LYP) =  -713.669253762     A.U. after   17 cycles
 SCF Done:  E(RB3LYP) =  -713.685243705     A.U. after   13 cycles
 SCF Done:  E(RB3LYP) =  -713.684700749     A.U. after   14 cycles
 SCF Done:  E(RB3LYP) =  -713.685454224     A.U. after   10 cycles
 SCF Done:  E(RB3LYP) =  -713.685323150     A.U. after   14 cycles
 SCF Done:  E(RB3LYP) =  -713.685587820     A.U. after   13 cycles
 SCF Done:  E(RB3LYP) =  -713.685604245     A.U. after   12 cycles
 SCF Done:  E(RB3LYP) =  -713.685606254     A.U. after   10 cycles
 SCF Done:  E(RB3LYP) =  -713.685606746     A.U. after    9 cycles
 SCF Done:  E(RB3LYP) =  -713.685606803     A.U. after    8 cycles
 Optimization completed.
    -- Stationary point found.
 Normal termination of Gaussian 09 at Fri Aug 20 16:00:54 2021.

 ----------------------------------------------------------------------
 #P Geom=AllCheck Guess=TCheck SCRF=Check GenChk RB3LYP/6-31G(d,p) Freq
 ----------------------------------------------------------------------

 Structure from the checkpoint file:  "/public/home/users/caep010/.cache/gau_scr/Gau-151275.chk"
 ------
 ISAJER
 ------
 Charge =  0 Multiplicity = 1

                         Standard orientation:
 ---------------------------------------------------------------------
 Center     Atomic      Atomic             Coordinates (Angstroms)
 Number     Number       Type             X           Y           Z
 ---------------------------------------------------------------------
      1          8           0       -2.658207    1.565067   -0.000268
      2          6           0       -2.134759    0.468916   -0.000061
      3          7           0       -2.870161   -0.756637    0.000144
      4          6           0       -0.661006    0.246379   -0.000008
      5          6           0        0.163072    1.381680    0.000137
      6          7           0       -4.110607   -0.615794    0.000074
      7          7           0       -5.242236   -0.601528    0.000099
      8          1           0       -0.299502    2.362032    0.000234
      9          6           0        1.545523    1.242681    0.000158
     10          1           0        2.207642    2.098926    0.000279
     11          6           0        2.084026   -0.043130    0.000005
     12          6           0        1.289071   -1.186900   -0.000153
     13          7           0        3.552559   -0.198893    0.000017
     14          8           0        4.002615   -1.343168    0.000097
     15          1           0        1.757567   -2.162598   -0.000272
     16          8           0        4.232265    0.825620   -0.000066
     17          6           0       -0.094127   -1.036287   -0.000149
     18          1           0       -0.736773   -1.908577   -0.000255
 ---------------------------------------------------------------------

 SCF Done:  E(RB3LYP) =  -713.685606803     A.U. after    1 cycles

 The electronic state is 1-A.
 Alpha  occ. eigenvalues --  -19.19409 -19.19402 -19.17027 -14.58492 -14.55636
 Alpha  occ. eigenvalues --  -14.46164 -14.42160 -10.34094 -10.27301 -10.24456
 Alpha  occ. eigenvalues --  -10.23645 -10.23579 -10.23563 -10.23334  -1.23728
 Alpha  occ. eigenvalues --   -1.18728  -1.08646  -1.06488  -1.01166  -0.90988
 Alpha  occ. eigenvalues --   -0.83501  -0.79186  -0.75738  -0.69856  -0.65002
 Alpha  occ. eigenvalues --   -0.61504  -0.58109  -0.55996  -0.55280  -0.54428
 Alpha  occ. eigenvalues --   -0.53930  -0.52326  -0.49594  -0.48847  -0.48251
 Alpha  occ. eigenvalues --   -0.47350  -0.46353  -0.44686  -0.42547  -0.39851
 Alpha  occ. eigenvalues --   -0.38890  -0.36775  -0.32218  -0.31931  -0.31017
 Alpha  occ. eigenvalues --   -0.30392  -0.29798  -0.29698  -0.29325
 Alpha virt. eigenvalues --   -0.11576  -0.06925  -0.06399  -0.04242  -0.01620
 Alpha virt. eigenvalues --    0.05028   0.07481   0.12662   0.13560   0.14282
 Alpha virt. eigenvalues --    0.15187   0.17098   0.18172   0.22098   0.24365

 Mulliken charges:
               1
     1  O   -0.458198
     2  C    0.559655
     3  N   -0.476637
     4  C    0.044729
     5  C   -0.106893
     6  N    0.492776
     7  N   -0.197056
     8  H    0.138839
     9  C   -0.096892
    10  H    0.147887
    11  C    0.254920
    12  C   -0.099285
    13  N    0.392192
    14  O   -0.388739
    15  H    0.147019
    16  O   -0.387510
    17  C   -0.104509
    18  H    0.137701
 Sum of Mulliken charges =  -0.00000

 Dipole moment (field-independent basis, Debye):
    X=             -2.2539    Y=             -0.9207    Z=              0.0002  Tot=              2.4347
 Quadrupole moment (field-independent basis, Debye-Ang):
   XX=           -100.3819   YY=            -75.8651   ZZ=            -75.7042
   XY=              6.5791   XZ=             -0.0005   YZ=              0.0026

  Exact polarizability: 197.942   3.050 106.739   0.000   0.002  38.259
 Approx polarizability: 309.963  -0.119 221.262   0.002   0.002  60.247

                      1                      2                      3
                      A                      A                      A
 Frequencies --     41.9885                58.2389                75.8399
 Red. masses --     12.4793                 8.9566                 7.3270
 Frc consts  --      0.0130                 0.0179                 0.0248
 IR Inten    --      0.0117                 1.2303                 2.3321

                      4                      5                      6
                      A                      A                      A
 Frequencies --     95.6493               117.4895               191.2180
 Red. masses --     11.1994                11.1679                12.8107
 Frc consts  --      0.0604                 0.0908                 0.2760
 IR Inten    --      0.9724                 2.4974                 3.4254

                      7                      8                      9
                      A                      A                      A
 Frequencies --    250.0738               258.7525               292.5136
 Red. masses --     11.1949                 7.6989                 9.0131
 Frc consts  --      0.4125                 0.3037                 0.4544
 IR Inten    --      1.7471                 0.1591                 1.4824

                     10                     11                     12
                      A                      A                      A
 Frequencies --    420.1197               444.9899               466.3769
 Red. masses --      3.0234                 8.4647                 3.9690
 Frc consts  --      0.3144                 0.9876                 0.5086
 IR Inten    --      0.0148                 7.1347                 0.2097

                     13                     14                     15
                      A                      A                      A
 Frequencies --    494.6740               530.0307               554.5950
 Red. masses --     11.4807                 8.6406                 7.4366
 Frc consts  --      1.6552                 1.4302                 1.3476
 IR Inten    --      5.1807                 3.6140                 3.3177

                     16                     17                     18
                      A                      A                      A
 Frequencies --    584.0871               641.1760               672.9604
 Red. masses --     12.7722                 7.1496                 5.5831
 Frc consts  --      2.5673                 1.7317                 1.4897
 IR Inten    --      6.5439                 1.0002                 3.3674

                     19                     20                     21
                      A                      A                      A
 Frequencies --    722.1367               730.8085               784.5595
 Red. masses --      3.5559                 8.0403                 6.4573
 Frc consts  --      1.0926                 2.5301                 2.3418
 IR Inten    --     60.2629                 2.7899                 0.7672

                     22                     23                     24
                      A                      A                      A
 Frequencies --    854.3563               862.6353               879.5813
 Red. masses --     11.1303                 1.2479                11.1264
 Frc consts  --      4.7867                 0.5471                 5.0717
 IR Inten    --     99.3967                 0.2335                 8.6289

                     25                     26                     27
                      A                      A                      A
 Frequencies --    897.0993               998.7888              1008.4838
 Red. masses --      1.7716                 1.3349                 1.3197
 Frc consts  --      0.8400                 0.7846                 0.7908
 IR Inten    --     21.2315                 0.1417                 0.0323

                     28                     29                     30
                      A                      A                      A
 Frequencies --   1014.2021              1038.2408              1125.1483
 Red. masses --      8.3402                 2.5873                 3.1075
 Frc consts  --      5.0545                 1.6432                 2.3178
 IR Inten    --    170.9242                18.1904                27.3487

                     31                     32                     33
                      A                      A                      A
 Frequencies --   1128.5983              1197.4837              1255.0598
 Red. masses --      1.2755                 1.2327                 5.8188
 Frc consts  --      0.9572                 1.0415                 5.4002
 IR Inten    --      8.9952                16.4904                89.9350

                     34                     35                     36
                      A                      A                      A
 Frequencies --   1302.1905              1322.8875              1378.5354
 Red. masses --      7.8282                 1.3728                 9.2512
 Frc consts  --      7.8210                 1.4154                10.3582
 IR Inten    --    917.8199                45.4452                26.0656

                     37                     38                     39
                      A                      A                      A
 Frequencies --   1399.3185              1445.7404              1528.3552
 Red. masses --     14.3465                 3.4728                 2.3976
 Frc consts  --     16.5511                 4.2767                 3.2997
 IR Inten    --    245.6064                13.9391                 0.9573

                     40                     41                     42
                      A                      A                      A
 Frequencies --   1619.4112              1654.6797              1671.4421
 Red. masses --      9.9589                 5.8741                10.2508
 Frc consts  --     15.3877                 9.4759                16.8729
 IR Inten    --     93.3433                 5.3180               119.1347

                     43                     44                     45
                      A                      A                      A
 Frequencies --   1778.4931              2302.8330              3228.2934
 Red. masses --     12.9883                13.9937                 1.0903
 Frc consts  --     24.2051                43.7228                 6.6951
 IR Inten    --    181.2238               611.8127                 1.1784

                     46                     47                     48
                      A                      A                      A
 Frequencies --   3230.2111              3249.6005              3250.6697
 Red. masses --      1.0899                 1.0937                 1.0941
 Frc consts  --      6.7005                 6.8045                 6.8115
 IR Inten    --      0.3254                 1.7970                 1.9181

 - Thermochemistry -
 -------------------
 Temperature   298.150 Kelvin.  Pressure   1.00000 Atm.
 Atom     1 has atomic number  8 and mass  15.99491

 Molecular mass:   192.02834 amu.
 Principal axes and moments of inertia in atomic units:
                           1         2         3
     Eigenvalues --   681.898076210.028436891.92648
           X            1.00000   0.00095   0.00000
           Y           -0.00095   1.00000   0.00001
           Z           -0.00000  -0.00001   1.00000
 This molecule is an asymmetric top.
 Rotational symmetry number  1.
 Warning -- assumption of classical behavior for rotation
           may cause significant error
 Rotational temperatures (Kelvin)      0.12702     0.01395     0.01257
 Rotational constants (GHZ):           2.64664     0.29062     0.26186
 Zero-point vibrational energy     305350.5 (Joules/Mol)
                                   72.98052 (Kcal/Mol)
 Warning -- explicit consideration of  16 degrees of freedom as
           vibrations may cause significant error
 Vibrational temperatures:     60.41    83.79   109.12   137.62   169.04
          (Kelvin)            275.12   359.80   372.29   420.86   604.46
                              640.24   671.01   711.72   762.60   797.94
                              840.37   922.51   968.24  1038.99  1051.47
                             1128.80  1229.23  1241.14  1265.52  1290.72
                             1437.03  1450.98  1459.21  1493.80  1618.84
                             1623.80  1722.91  1805.75  1873.56  1903.34
                             1983.40  2013.30  2080.10  2198.96  2329.97
                             2380.71  2404.83  2558.85  3313.26  4644.79
                             4647.55  4675.44  4676.98

 Zero-point correction=                           0.116302 (Hartree/Particle)
 Thermal correction to Energy=                    0.127652
 Thermal correction to Enthalpy=                  0.128596
 Thermal correction to Gibbs Free Energy=         0.077111
 Sum of electronic and zero-point Energies=           -713.569305
 Sum of electronic and thermal Energies=              -713.557955
 Sum of electronic and thermal Enthalpies=            -713.557011
 Sum of electronic and thermal Free Energies=         -713.608495

                     E (Thermal)             CV                S
                      KCal/Mol        Cal/Mol-Kelvin    Cal/Mol-Kelvin
 Total                   80.103             40.963            108.358
 Electronic               0.000              0.000              0.000
 Translational            0.889              2.981             41.663
 Rotational               0.889              2.981             31.746
 Vibrational             78.325             35.001             34.950
 Vibration     1          0.595              1.980              5.163
 Vibration     2          0.596              1.974              4.516
 Vibration     3          0.599              1.965              3.996
 Vibration     4          0.603              1.952              3.541
 Vibration     5          0.608              1.935              3.141
 Vibration     6          0.634              1.852              2.216
 Vibration     7          0.663              1.763              1.730
 Vibration     8          0.668              1.748              1.670
 Vibration     9          0.688              1.688              1.459
 Vibration    10          0.783              1.427              0.892
 Vibration    11          0.804              1.372              0.811
 Vibration    12          0.824              1.325              0.748
 Vibration    13          0.850              1.262              0.672
 Vibration    14          0.885              1.184              0.587
 Vibration    15          0.910              1.130              0.535
 Vibration    16          0.941              1.066              0.478

 Optimization completed.
    -- Stationary point found.
 Normal termination of Gaussian 09 at Fri Aug 20 16:01:24 2021.
