 Gaussian 09, Revision E.01,
 Gaussian 09:  ES64L-G09RevE.01 30-Nov-2015

 -------------------------
 #P OPT Freq B3LYP/6-31G**
 -------------------------

 ------
 BABBUB
 ------
 Symbolic Z-matrix:
 Charge =  0 Multiplicity = 1

 SCF Done:  E(RB3LYP) =  -487.173531719     A.U. after   16 cycles
 SCF Done:  E(RB3LYP) =  -487.255634844     A.U. after   13 cycles
 SCF Done:  E(RB3LYP) =  -487.275320883     A.U. after   15 cycles
 SCF Done:  E(RB3LYP) =  -487.276151886     A.U. after   14 cycles
 SCF Done:  E(RB3LYP) =  -487.277185643     A.U. after   15 cycles
 SCF Done:  E(RB3LYP) =  -487.280450777     A.U. after   15 cycles
 SCF Done:  E(RB3LYP) =  -487.280979148     A.U. after   14 cycles
 SCF Done:  E(RB3LYP) =  -487.281292078     A.U. after   12 cycles
 SCF Done:  E(RB3LYP) =  -487.281522914     A.U. after   13 cycles
 SCF Done:  E(RB3LYP) =  -487.281911148     A.U. after   13 cycles
 SCF Done:  E(RB3LYP) =  -487.282157849     A.U. after   12 cycles
 SCF Done:  E(RB3LYP) =  -487.282183426     A.U. after   11 cycles
 SCF Done:  E(RB3LYP) =  -487.282188323     A.U. after    9 cycles
 SCF Done:  E(RB3LYP) =  -487.282191226     A.U. after   10 cycles
 SCF Done:  E(RB3LYP) =  -487.282192577     A.U. after    9 cycles
 SCF Done:  E(RB3LYP) =  -487.282192707     A.U. after    8 cycles
 Optimization completed.
    -- Stationary point found.
 Normal termination of Gaussian 09 at Fri Aug 20 15:37:14 2021.

 ----------------------------------------------------------------------
 #P Geom=AllCheck Guess=TCheck SCRF=Check GenChk RB3LYP/6-31G(d,p) Freq
 ----------------------------------------------------------------------

 Structure from the checkpoint file:  "/public/home/users/caep010/.cache/gau_scr/Gau-130764.chk"
 ------
 BABBUB
 ------
 Charge =  0 Multiplicity = 1

                         Standard orientation:
 ---------------------------------------------------------------------
 Center     Atomic      Atomic             Coordinates (Angstroms)
 Number     Number       Type             X           Y           Z
 ---------------------------------------------------------------------
      1          6           0        0.318140   -0.344893    0.038139
      2          7           0        0.763829    0.923390   -0.115378
      3          6           0        2.207617    0.996735    0.095353
      4          6           0        2.626525   -0.464550   -0.170192
      5          1           0        2.893471   -0.612455   -1.225852
      6          7           0        1.397813   -1.175646    0.182199
      7          1           0        1.262519   -2.153741   -0.028911
      8          7           0       -0.892083   -0.876518    0.049042
      9          7           0       -1.961933   -0.001889   -0.002620
     10          8           0       -1.800577    1.239699    0.034135
     11          1           0        0.091438    1.669419    0.012720
     12          8           0       -3.062405   -0.531150   -0.073359
     13          1           0        2.444403    1.297893    1.124469
     14          1           0        2.678654    1.700779   -0.594160
     15          1           0        3.466292   -0.779403    0.453026
 ---------------------------------------------------------------------

 SCF Done:  E(RB3LYP) =  -487.282192707     A.U. after    1 cycles

 The electronic state is 1-A.
 Alpha  occ. eigenvalues --  -19.15422 -19.15210 -14.57069 -14.38544 -14.38367
 Alpha  occ. eigenvalues --  -14.34995 -10.32274 -10.26189 -10.26151  -1.20826
 Alpha  occ. eigenvalues --   -1.04375  -1.02179  -0.92796  -0.91226  -0.78811
 Alpha  occ. eigenvalues --   -0.68394  -0.66246  -0.63923  -0.54522  -0.53221
 Alpha  occ. eigenvalues --   -0.51747  -0.50947  -0.50427  -0.48094  -0.46415
 Alpha  occ. eigenvalues --   -0.42892  -0.41538  -0.40353  -0.33301  -0.28812
 Alpha  occ. eigenvalues --   -0.28747  -0.27288  -0.26148  -0.25470
 Alpha virt. eigenvalues --   -0.04746   0.04875   0.06116   0.08792   0.10145
 Alpha virt. eigenvalues --    0.12087   0.12682   0.13333   0.14705   0.17616
 Alpha virt. eigenvalues --    0.19131   0.24184   0.25140   0.30370   0.34187

 Mulliken charges:
               1
     1  C    0.803732
     2  N   -0.550073
     3  C   -0.043146
     4  C   -0.055624
     5  H    0.128973
     6  N   -0.557430
     7  H    0.284971
     8  N   -0.446207
     9  N    0.593331
    10  O   -0.469542
    11  H    0.307037
    12  O   -0.395297
    13  H    0.134302
    14  H    0.132770
    15  H    0.132202
 Sum of Mulliken charges =  -0.00000

 Dipole moment (field-independent basis, Debye):
    X=              7.8962    Y=              0.3854    Z=             -0.2553  Tot=              7.9097
 Quadrupole moment (field-independent basis, Debye-Ang):
   XX=            -55.1099   YY=            -48.7543   ZZ=            -50.8141
   XY=             -1.2328   XZ=             -0.8828   YZ=              1.3007

  Exact polarizability: 102.376   3.576  63.932   0.541   0.375  37.003
 Approx polarizability: 149.309  12.644 114.059   2.578  -1.235  54.999

                      1                      2                      3
                      A                      A                      A
 Frequencies --     68.3858               120.0348               209.5348
 Red. masses --      8.3500                 4.5023                 2.3040
 Frc consts  --      0.0230                 0.0382                 0.0596
 IR Inten    --      0.1930                 4.0740                 7.0676

                      4                      5                      6
                      A                      A                      A
 Frequencies --    229.7517               243.5465               400.6685
 Red. masses --      5.3189                 5.3242                 7.3574
 Frc consts  --      0.1654                 0.1861                 0.6959
 IR Inten    --      1.8221                 6.6697                 2.8192

                      7                      8                      9
                      A                      A                      A
 Frequencies --    459.8211               539.5999               623.4599
 Red. masses --      7.1153                 1.2728                 1.1323
 Frc consts  --      0.8864                 0.2184                 0.2593
 IR Inten    --      8.6798               147.4427                93.8923

                     10                     11                     12
                      A                      A                      A
 Frequencies --    701.1038               723.0735               755.4328
 Red. masses --      2.3420                 8.3749                 8.4960
 Frc consts  --      0.6783                 2.5798                 2.8567
 IR Inten    --     11.6759                39.3962                 8.8992

                     13                     14                     15
                      A                      A                      A
 Frequencies --    784.3341               817.4711               914.4631
 Red. masses --     13.0579                 6.9775                 1.6616
 Frc consts  --      4.7329                 2.7472                 0.8187
 IR Inten    --     16.1497                 6.6802                 4.5829

                     16                     17                     18
                      A                      A                      A
 Frequencies --    939.9530               962.9964              1035.8743
 Red. masses --      3.1337                 5.6955                 2.1778
 Frc consts  --      1.6313                 3.1119                 1.3768
 IR Inten    --      0.1474               102.6503                44.3858

                     19                     20                     21
                      A                      A                      A
 Frequencies --   1043.7338              1107.4552              1133.0736
 Red. masses --      2.8309                 2.2394                 1.6589
 Frc consts  --      1.8170                 1.6182                 1.2548
 IR Inten    --      9.5239                16.8455                18.9892

                     22                     23                     24
                      A                      A                      A
 Frequencies --   1220.1631              1232.4291              1289.6572
 Red. masses --      1.1592                 1.3809                 3.2725
 Frc consts  --      1.0168                 1.2358                 3.2068
 IR Inten    --     18.0268                19.9304               226.3215

                     25                     26                     27
                      A                      A                      A
 Frequencies --   1316.8587              1335.5229              1381.5689
 Red. masses --      1.7273                 1.6431                 2.0006
 Frc consts  --      1.7648                 1.7267                 2.2499
 IR Inten    --     41.2672               179.4411               173.7117

                     28                     29                     30
                      A                      A                      A
 Frequencies --   1417.3048              1502.8004              1540.7446
 Red. masses --      1.8075                 2.0075                 1.1660
 Frc consts  --      2.1392                 2.6712                 1.6309
 IR Inten    --     21.4602                66.1348                53.9894

                     31                     32                     33
                      A                      A                      A
 Frequencies --   1547.2980              1632.4124              1675.0066
 Red. masses --      1.4069                11.2852                 4.9134
 Frc consts  --      1.9845                17.7182                 8.1220
 IR Inten    --     42.4979               545.4983               489.6383

                     34                     35                     36
                      A                      A                      A
 Frequencies --   3023.6395              3035.3385              3116.2393
 Red. masses --      1.0723                 1.0677                 1.0942
 Frc consts  --      5.7759                 5.7959                 6.2607
 IR Inten    --     47.4127                49.2012                26.0113

                     37                     38                     39
                      A                      A                      A
 Frequencies --   3123.0221              3603.3930              3652.7613
 Red. masses --      1.1001                 1.0788                 1.0783
 Frc consts  --      6.3218                 8.2528                 8.4769
 IR Inten    --     24.3810               138.8650                57.0695

 - Thermochemistry -
 -------------------
 Temperature   298.150 Kelvin.  Pressure   1.00000 Atm.
 Atom     1 has atomic number  6 and mass  12.00000

 Molecular mass:   130.04908 amu.
 Principal axes and moments of inertia in atomic units:
                           1         2         3
     Eigenvalues --   374.159621727.317932068.58558
           X            1.00000   0.00211  -0.00182
           Y           -0.00209   0.99995   0.00963
           Z            0.00184  -0.00963   0.99995
 This molecule is an asymmetric top.
 Rotational symmetry number  1.
 Rotational temperatures (Kelvin)      0.23149     0.05014     0.04187
 Rotational constants (GHZ):           4.82345     1.04482     0.87245
 Zero-point vibrational energy     301817.4 (Joules/Mol)
                                   72.13609 (Kcal/Mol)
 Warning -- explicit consideration of   8 degrees of freedom as
           vibrations may cause significant error
 Vibrational temperatures:     98.39   172.70   301.47   330.56   350.41
          (Kelvin)            576.47   661.58   776.36   897.02  1008.73
                             1040.34  1086.90  1128.48  1176.16  1315.71
                             1352.38  1385.54  1490.39  1501.70  1593.38
                             1630.24  1755.54  1773.19  1855.53  1894.66
                             1921.52  1987.77  2039.18  2162.19  2216.78
                             2226.21  2348.67  2409.96  4350.34  4367.17
                             4483.57  4493.33  5184.47  5255.50

 Zero-point correction=                           0.114956 (Hartree/Particle)
 Thermal correction to Energy=                    0.122557
 Thermal correction to Enthalpy=                  0.123501
 Thermal correction to Gibbs Free Energy=         0.082164
 Sum of electronic and zero-point Energies=           -487.167237
 Sum of electronic and thermal Energies=              -487.159636
 Sum of electronic and thermal Enthalpies=            -487.158691
 Sum of electronic and thermal Free Energies=         -487.200029

                     E (Thermal)             CV                S
                      KCal/Mol        Cal/Mol-Kelvin    Cal/Mol-Kelvin
 Total                   76.906             27.700             87.002
 Electronic               0.000              0.000              0.000
 Translational            0.889              2.981             40.501
 Rotational               0.889              2.981             28.682
 Vibrational             75.128             21.738             17.819
 Vibration     1          0.598              1.969              4.199
 Vibration     2          0.609              1.933              3.100
 Vibration     3          0.642              1.826              2.048
 Vibration     4          0.652              1.796              1.881
 Vibration     5          0.659              1.773              1.777
 Vibration     6          0.767              1.469              0.960
 Vibration     7          0.818              1.339              0.767
 Vibration     8          0.895              1.162              0.566

 Normal termination of Gaussian 09 at Fri Aug 20 15:37:29 2021.
