 Gaussian 09, Revision E.01,
 Gaussian 09:  ES64L-G09RevE.01 30-Nov-2015

 -------------------------------------
 #P OPT Freq B3LYP/6-31G** Pop=NBORead
 -------------------------------------

 --
 10
 --
 Symbolic Z-matrix:
 Charge =  0 Multiplicity = 1

 SCF Done:  E(RB3LYP) =  -283.092067492     A.U. after   15 cycles
 SCF Done:  E(RB3LYP) =  -283.092600904     A.U. after   12 cycles
 SCF Done:  E(RB3LYP) =  -283.092655502     A.U. after   11 cycles
 SCF Done:  E(RB3LYP) =  -283.092597897     A.U. after   13 cycles
 SCF Done:  E(RB3LYP) =  -283.092651723     A.U. after   13 cycles
 SCF Done:  E(RB3LYP) =  -283.092663688     A.U. after   10 cycles
 SCF Done:  E(RB3LYP) =  -283.092664083     A.U. after    8 cycles
 Optimization completed.
    -- Stationary point found.
 Normal termination of Gaussian 09 at Thu Dec  3 15:58:46 2020.

 ----------------------------------------------------------------------
 #P Geom=AllCheck Guess=TCheck SCRF=Check GenChk RB3LYP/6-31G(d,p) Freq
 ----------------------------------------------------------------------

 Structure from the checkpoint file:  "10.B3LYP.chk"
 --
 10
 --
 Charge =  0 Multiplicity = 1

                         Standard orientation:
 ---------------------------------------------------------------------
 Center     Atomic      Atomic             Coordinates (Angstroms)
 Number     Number       Type             X           Y           Z
 ---------------------------------------------------------------------
      1          6           0       -0.739799   -0.647705    0.000070
      2          7           0        0.558967    0.031962    0.000014
      3          8           0        1.545427   -0.705268   -0.000064
      4          8           0        0.586863    1.261050    0.000040
      5          6           0       -1.870415    0.045992   -0.000051
      6          1           0       -0.632583   -1.723645    0.000178
      7          1           0       -1.851366    1.129754   -0.000163
      8          1           0       -2.825847   -0.465812   -0.000034
 ---------------------------------------------------------------------

 SCF Done:  E(RB3LYP) =  -283.092664083     A.U. after    1 cycles

 The electronic state is 1-A.
 Alpha  occ. eigenvalues --  -19.18641 -19.18521 -14.57706 -10.26257 -10.23770
 Alpha  occ. eigenvalues --   -1.22815  -1.05638  -0.84676  -0.71789  -0.58751
 Alpha  occ. eigenvalues --   -0.54938  -0.53511  -0.51895  -0.47970  -0.42978
 Alpha  occ. eigenvalues --   -0.32102  -0.31293  -0.31098  -0.29594
 Alpha virt. eigenvalues --   -0.09592   0.01072   0.09317   0.11398   0.13535
 Alpha virt. eigenvalues --    0.22393   0.26146   0.29039   0.35140   0.46722
 Alpha virt. eigenvalues --    0.50139   0.52750   0.57602   0.59478   0.63658

 Mulliken charges:
               1
     1  C    0.103323
     2  N    0.433582
     3  O   -0.377499
     4  O   -0.394884
     5  C   -0.211727
     6  H    0.145466
     7  H    0.163009
     8  H    0.138730
 Sum of Mulliken charges =   0.00000

 Dipole moment (field-independent basis, Debye):
    X=             -3.7140    Y=             -1.2033    Z=              0.0001  Tot=              3.9040
 Quadrupole moment (field-independent basis, Debye-Ang):
   XX=            -27.2380   YY=            -28.7511   ZZ=            -28.1414
   XY=              0.5856   XZ=              0.0003   YZ=             -0.0005

  Exact polarizability:  50.185  -5.891  38.452   0.001  -0.001  14.617
 Approx polarizability:  81.340 -22.975  76.341   0.001  -0.000  21.095

 Summary of Natural Population Analysis:

                                       Natural Population
                Natural  -----------------------------------------------
    Atom  No    Charge         Core      Valence    Rydberg      Total
 -----------------------------------------------------------------------
      C    1   -0.12704      1.99893     4.10958    0.01852     6.12704
      N    2    0.48985      1.99961     4.45785    0.05270     6.51015
      O    3   -0.37111      1.99983     6.35612    0.01517     8.37111
      O    4   -0.38315      1.99982     6.36851    0.01481     8.38315
      C    5   -0.36529      1.99914     4.35527    0.01088     6.36529
      H    6    0.25746      0.00000     0.74093    0.00160     0.74254
      H    7    0.25564      0.00000     0.74226    0.00210     0.74436
      H    8    0.24364      0.00000     0.75521    0.00115     0.75636
 =======================================================================
   * Total *    0.00000      9.99733    27.88573    0.11694    38.00000

                      1                      2                      3
                      A                      A                      A
 Frequencies --    114.9702               331.3790               539.8099
 Red. masses --      2.8055                 3.6572                 1.6814
 Frc consts  --      0.0218                 0.2366                 0.2887
 IR Inten    --      0.8193                 1.0700                 0.2569

                      4                      5                      6
                      A                      A                      A
 Frequencies --    553.2990               655.6336               819.7070
 Red. masses --      4.9829                 3.6130                 3.8887
 Frc consts  --      0.8988                 0.9150                 1.5395
 IR Inten    --      5.3220                 8.9201                18.9999

                      7                      8                      9
                      A                      A                      A
 Frequencies --    901.2662               977.3734              1004.3899
 Red. masses --      4.8104                 1.2185                 1.1684
 Frc consts  --      2.3022                 0.6858                 0.6944
 IR Inten    --     29.9788                 0.0320                50.9727

                     10                     11                     12
                      A                      A                      A
 Frequencies --   1081.8907              1288.8070              1400.4632
 Red. masses --      1.7749                 1.2611                 2.0974
 Frc consts  --      1.2240                 1.2342                 2.4237
 IR Inten    --      7.2301                 5.9571                42.3114

                     13                     14                     15
                      A                      A                      A
 Frequencies --   1416.6001              1639.0334              1718.5684
 Red. masses --      2.2432                10.9684                 4.8475
 Frc consts  --      2.6523                17.3608                 8.4353
 IR Inten    --    125.4654               198.2801                19.7811

                     16                     17                     18
                      A                      A                      A
 Frequencies --   3186.9101              3264.5717              3288.8028
 Red. masses --      1.0589                 1.1002                 1.1169
 Frc consts  --      6.3365                 6.9086                 7.1176
 IR Inten    --      1.8193                 1.3052                 1.0538

 - Thermochemistry -
 -------------------
 Temperature   298.150 Kelvin.  Pressure   1.00000 Atm.
 Atom     1 has atomic number  6 and mass  12.00000

 Molecular mass:    73.01638 amu.
 Principal axes and moments of inertia in atomic units:
                           1         2         3
     Eigenvalues --   153.36861 386.25870 539.62730
           X            0.99998   0.00592   0.00000
           Y           -0.00592   0.99998  -0.00001
           Z           -0.00000   0.00001   1.00000
 This molecule is an asymmetric top.
 Rotational symmetry number  1.
 Rotational temperatures (Kelvin)      0.56474     0.22424     0.16051
 Rotational constants (GHZ):          11.76734     4.67236     3.34442
 Zero-point vibrational energy     144649.3 (Joules/Mol)
                                   34.57201 (Kcal/Mol)
 Warning -- explicit consideration of   4 degrees of freedom as
           vibrations may cause significant error
 Vibrational temperatures:    165.42   476.78   776.67   796.07   943.31
          (Kelvin)           1179.37  1296.72  1406.22  1445.09  1556.60
                             1854.30  2014.95  2038.17  2358.20  2472.63
                             4585.25  4696.98  4731.85

 Zero-point correction=                           0.055094 (Hartree/Particle)
 Thermal correction to Energy=                    0.059792
 Thermal correction to Enthalpy=                  0.060736
 Thermal correction to Gibbs Free Energy=         0.027323
 Sum of electronic and zero-point Energies=           -283.037570
 Sum of electronic and thermal Energies=              -283.032872
 Sum of electronic and thermal Enthalpies=            -283.031928
 Sum of electronic and thermal Free Energies=         -283.065341

                     E (Thermal)             CV                S
                      KCal/Mol        Cal/Mol-Kelvin    Cal/Mol-Kelvin
 Total                   37.520             15.350             70.323
 Electronic               0.000              0.000              0.000
 Translational            0.889              2.981             38.781
 Rotational               0.889              2.981             24.973
 Vibrational             35.742              9.388              6.570
 Vibration     1          0.608              1.937              3.183
 Vibration     2          0.714              1.613              1.253
 Vibration     3          0.895              1.162              0.566
 Vibration     4          0.909              1.132              0.537

 Optimization completed.
    -- Stationary point found.
 Normal termination of Gaussian 09 at Thu Dec  3 15:59:48 2020.
