 Gaussian 09, Revision E.01,
 Gaussian 09:  ES64L-G09RevE.01 30-Nov-2015

 -------------------------
 #P OPT Freq B3LYP/6-31G**
 -------------------------

 ------
 SOXNEA
 ------
 Symbolic Z-matrix:
 Charge =  0 Multiplicity = 1

 SCF Done:  E(RB3LYP) =  -697.532389801     A.U. after   19 cycles
 SCF Done:  E(RB3LYP) =  -697.613160431     A.U. after   14 cycles
 SCF Done:  E(RB3LYP) =  -697.639654631     A.U. after   16 cycles
 SCF Done:  E(RB3LYP) =  -697.625324498     A.U. after   17 cycles
 SCF Done:  E(RB3LYP) =  -697.641451272     A.U. after   13 cycles
 SCF Done:  E(RB3LYP) =  -697.641883098     A.U. after   14 cycles
 SCF Done:  E(RB3LYP) =  -697.641928792     A.U. after   14 cycles
 SCF Done:  E(RB3LYP) =  -697.642024308     A.U. after   13 cycles
 SCF Done:  E(RB3LYP) =  -697.642035038     A.U. after   12 cycles
 SCF Done:  E(RB3LYP) =  -697.642043776     A.U. after   12 cycles
 SCF Done:  E(RB3LYP) =  -697.642053678     A.U. after   15 cycles
 SCF Done:  E(RB3LYP) =  -697.642069651     A.U. after   14 cycles
 SCF Done:  E(RB3LYP) =  -697.642089383     A.U. after   14 cycles
 SCF Done:  E(RB3LYP) =  -697.642091607     A.U. after   14 cycles
 SCF Done:  E(RB3LYP) =  -697.642089837     A.U. after   12 cycles
 SCF Done:  E(RB3LYP) =  -697.642094047     A.U. after   13 cycles
 SCF Done:  E(RB3LYP) =  -697.642094889     A.U. after   12 cycles
 SCF Done:  E(RB3LYP) =  -697.642094911     A.U. after   10 cycles
 SCF Done:  E(RB3LYP) =  -697.642094917     A.U. after    7 cycles
 Optimization completed.
    -- Stationary point found.
 Normal termination of Gaussian 09 at Fri Aug 20 15:42:02 2021.

 ----------------------------------------------------------------------
 #P Geom=AllCheck Guess=TCheck SCRF=Check GenChk RB3LYP/6-31G(d,p) Freq
 ----------------------------------------------------------------------

 Structure from the checkpoint file:  "/public/home/users/caep010/.cache/gau_scr/Gau-172069.chk"
 ------
 SOXNEA
 ------
 Charge =  0 Multiplicity = 1

                         Standard orientation:
 ---------------------------------------------------------------------
 Center     Atomic      Atomic             Coordinates (Angstroms)
 Number     Number       Type             X           Y           Z
 ---------------------------------------------------------------------
      1          8           0       -1.903401   -1.534429    0.312897
      2          6           0       -1.809214   -0.332085    0.085367
      3          6           0       -0.465598    0.344784    0.056560
      4          6           0        0.657980   -0.489619    0.015863
      5          1           0        0.532410   -1.564678    0.005399
      6          6           0       -0.286012    1.734889    0.090563
      7          1           0       -1.141645    2.398842    0.154113
      8          6           0        1.921420    0.084526   -0.007616
      9          7           0        3.105028   -0.796370   -0.061071
     10          8           0        4.211757   -0.258326   -0.072331
     11          6           0        2.115722    1.465210    0.020156
     12          1           0        3.122560    1.862473    0.002905
     13          6           0        0.995095    2.289467    0.074445
     14          1           0        1.119711    3.366769    0.107917
     15          8           0        2.912387   -2.009261   -0.091602
     16          6           0       -2.980743    0.497562   -0.186204
     17          1           0       -2.990294    1.534192   -0.486319
     18          7           0       -4.151982   -0.092009   -0.134411
     19          7           0       -5.138845   -0.647317   -0.071737
 ---------------------------------------------------------------------

 SCF Done:  E(RB3LYP) =  -697.642094917     A.U. after    2 cycles

 The electronic state is 1-A.
 Alpha  occ. eigenvalues --  -19.18701 -19.18676 -19.14349 -14.57791 -14.52017
 Alpha  occ. eigenvalues --  -14.45924 -10.30062 -10.26424 -10.25904 -10.23672
 Alpha  occ. eigenvalues --  -10.23453 -10.23391 -10.22998 -10.22941  -1.23024
 Alpha  occ. eigenvalues --   -1.15300  -1.05772  -1.04790  -0.90393  -0.88629
 Alpha  occ. eigenvalues --   -0.82233  -0.79295  -0.71668  -0.69162  -0.62479
 Alpha  occ. eigenvalues --   -0.61146  -0.57401  -0.56595  -0.53739  -0.52244
 Alpha  occ. eigenvalues --   -0.52037  -0.51870  -0.50811  -0.48845  -0.47545
 Alpha  occ. eigenvalues --   -0.46495  -0.45912  -0.43034  -0.42396  -0.40359
 Alpha  occ. eigenvalues --   -0.38683  -0.38628  -0.31516  -0.31279  -0.29673
 Alpha  occ. eigenvalues --   -0.29521  -0.28703  -0.27210  -0.25875
 Alpha virt. eigenvalues --   -0.09689  -0.08187  -0.08081  -0.02354  -0.01114
 Alpha virt. eigenvalues --    0.06449   0.06669   0.09848   0.13524   0.14661
 Alpha virt. eigenvalues --    0.15766   0.15986   0.17795   0.20508   0.23483

 Mulliken charges:
               1
     1  O   -0.492098
     2  C    0.399130
     3  C    0.030385
     4  C   -0.097810
     5  H    0.167547
     6  C   -0.091152
     7  H    0.100284
     8  C    0.234747
     9  N    0.392571
    10  O   -0.394122
    11  C   -0.076648
    12  H    0.144120
    13  C   -0.106267
    14  H    0.110952
    15  O   -0.386039
    16  C   -0.085410
    17  H    0.151753
    18  N    0.167586
    19  N   -0.169528
 Sum of Mulliken charges =  -0.00000

 Dipole moment (field-independent basis, Debye):
    X=             -2.9736    Y=              5.8783    Z=             -0.5668  Tot=              6.6120
 Quadrupole moment (field-independent basis, Debye-Ang):
   XX=            -89.0273   YY=            -76.5945   ZZ=            -77.3886
   XY=             -1.3194   XZ=              2.4195   YZ=              0.3390

  Exact polarizability: 193.563  11.129 119.211   0.081  -1.145  41.055
 Approx polarizability: 310.779  37.054 234.629  -1.050  -4.158  64.936

                      1                      2                      3
                      A                      A                      A
 Frequencies --     32.4188                47.4984                73.2364
 Red. masses --      8.7447                13.0406                 6.4749
 Frc consts  --      0.0054                 0.0173                 0.0205
 IR Inten    --      2.6419                 1.5766                 1.5385

                      4                      5                      6
                      A                      A                      A
 Frequencies --     97.4978               164.4594               174.5433
 Red. masses --      8.0626                 6.2036                11.7285
 Frc consts  --      0.0452                 0.0989                 0.2105
 IR Inten    --      0.7922                 2.0626                 0.7926

                      7                      8                      9
                      A                      A                      A
 Frequencies --    190.0952               249.3509               311.5758
 Red. masses --      4.8665                 7.4329                 9.0497
 Frc consts  --      0.1036                 0.2723                 0.5176
 IR Inten    --      1.0931                 3.1896                 3.1054

                     10                     11                     12
                      A                      A                      A
 Frequencies --    397.9759               430.3207               443.4302
 Red. masses --      8.6889                 3.4221                 8.8475
 Frc consts  --      0.8108                 0.3734                 1.0250
 IR Inten    --      2.0401                 0.5761                 1.1724

                     13                     14                     15
                      A                      A                      A
 Frequencies --    460.0349               493.0869               505.2844
 Red. masses --      6.0727                 1.7059                 3.2679
 Frc consts  --      0.7572                 0.2444                 0.4916
 IR Inten    --      1.7706                30.9537                 6.3197

                     16                     17                     18
                      A                      A                      A
 Frequencies --    547.7886               569.1158               665.1705
 Red. masses --      6.3467                 6.9371                 7.0739
 Frc consts  --      1.1221                 1.3238                 1.8441
 IR Inten    --      2.6022                 0.3553                 1.7654

                     19                     20                     21
                      A                      A                      A
 Frequencies --    674.7972               724.2795               730.8467
 Red. masses --      3.8915                 2.5664                 9.4377
 Frc consts  --      1.0440                 0.7932                 2.9701
 IR Inten    --      0.6728                70.8994                74.2657

                     22                     23                     24
                      A                      A                      A
 Frequencies --    771.8598               827.7219               856.5718
 Red. masses --      8.3595                 1.6576                10.6036
 Frc consts  --      2.9343                 0.6691                 4.5839
 IR Inten    --      2.1953                 6.3922                 7.0212

                     25                     26                     27
                      A                      A                      A
 Frequencies --    920.2011               947.4223               976.6727
 Red. masses --      5.2939                 1.4092                 1.4417
 Frc consts  --      2.6412                 0.7453                 0.8103
 IR Inten    --     11.1475                 0.0966                 7.9174

                     28                     29                     30
                      A                      A                      A
 Frequencies --   1000.3320              1017.6337              1063.6433
 Red. masses --      1.3188                 6.1706                 2.9404
 Frc consts  --      0.7775                 3.7650                 1.9600
 IR Inten    --      0.1140                 2.2348                33.1520

                     31                     32                     33
                      A                      A                      A
 Frequencies --   1103.8506              1119.2914              1191.6252
 Red. masses --      1.6519                 2.0376                 1.3748
 Frc consts  --      1.1859                 1.5041                 1.1502
 IR Inten    --    105.4872                24.6706                 6.1604

                     34                     35                     36
                      A                      A                      A
 Frequencies --   1207.5014              1239.5019              1307.7695
 Red. masses --      1.9653                 2.6474                 1.4246
 Frc consts  --      1.6883                 2.3964                 1.4355
 IR Inten    --     16.8212               127.7085                 2.1942

                     37                     38                     39
                      A                      A                      A
 Frequencies --   1373.3358              1399.4341              1413.4306
 Red. masses --      7.6073                11.2358                 2.8885
 Frc consts  --      8.4534                12.9646                 3.4000
 IR Inten    --      5.3521               443.7925               289.1020

                     40                     41                     42
                      A                      A                      A
 Frequencies --   1473.5841              1518.7185              1627.2251
 Red. masses --      3.0755                 2.4509                 7.1598
 Frc consts  --      3.9347                 3.3307                11.1698
 IR Inten    --     72.5223                 5.9431                91.3881

                     43                     44                     45
                      A                      A                      A
 Frequencies --   1634.5972              1678.5521              1726.3317
 Red. masses --      7.5233                 8.7274                11.9368
 Frc consts  --     11.8435                14.4879                20.9598
 IR Inten    --     17.4261                90.0463               144.8289

                     46                     47                     48
                      A                      A                      A
 Frequencies --   2255.3116              3200.7787              3215.6567
 Red. masses --     13.4730                 1.0874                 1.0941
 Frc consts  --     40.3765                 6.5635                 6.6657
 IR Inten    --    622.2529                 6.2034                10.2653

                     49                     50                     51
                      A                      A                      A
 Frequencies --   3249.0334              3255.0105              3269.3062
 Red. masses --      1.0933                 1.0911                 1.0888
 Frc consts  --      6.7998                 6.8109                 6.8563
 IR Inten    --      3.0505                12.3136                 3.3002

 - Thermochemistry -
 -------------------
 Temperature   298.150 Kelvin.  Pressure   1.00000 Atm.
 Atom     1 has atomic number  8 and mass  15.99491

 Molecular mass:   191.03309 amu.
 Principal axes and moments of inertia in atomic units:
                           1         2         3
     Eigenvalues --  1000.043095402.913756380.46551
           X            1.00000   0.00115   0.00092
           Y           -0.00115   1.00000  -0.00009
           Z           -0.00092   0.00009   1.00000
 This molecule is an asymmetric top.
 Rotational symmetry number  1.
 Warning -- assumption of classical behavior for rotation
           may cause significant error
 Rotational temperatures (Kelvin)      0.08661     0.01603     0.01357
 Rotational constants (GHZ):           1.80466     0.33403     0.28285
 Zero-point vibrational energy     333905.9 (Joules/Mol)
                                   79.80543 (Kcal/Mol)
 Warning -- explicit consideration of  17 degrees of freedom as
           vibrations may cause significant error
 Vibrational temperatures:     46.64    68.34   105.37   140.28   236.62
          (Kelvin)            251.13   273.50   358.76   448.29   572.60
                              619.13   638.00   661.89   709.44   726.99
                              788.14   818.83   957.03   970.88  1042.08
                             1051.52  1110.53  1190.91  1232.41  1323.96
                             1363.13  1405.21  1439.25  1464.15  1530.34
                             1588.19  1610.41  1714.48  1737.32  1783.36
                             1881.59  1975.92  2013.47  2033.61  2120.16
                             2185.09  2341.21  2351.82  2415.06  2483.80
                             3244.89  4605.20  4626.61  4674.63  4683.23
                             4703.80

 Zero-point correction=                           0.127178 (Hartree/Particle)
 Thermal correction to Energy=                    0.138936
 Thermal correction to Enthalpy=                  0.139880
 Thermal correction to Gibbs Free Energy=         0.087381
 Sum of electronic and zero-point Energies=           -697.514917
 Sum of electronic and thermal Energies=              -697.503159
 Sum of electronic and thermal Enthalpies=            -697.502215
 Sum of electronic and thermal Free Energies=         -697.554714

                     E (Thermal)             CV                S
                      KCal/Mol        Cal/Mol-Kelvin    Cal/Mol-Kelvin
 Total                   87.184             42.691            110.494
 Electronic               0.000              0.000              0.000
 Translational            0.889              2.981             41.647
 Rotational               0.889              2.981             31.911
 Vibrational             85.406             36.729             36.935
 Vibration     1          0.594              1.983              5.676
 Vibration     2          0.595              1.979              4.919
 Vibration     3          0.599              1.967              4.064
 Vibration     4          0.603              1.951              3.504
 Vibration     5          0.623              1.886              2.498
 Vibration     6          0.627              1.874              2.386
 Vibration     7          0.633              1.854              2.227
 Vibration     8          0.662              1.764              1.735
 Vibration     9          0.700              1.652              1.354
 Vibration    10          0.764              1.474              0.970
 Vibration    11          0.792              1.404              0.858
 Vibration    12          0.803              1.375              0.816
 Vibration    13          0.818              1.339              0.766
 Vibration    14          0.849              1.265              0.676
 Vibration    15          0.861              1.238              0.645
 Vibration    16          0.903              1.145              0.549
 Vibration    17          0.925              1.098              0.506

 Optimization completed.
    -- Stationary point found.
 Normal termination of Gaussian 09 at Fri Aug 20 15:42:34 2021.
