 Gaussian 09, Revision E.01,
 Gaussian 09:  ES64L-G09RevE.01 30-Nov-2015

 --------------------------------
 #P OPT=calcfc Freq B3LYP/6-31G**
 --------------------------------

 ------
 KEFYOK
 ------
 Symbolic Z-matrix:
 Charge =  0 Multiplicity = 1

 SCF Done:  E(RB3LYP) =  -531.443399113     A.U. after   15 cycles
 SCF Done:  E(RB3LYP) =  -531.442988683     A.U. after   14 cycles
 SCF Done:  E(RB3LYP) =  -531.443400111     A.U. after   10 cycles
 SCF Done:  E(RB3LYP) =  -531.443416933     A.U. after   11 cycles
 SCF Done:  E(RB3LYP) =  -531.443417167     A.U. after   10 cycles
 SCF Done:  E(RB3LYP) =  -531.443417485     A.U. after    8 cycles
 Optimization completed.
    -- Stationary point found.
 Normal termination of Gaussian 09 at Sun Aug 22 16:33:16 2021.

 ----------------------------------------------------------------------
 #P Geom=AllCheck Guess=TCheck SCRF=Check GenChk RB3LYP/6-31G(d,p) Freq
 ----------------------------------------------------------------------

 Structure from the checkpoint file:  "/public/home/users/caep010/.cache/gau_scr/Gau-104160.chk"
 ------
 KEFYOK
 ------
 Charge =  0 Multiplicity = 1

                         Standard orientation:
 ---------------------------------------------------------------------
 Center     Atomic      Atomic             Coordinates (Angstroms)
 Number     Number       Type             X           Y           Z
 ---------------------------------------------------------------------
      1          8           0        2.923280    0.683124   -0.000978
      2          7           0        2.028310   -0.163678    0.001104
      3          8           0        2.271617   -1.387323    0.009531
      4          6           0        0.649716    0.283678   -0.004509
      5          6           0        0.437973    1.672501   -0.003399
      6          1           0        1.308638    2.314798   -0.004929
      7          6           0       -0.439380   -0.634426   -0.003638
      8          7           0       -0.276002   -1.981646   -0.023297
      9          1           0       -1.072246   -2.587039    0.068801
     10          1           0        0.666032   -2.343011    0.026854
     11          6           0       -1.759831   -0.085636    0.002291
     12          6           0       -2.945306   -1.018020    0.000484
     13          1           0       -3.881068   -0.455197   -0.006193
     14          1           0       -2.960729   -1.665181    0.888079
     15          1           0       -2.948202   -1.672630   -0.880975
     16          6           0       -0.843857    2.180267    0.001269
     17          1           0       -1.011268    3.251471    0.002094
     18          6           0       -1.929925    1.289001    0.004931
     19          1           0       -2.942826    1.683457    0.008613
 ---------------------------------------------------------------------

 SCF Done:  E(RB3LYP) =  -531.443417485     A.U. after    1 cycles

 The electronic state is 1-A.
 Alpha  occ. eigenvalues --  -19.17068 -19.16812 -14.56214 -14.36106 -10.26357
 Alpha  occ. eigenvalues --  -10.24117 -10.21202 -10.20806 -10.20548 -10.20447
 Alpha  occ. eigenvalues --  -10.19477  -1.21052  -1.03561  -0.94686  -0.86321
 Alpha  occ. eigenvalues --   -0.81240  -0.76743  -0.70724  -0.68999  -0.61243
 Alpha  occ. eigenvalues --   -0.60279  -0.54853  -0.53263  -0.52315  -0.52061
 Alpha  occ. eigenvalues --   -0.50331  -0.46823  -0.44942  -0.44252  -0.42965
 Alpha  occ. eigenvalues --   -0.40754  -0.38632  -0.38169  -0.36243  -0.33131
 Alpha  occ. eigenvalues --   -0.30010  -0.29893  -0.28067  -0.26624  -0.21878
 Alpha virt. eigenvalues --   -0.07783  -0.00207   0.01457   0.06923   0.09184
 Alpha virt. eigenvalues --    0.12791   0.13729   0.13798   0.15281   0.17198
 Alpha virt. eigenvalues --    0.17941   0.18427   0.20059   0.22323   0.25993

 Mulliken charges:
               1
     1  O   -0.405905
     2  N    0.366318
     3  O   -0.450514
     4  C    0.245247
     5  C   -0.101879
     6  H    0.134307
     7  C    0.288542
     8  N   -0.680200
     9  H    0.268998
    10  H    0.307958
    11  C    0.106028
    12  C   -0.405202
    13  H    0.122250
    14  H    0.121904
    15  H    0.126119
    16  C   -0.104222
    17  H    0.093229
    18  C   -0.120986
    19  H    0.088008
 Sum of Mulliken charges =  -0.00000

 Dipole moment (field-independent basis, Debye):
    X=             -4.9988    Y=             -0.7668    Z=              0.1919  Tot=              5.0609
 Quadrupole moment (field-independent basis, Debye-Ang):
   XX=            -69.0600   YY=            -55.0959   ZZ=            -64.8495
   XY=              2.6033   XZ=             -0.1332   YZ=             -0.5422

  Exact polarizability: 130.260   2.659 118.324  -0.132  -0.023  39.024
 Approx polarizability: 213.492   8.264 224.537  -0.232   0.369  59.823

                      1                      2                      3
                      A                      A                      A
 Frequencies --     65.5569                84.5787               137.7680
 Red. masses --      9.7022                 4.1959                 1.2787
 Frc consts  --      0.0246                 0.0177                 0.0143
 IR Inten    --      4.1961                45.5658                89.8683

                      4                      5                      6
                      A                      A                      A
 Frequencies --    211.8132               237.2779               264.9506
 Red. masses --      1.8403                 1.7697                 4.6553
 Frc consts  --      0.0486                 0.0587                 0.1925
 IR Inten    --      4.2955                29.2248                 2.4438

                      7                      8                      9
                      A                      A                      A
 Frequencies --    284.0476               371.6441               394.7383
 Red. masses --      2.4311                 3.6431                 7.6662
 Frc consts  --      0.1156                 0.2965                 0.7038
 IR Inten    --     18.0675                 1.4998                 1.4605

                     10                     11                     12
                      A                      A                      A
 Frequencies --    416.6485               473.3986               503.6171
 Red. masses --      4.4448                 3.8166                 5.4411
 Frc consts  --      0.4546                 0.5039                 0.8131
 IR Inten    --      2.7229                10.0032                 3.5811

                     13                     14                     15
                      A                      A                      A
 Frequencies --    558.4739               577.1896               626.8144
 Red. masses --      3.4855                 4.1116                 1.0700
 Frc consts  --      0.6405                 0.8071                 0.2477
 IR Inten    --      1.6412                 5.3009                23.5366

                     16                     17                     18
                      A                      A                      A
 Frequencies --    645.2690               723.8156               751.4329
 Red. masses --      6.4668                 7.0537                 2.5189
 Frc consts  --      1.5864                 2.1773                 0.8380
 IR Inten    --      3.9919                 0.0176                38.8505

                     19                     20                     21
                      A                      A                      A
 Frequencies --    793.4359               800.0983               856.3329
 Red. masses --      7.0523                 1.8991                 4.3028
 Frc consts  --      2.6158                 0.7163                 1.8590
 IR Inten    --      9.0180                 6.5934                 4.0401

                     22                     23                     24
                      A                      A                      A
 Frequencies --    910.8172               941.5162               974.7244
 Red. masses --      3.9203                 1.3330                 1.2755
 Frc consts  --      1.9162                 0.6962                 0.7140
 IR Inten    --     16.8926                 0.0121                 0.7088

                     25                     26                     27
                      A                      A                      A
 Frequencies --   1022.3304              1066.9329              1096.8992
 Red. masses --      1.4989                 1.4810                 1.9306
 Frc consts  --      0.9230                 0.9933                 1.3686
 IR Inten    --     12.6078                 1.4920                23.4081

                     28                     29                     30
                      A                      A                      A
 Frequencies --   1121.0794              1190.8603              1218.3751
 Red. masses --      1.7821                 1.2469                 3.7410
 Frc consts  --      1.3196                 1.0419                 3.2719
 IR Inten    --     22.5921                 1.8233                42.9646

                     31                     32                     33
                      A                      A                      A
 Frequencies --   1292.2038              1307.2313              1371.1751
 Red. masses --      1.6980                 4.5155                 3.0944
 Frc consts  --      1.6706                 4.5463                 3.4278
 IR Inten    --      7.2256               264.6912               135.2600

                     34                     35                     36
                      A                      A                      A
 Frequencies --   1401.6298              1428.5685              1484.1375
 Red. masses --      5.6458                 1.3424                 1.9029
 Frc consts  --      6.5350                 1.6141                 2.4696
 IR Inten    --     79.7690                 8.1143                13.7904

                     37                     38                     39
                      A                      A                      A
 Frequencies --   1499.8143              1500.0588              1525.2548
 Red. masses --      2.7958                 1.0718                 1.2498
 Frc consts  --      3.7053                 1.4209                 1.7130
 IR Inten    --     60.2610                 9.3102                25.4662

                     40                     41                     42
                      A                      A                      A
 Frequencies --   1591.2664              1623.7367              1634.2386
 Red. masses --      3.9737                 6.4430                 1.8755
 Frc consts  --      5.9283                10.0085                 2.9512
 IR Inten    --    287.2026                72.4240                 7.5728

                     43                     44                     45
                      A                      A                      A
 Frequencies --   1678.3139              3019.2994              3067.2735
 Red. masses --      5.8744                 1.0413                 1.1003
 Frc consts  --      9.7490                 5.5928                 6.0992
 IR Inten    --    167.2470                30.0954                21.5703

                     46                     47                     48
                      A                      A                      A
 Frequencies --   3134.3344              3181.7098              3214.6891
 Red. masses --      1.0970                 1.0893                 1.0923
 Frc consts  --      6.3495                 6.4969                 6.6507
 IR Inten    --     10.2297                14.1461                 9.7405

                     49                     50                     51
                      A                      A                      A
 Frequencies --   3250.5194              3573.0900              3748.5143
 Red. masses --      1.0929                 1.0497                 1.0997
 Frc consts  --      6.8034                 7.8957                 9.1046
 IR Inten    --      3.0406                92.1804                78.9482

 - Thermochemistry -
 -------------------
 Temperature   298.150 Kelvin.  Pressure   1.00000 Atm.
 Atom     1 has atomic number  8 and mass  15.99491

 Molecular mass:   152.05858 amu.
 Principal axes and moments of inertia in atomic units:
                           1         2         3
     Eigenvalues --   931.516661888.022012808.16564
           X            0.99959   0.02870  -0.00021
           Y           -0.02870   0.99959  -0.00091
           Z            0.00019   0.00091   1.00000
 This molecule is an asymmetric top.
 Rotational symmetry number  1.
 Warning -- assumption of classical behavior for rotation
           may cause significant error
 Rotational temperatures (Kelvin)      0.09298     0.04588     0.03084
 Rotational constants (GHZ):           1.93742     0.95589     0.64268
 Zero-point vibrational energy     387886.1 (Joules/Mol)
                                   92.70701 (Kcal/Mol)
 Warning -- explicit consideration of  14 degrees of freedom as
           vibrations may cause significant error
 Vibrational temperatures:     94.32   121.69   198.22   304.75   341.39
          (Kelvin)            381.20   408.68   534.71   567.94   599.46
                              681.11   724.59   803.52   830.45   901.84
                              928.40  1041.41  1081.14  1141.58  1151.16
                             1232.07  1310.46  1354.63  1402.41  1470.90
                             1535.08  1578.19  1612.98  1713.38  1752.97
                             1859.19  1880.81  1972.81  2016.63  2055.39
                             2135.34  2157.90  2158.25  2194.50  2289.47
                             2336.19  2351.30  2414.72  4344.09  4413.12
                             4509.60  4577.76  4625.21  4676.77  5140.87
                             5393.27

 Zero-point correction=                           0.147738 (Hartree/Particle)
 Thermal correction to Energy=                    0.157585
 Thermal correction to Enthalpy=                  0.158529
 Thermal correction to Gibbs Free Energy=         0.112448
 Sum of electronic and zero-point Energies=           -531.295679
 Sum of electronic and thermal Energies=              -531.285833
 Sum of electronic and thermal Enthalpies=            -531.284889
 Sum of electronic and thermal Free Energies=         -531.330969

                     E (Thermal)             CV                S
                      KCal/Mol        Cal/Mol-Kelvin    Cal/Mol-Kelvin
 Total                   98.886             37.410             96.985
 Electronic               0.000              0.000              0.000
 Translational            0.889              2.981             40.967
 Rotational               0.889              2.981             29.981
 Vibrational             97.108             31.448             26.038
 Vibration     1          0.597              1.971              4.283
 Vibration     2          0.601              1.960              3.782
 Vibration     3          0.614              1.916              2.835
 Vibration     4          0.643              1.823              2.028
 Vibration     5          0.656              1.784              1.823
 Vibration     6          0.671              1.737              1.629
 Vibration     7          0.682              1.703              1.509
 Vibration     8          0.743              1.530              1.073
 Vibration     9          0.762              1.481              0.982
 Vibration    10          0.780              1.434              0.903
 Vibration    11          0.830              1.309              0.728
 Vibration    12          0.859              1.242              0.649
 Vibration    13          0.914              1.121              0.527
 Vibration    14          0.934              1.081              0.491

 Normal termination of Gaussian 09 at Sun Aug 22 16:33:42 2021.
