 Gaussian 09, Revision E.01,
 Gaussian 09:  ES64L-G09RevE.01 30-Nov-2015

 -------------------------
 #P OPT Freq B3LYP/6-31G**
 -------------------------

 ------
 TEHGUI
 ------
 Symbolic Z-matrix:
 Charge =  0 Multiplicity = 1

 SCF Done:  E(RB3LYP) =  -531.315244226     A.U. after   15 cycles
 SCF Done:  E(RB3LYP) =  -531.403803879     A.U. after   13 cycles
 SCF Done:  E(RB3LYP) =  -531.439407951     A.U. after   15 cycles
 SCF Done:  E(RB3LYP) =  -531.441601947     A.U. after   14 cycles
 SCF Done:  E(RB3LYP) =  -531.436489195     A.U. after   15 cycles
 SCF Done:  E(RB3LYP) =  -531.442638010     A.U. after   11 cycles
 SCF Done:  E(RB3LYP) =  -531.442629907     A.U. after   13 cycles
 SCF Done:  E(RB3LYP) =  -531.443205897     A.U. after   10 cycles
 SCF Done:  E(RB3LYP) =  -531.443389606     A.U. after   12 cycles
 SCF Done:  E(RB3LYP) =  -531.443402001     A.U. after   11 cycles
 SCF Done:  E(RB3LYP) =  -531.443408065     A.U. after   11 cycles
 SCF Done:  E(RB3LYP) =  -531.443410888     A.U. after   10 cycles
 SCF Done:  E(RB3LYP) =  -531.443414085     A.U. after   10 cycles
 SCF Done:  E(RB3LYP) =  -531.443417155     A.U. after   10 cycles
 SCF Done:  E(RB3LYP) =  -531.443420512     A.U. after   10 cycles
 SCF Done:  E(RB3LYP) =  -531.443422421     A.U. after   11 cycles
 SCF Done:  E(RB3LYP) =  -531.443422565     A.U. after    9 cycles
 Optimization completed.
    -- Stationary point found.
 Normal termination of Gaussian 09 at Fri Aug 20 16:04:32 2021.

 ----------------------------------------------------------------------
 #P Geom=AllCheck Guess=TCheck SCRF=Check GenChk RB3LYP/6-31G(d,p) Freq
 ----------------------------------------------------------------------

 Structure from the checkpoint file:  "/public/home/users/caep010/.cache/gau_scr/Gau-115964.chk"
 ------
 TEHGUI
 ------
 Charge =  0 Multiplicity = 1

                         Standard orientation:
 ---------------------------------------------------------------------
 Center     Atomic      Atomic             Coordinates (Angstroms)
 Number     Number       Type             X           Y           Z
 ---------------------------------------------------------------------
      1          8           0        1.635297   -2.186841    0.005165
      2          7           0        1.697029   -0.955892   -0.001225
      3          6           0        0.464567   -0.197311    0.005032
      4          6           0        0.461980    1.224142    0.004466
      5          6           0       -0.815712    1.841568   -0.002453
      6          6           0       -1.980452    1.103729   -0.005140
      7          6           0       -1.971166   -0.309150   -0.000761
      8          8           0        2.783164   -0.342372   -0.014689
      9          6           0       -0.735814   -0.931207    0.003676
     10          6           0       -3.259821   -1.094787   -0.001659
     11          1           0       -3.868310   -0.869638    0.882093
     12          7           0        1.581038    1.991301    0.025206
     13          1           0        1.498942    2.990017   -0.061805
     14          1           0       -3.066662   -2.170495   -0.006363
     15          1           0       -3.871728   -0.862255   -0.881073
     16          1           0       -2.932469    1.629223   -0.010505
     17          1           0        2.477345    1.530717   -0.034679
     18          1           0       -0.859223    2.927392   -0.003024
     19          1           0       -0.653541   -2.011023    0.004705
 ---------------------------------------------------------------------

 SCF Done:  E(RB3LYP) =  -531.443422565     A.U. after    1 cycles

 The electronic state is 1-A.
 Alpha  occ. eigenvalues --  -19.16936 -19.16710 -14.56086 -14.36056 -10.26384
 Alpha  occ. eigenvalues --  -10.24056 -10.20962 -10.20449 -10.20420 -10.20356
 Alpha  occ. eigenvalues --  -10.19100  -1.20918  -1.03442  -0.94460  -0.86575
 Alpha  occ. eigenvalues --   -0.80650  -0.76916  -0.70099  -0.68596  -0.62451
 Alpha  occ. eigenvalues --   -0.59257  -0.54973  -0.53045  -0.52002  -0.51948
 Alpha  occ. eigenvalues --   -0.50299  -0.45827  -0.45366  -0.44091  -0.42660
 Alpha  occ. eigenvalues --   -0.39497  -0.39263  -0.37940  -0.36057  -0.32151
 Alpha  occ. eigenvalues --   -0.29905  -0.29725  -0.27987  -0.27168  -0.21578
 Alpha virt. eigenvalues --   -0.07760  -0.00065   0.01160   0.07850   0.09025
 Alpha virt. eigenvalues --    0.11740   0.13166   0.14212   0.15644   0.16110
 Alpha virt. eigenvalues --    0.18796   0.19243   0.20958   0.22281   0.26399

 Mulliken charges:
               1
     1  O   -0.408374
     2  N    0.365858
     3  C    0.245250
     4  C    0.323661
     5  C   -0.125566
     6  C   -0.104637
     7  C    0.108873
     8  O   -0.450371
     9  C   -0.144889
    10  C   -0.381634
    11  H    0.122482
    12  N   -0.671328
    13  H    0.268026
    14  H    0.118717
    15  H    0.121967
    16  H    0.090164
    17  H    0.307115
    18  H    0.085772
    19  H    0.128916
 Sum of Mulliken charges =  -0.00000

 Dipole moment (field-independent basis, Debye):
    X=             -3.0080    Y=              3.8227    Z=             -0.2091  Tot=              4.8688
 Quadrupole moment (field-independent basis, Debye-Ang):
   XX=            -63.7691   YY=            -57.5513   ZZ=            -64.8345
   XY=              8.1024   XZ=             -0.3860   YZ=             -0.5822

  Exact polarizability: 133.832   2.643 118.441   0.043  -0.118  39.123
 Approx polarizability: 218.857   7.450 222.496   0.314   0.025  59.581

                      1                      2                      3
                      A                      A                      A
 Frequencies --     65.3680                78.4564                97.5907
 Red. masses --      8.5414                 1.0668                 3.6312
 Frc consts  --      0.0215                 0.0039                 0.0204
 IR Inten    --      9.5620                 0.6749                47.7977

                      4                      5                      6
                      A                      A                      A
 Frequencies --    161.4071               195.4182               234.0415
 Red. masses --      2.0369                 1.8103                 4.1069
 Frc consts  --      0.0313                 0.0407                 0.1325
 IR Inten    --     44.2028               120.2193                 4.4087

                      7                      8                      9
                      A                      A                      A
 Frequencies --    330.1025               354.6125               400.3837
 Red. masses --      4.0259                 3.8784                 5.3565
 Frc consts  --      0.2585                 0.2873                 0.5059
 IR Inten    --      0.4132                 4.7092                 0.8317

                     10                     11                     12
                      A                      A                      A
 Frequencies --    408.3368               441.5884               475.9398
 Red. masses --      5.5257                 3.9275                 5.2977
 Frc consts  --      0.5428                 0.4512                 0.7070
 IR Inten    --      2.0141                 1.3145                 1.3015

                     13                     14                     15
                      A                      A                      A
 Frequencies --    544.7429               558.6242               600.3054
 Red. masses --      2.3952                 4.3836                 1.1138
 Frc consts  --      0.4188                 0.8060                 0.2365
 IR Inten    --     22.8942                 0.8143                 9.8703

                     16                     17                     18
                      A                      A                      A
 Frequencies --    694.3830               703.6306               765.9865
 Red. masses --      6.7422                 4.5238                 8.3199
 Frc consts  --      1.9154                 1.3196                 2.8761
 IR Inten    --      6.3202                 0.3023                10.1105

                     19                     20                     21
                      A                      A                      A
 Frequencies --    790.9733               826.3514               834.3890
 Red. masses --      5.7635                 1.4898                 6.6492
 Frc consts  --      2.1245                 0.5994                 2.7274
 IR Inten    --     12.5718                20.9093                 4.7226

                     22                     23                     24
                      A                      A                      A
 Frequencies --    919.4873               940.0438               972.6697
 Red. masses --      1.3243                 3.9511                 1.3068
 Frc consts  --      0.6597                 2.0572                 0.7284
 IR Inten    --      3.3319                13.0348                 0.5182

                     25                     26                     27
                      A                      A                      A
 Frequencies --   1027.9006              1055.2335              1070.6954
 Red. masses --      1.5979                 1.5210                 1.4814
 Frc consts  --      0.9947                 0.9979                 1.0006
 IR Inten    --      5.1334                 6.5318                 3.8532

                     28                     29                     30
                      A                      A                      A
 Frequencies --   1111.4707              1197.7764              1236.7458
 Red. masses --      2.4819                 1.1780                 2.8964
 Frc consts  --      1.8065                 0.9957                 2.6101
 IR Inten    --     39.5026                34.5561                28.1951

                     31                     32                     33
                      A                      A                      A
 Frequencies --   1301.9008              1317.7749              1386.5347
 Red. masses --      2.3098                 2.4032                 3.3862
 Frc consts  --      2.3066                 2.4588                 3.8355
 IR Inten    --    123.3489               133.7413               129.1598

                     34                     35                     36
                      A                      A                      A
 Frequencies --   1402.4845              1432.4210              1457.1329
 Red. masses --      5.7776                 1.2660                 3.3306
 Frc consts  --      6.6957                 1.5304                 4.1665
 IR Inten    --     77.2111                 0.5164                61.3881

                     37                     38                     39
                      A                      A                      A
 Frequencies --   1498.9317              1509.8246              1534.2955
 Red. masses --      1.0433                 1.1404                 2.2672
 Frc consts  --      1.3811                 1.5317                 3.1445
 IR Inten    --      5.6042                 0.7236                39.1254

                     40                     41                     42
                      A                      A                      A
 Frequencies --   1586.9223              1617.2028              1630.4538
 Red. masses --      4.2266                 7.4469                 1.8089
 Frc consts  --      6.2712                11.4751                 2.8332
 IR Inten    --    202.4398               221.1029                31.7110

                     43                     44                     45
                      A                      A                      A
 Frequencies --   1696.8366              3037.5756              3090.4230
 Red. masses --      6.4917                 1.0382                 1.1011
 Frc consts  --     11.0125                 5.6439                 6.1963
 IR Inten    --    146.0217                38.1194                21.0713

                     46                     47                     48
                      A                      A                      A
 Frequencies --   3129.5727              3173.0613              3190.3272
 Red. masses --      1.1003                 1.0867                 1.0952
 Frc consts  --      6.3496                 6.4465                 6.5675
 IR Inten    --     12.3253                 9.3153                17.9189

                     49                     50                     51
                      A                      A                      A
 Frequencies --   3236.3754              3578.5602              3738.9279
 Red. masses --      1.0905                 1.0465                 1.1033
 Frc consts  --      6.7299                 7.8961                 9.0877
 IR Inten    --      2.8749                91.5249                70.2980

 - Thermochemistry -
 -------------------
 Temperature   298.150 Kelvin.  Pressure   1.00000 Atm.
 Atom     1 has atomic number  8 and mass  15.99491

 Molecular mass:   152.05858 amu.
 Principal axes and moments of inertia in atomic units:
                           1         2         3
     Eigenvalues --  1000.027041937.147422925.85172
           X            0.99830   0.05830  -0.00025
           Y           -0.05830   0.99830  -0.00098
           Z            0.00019   0.00099   1.00000
 This molecule is an asymmetric top.
 Rotational symmetry number  1.
 Warning -- assumption of classical behavior for rotation
           may cause significant error
 Rotational temperatures (Kelvin)      0.08661     0.04471     0.02960
 Rotational constants (GHZ):           1.80469     0.93165     0.61683
 Zero-point vibrational energy     386646.2 (Joules/Mol)
                                   92.41065 (Kcal/Mol)
 Warning -- explicit consideration of  15 degrees of freedom as
           vibrations may cause significant error
 Vibrational temperatures:     94.05   112.88   140.41   232.23   281.16
          (Kelvin)            336.73   474.94   510.21   576.06   587.50
                              635.35   684.77   783.76   803.73   863.70
                              999.06  1012.37  1102.08  1138.03  1188.93
                             1200.50  1322.94  1352.51  1399.45  1478.92
                             1518.24  1540.49  1599.16  1723.33  1779.40
                             1873.14  1895.98  1994.91  2017.86  2060.93
                             2096.49  2156.63  2172.30  2207.51  2283.22
                             2326.79  2345.86  2441.37  4370.39  4446.42
                             4502.75  4565.32  4590.16  4656.42  5148.74
                             5379.48

 Zero-point correction=                           0.147266 (Hartree/Particle)
 Thermal correction to Energy=                    0.157413
 Thermal correction to Enthalpy=                  0.158358
 Thermal correction to Gibbs Free Energy=         0.111289
 Sum of electronic and zero-point Energies=           -531.296157
 Sum of electronic and thermal Energies=              -531.286009
 Sum of electronic and thermal Enthalpies=            -531.285065
 Sum of electronic and thermal Free Energies=         -531.332134

                     E (Thermal)             CV                S
                      KCal/Mol        Cal/Mol-Kelvin    Cal/Mol-Kelvin
 Total                   98.778             37.751             99.065
 Electronic               0.000              0.000              0.000
 Translational            0.889              2.981             40.967
 Rotational               0.889              2.981             30.117
 Vibrational             97.001             31.789             27.980
 Vibration     1          0.597              1.971              4.288
 Vibration     2          0.600              1.964              3.929
 Vibration     3          0.603              1.951              3.502
 Vibration     4          0.622              1.890              2.533
 Vibration     5          0.636              1.846              2.176
 Vibration     6          0.654              1.789              1.848
 Vibration     7          0.713              1.615              1.260
 Vibration     8          0.730              1.566              1.146
 Vibration     9          0.766              1.469              0.961
 Vibration    10          0.773              1.452              0.933
 Vibration    11          0.801              1.379              0.822
 Vibration    12          0.833              1.303              0.721
 Vibration    13          0.900              1.151              0.555
 Vibration    14          0.914              1.121              0.527
 Vibration    15          0.958              1.031              0.449

 Normal termination of Gaussian 09 at Fri Aug 20 16:04:58 2021.
