 Gaussian 09, Revision E.01,
 Gaussian 09:  ES64L-G09RevE.01 30-Nov-2015

 --------------------------------
 #P OPT=calcfc Freq B3LYP/6-31G**
 --------------------------------

 ------
 KOTSIV
 ------
 Symbolic Z-matrix:
 Charge =  0 Multiplicity = 1

 SCF Done:  E(RB3LYP) =  -606.627690408     A.U. after   15 cycles
 SCF Done:  E(RB3LYP) =  -606.647210620     A.U. after   16 cycles
 SCF Done:  E(RB3LYP) =  -606.630709069     A.U. after   16 cycles
 SCF Done:  E(RB3LYP) =  -606.647534560     A.U. after   11 cycles
 SCF Done:  E(RB3LYP) =  -606.641681156     A.U. after   14 cycles
 SCF Done:  E(RB3LYP) =  -606.647750831     A.U. after   12 cycles
 SCF Done:  E(RB3LYP) =  -606.621466894     A.U. after   14 cycles
 SCF Done:  E(RB3LYP) =  -606.647841064     A.U. after    9 cycles
 SCF Done:  E(RB3LYP) =  -606.648047046     A.U. after   11 cycles
 SCF Done:  E(RB3LYP) =  -606.648058309     A.U. after    9 cycles
 SCF Done:  E(RB3LYP) =  -606.648068754     A.U. after   10 cycles
 SCF Done:  E(RB3LYP) =  -606.648074811     A.U. after   10 cycles
 SCF Done:  E(RB3LYP) =  -606.648079902     A.U. after   10 cycles
 SCF Done:  E(RB3LYP) =  -606.648080781     A.U. after    9 cycles
 Optimization completed.
    -- Stationary point found.
 Normal termination of Gaussian 09 at Mon Aug 23 16:06:27 2021.

 ----------------------------------------------------------------------
 #P Geom=AllCheck Guess=TCheck SCRF=Check GenChk RB3LYP/6-31G(d,p) Freq
 ----------------------------------------------------------------------

 Structure from the checkpoint file:  "/public/home/users/caep010/.cache/gau_scr/Gau-30299.chk"
 ------
 KOTSIV
 ------
 Charge =  0 Multiplicity = 1

                         Standard orientation:
 ---------------------------------------------------------------------
 Center     Atomic      Atomic             Coordinates (Angstroms)
 Number     Number       Type             X           Y           Z
 ---------------------------------------------------------------------
      1          6           0       -1.445783   -1.159144    0.007723
      2          6           0       -1.195039    0.242487    0.008148
      3          6           0        0.100530    0.727244    0.005781
      4          6           0        1.166547   -0.183834    0.002116
      5          6           0        0.953794   -1.558530   -0.002763
      6          6           0       -0.351223   -2.037044   -0.000605
      7          7           0       -2.746849   -1.597877    0.057552
      8          1           0       -2.935063   -2.545920   -0.228493
      9          1           0       -0.535399   -3.107395    0.000260
     10          8           0       -2.327412    1.012020    0.001663
     11          6           0       -2.172164    2.425395   -0.009035
     12          7           0        2.526042    0.333539   -0.001045
     13          8           0        2.678718    1.560171    0.003320
     14          1           0       -3.457137   -0.918637   -0.170041
     15          1           0        1.803035   -2.229132   -0.008188
     16          1           0        0.324466    1.784439    0.003466
     17          8           0        3.456287   -0.478156   -0.008295
     18          1           0       -3.180707    2.840023   -0.012268
     19          1           0       -1.636253    2.761575   -0.904869
     20          1           0       -1.637997    2.773687    0.882894
 ---------------------------------------------------------------------

 SCF Done:  E(RB3LYP) =  -606.648080781     A.U. after    1 cycles

 The electronic state is 1-A.
 Alpha  occ. eigenvalues --  -19.19847 -19.16028 -19.16010 -14.55288 -14.36388
 Alpha  occ. eigenvalues --  -10.26328 -10.25559 -10.25424 -10.23397 -10.20771
 Alpha  occ. eigenvalues --  -10.20650 -10.20370  -1.20230  -1.08307  -1.02857
 Alpha  occ. eigenvalues --   -0.94108  -0.86907  -0.78645  -0.76936  -0.72327
 Alpha  occ. eigenvalues --   -0.68082  -0.62620  -0.58911  -0.55554  -0.54451
 Alpha  occ. eigenvalues --   -0.52479  -0.51237  -0.50773  -0.48876  -0.48356
 Alpha  occ. eigenvalues --   -0.47367  -0.45320  -0.43292  -0.41800  -0.40788
 Alpha  occ. eigenvalues --   -0.37327  -0.35883  -0.33990  -0.33067  -0.29072
 Alpha  occ. eigenvalues --   -0.29053  -0.27147  -0.25337  -0.21452
 Alpha virt. eigenvalues --   -0.06946  -0.00668   0.02647   0.06743   0.08677
 Alpha virt. eigenvalues --    0.09375   0.12806   0.13321   0.14580   0.15591
 Alpha virt. eigenvalues --    0.15981   0.16539   0.18419   0.21333   0.23270

 Mulliken charges:
               1
     1  C    0.287934
     2  C    0.336668
     3  C   -0.149054
     4  C    0.229704
     5  C   -0.101024
     6  C   -0.132788
     7  N   -0.659721
     8  H    0.268016
     9  H    0.088774
    10  O   -0.551547
    11  C   -0.082802
    12  N    0.376974
    13  O   -0.420389
    14  H    0.284850
    15  H    0.130328
    16  H    0.132914
    17  O   -0.414322
    18  H    0.127480
    19  H    0.122959
    20  H    0.125045
 Sum of Mulliken charges =  -0.00000

 Dipole moment (field-independent basis, Debye):
    X=             -6.5441    Y=             -1.0045    Z=             -0.7943  Tot=              6.6682
 Quadrupole moment (field-independent basis, Debye-Ang):
   XX=            -75.7267   YY=            -57.2417   ZZ=            -69.7400
   XY=             -2.4651   XZ=              2.7670   YZ=              1.5634

  Exact polarizability: 152.213   6.910 118.766  -0.073   0.278  41.419
 Approx polarizability: 265.335  17.735 209.378  -2.098  -0.042  62.901

                      1                      2                      3
                      A                      A                      A
 Frequencies --     63.3997                93.0758               115.4104
 Red. masses --      7.6253                 3.7801                 5.7336
 Frc consts  --      0.0181                 0.0193                 0.0450
 IR Inten    --      0.5915                 5.0089                 0.4367

                      4                      5                      6
                      A                      A                      A
 Frequencies --    169.5671               193.8787               260.7039
 Red. masses --      4.7294                 1.9875                 1.5950
 Frc consts  --      0.0801                 0.0440                 0.0639
 IR Inten    --      4.2705                 1.6138                 2.4024

                      7                      8                      9
                      A                      A                      A
 Frequencies --    263.5138               342.3215               342.6786
 Red. masses --      4.2068                 3.4227                 3.9713
 Frc consts  --      0.1721                 0.2363                 0.2748
 IR Inten    --      2.7178                29.0945                 0.3789

                     10                     11                     12
                      A                      A                      A
 Frequencies --    364.7132               398.0428               449.0133
 Red. masses --      8.7199                 1.2817                 1.2090
 Frc consts  --      0.6834                 0.1196                 0.1436
 IR Inten    --      6.3670               163.6999               157.7411

                     13                     14                     15
                      A                      A                      A
 Frequencies --    469.9763               498.6630               541.5108
 Red. masses --      2.9809                 5.6880                 5.0357
 Frc consts  --      0.3879                 0.8333                 0.8700
 IR Inten    --     64.4593                 1.9740                15.3426

                     16                     17                     18
                      A                      A                      A
 Frequencies --    569.1032               579.0095               656.2928
 Red. masses --      4.9248                 4.2013                 7.2919
 Frc consts  --      0.9398                 0.8299                 1.8505
 IR Inten    --      0.5469                 3.4655                 5.4172

                     19                     20                     21
                      A                      A                      A
 Frequencies --    713.8240               750.2771               805.8172
 Red. masses --      5.0540                 6.2625                 6.9946
 Frc consts  --      1.5173                 2.0770                 2.6760
 IR Inten    --      0.9498                29.7152                41.9230

                     22                     23                     24
                      A                      A                      A
 Frequencies --    826.7065               831.4381               894.4562
 Red. masses --      1.9853                 2.8752                 1.4014
 Frc consts  --      0.7994                 1.1710                 0.6606
 IR Inten    --      7.3692                 7.5371                22.3444

                     25                     26                     27
                      A                      A                      A
 Frequencies --    949.0975               955.9449              1060.3475
 Red. masses --      5.2488                 1.2983                 2.5731
 Frc consts  --      2.7857                 0.6990                 1.7045
 IR Inten    --      3.8525                 1.0567                21.8992

                     28                     29                     30
                      A                      A                      A
 Frequencies --   1085.3934              1125.5507              1170.6281
 Red. masses --      1.9515                 2.2382                 1.2152
 Frc consts  --      1.3545                 1.6706                 0.9811
 IR Inten    --     24.3074               106.1690                11.9737

                     31                     32                     33
                      A                      A                      A
 Frequencies --   1178.6646              1216.7284              1271.3913
 Red. masses --      1.2715                 1.4284                 5.2003
 Frc consts  --      1.0408                 1.2459                 4.9527
 IR Inten    --      0.8286                 2.2148               236.8784

                     34                     35                     36
                      A                      A                      A
 Frequencies --   1299.2005              1351.0840              1384.5704
 Red. masses --      1.5076                 2.9727                10.7279
 Frc consts  --      1.4993                 3.1972                12.1170
 IR Inten    --      4.7890               267.5888               509.5344

                     37                     38                     39
                      A                      A                      A
 Frequencies --   1421.5608              1471.7829              1496.2909
 Red. masses --      5.1604                 2.3628                 1.5526
 Frc consts  --      6.1441                 3.0156                 2.0481
 IR Inten    --      7.4208                10.1449                 1.9101

                     40                     41                     42
                      A                      A                      A
 Frequencies --   1503.0949              1518.9540              1560.0914
 Red. masses --      1.0455                 1.0686                 3.2018
 Frc consts  --      1.3917                 1.4526                 4.5913
 IR Inten    --      6.6204                34.1520               118.3360

                     43                     44                     45
                      A                      A                      A
 Frequencies --   1605.1065              1631.0746              1658.7091
 Red. masses --     10.7704                 1.8433                 7.4333
 Frc consts  --     16.3490                 2.8892                12.0496
 IR Inten    --    231.2907                15.0769                47.7542

                     46                     47                     48
                      A                      A                      A
 Frequencies --   1670.7244              3026.4540              3092.6763
 Red. masses --      2.4689                 1.0338                 1.1067
 Frc consts  --      4.0603                 5.5791                 6.2365
 IR Inten    --    230.6106                42.4988                32.3958

                     49                     50                     51
                      A                      A                      A
 Frequencies --   3156.9918              3190.8686              3249.7208
 Red. masses --      1.1014                 1.0903                 1.0927
 Frc consts  --      6.4677                 6.5403                 6.7987
 IR Inten    --     19.6908                13.0221                 1.2076

                     52                     53                     54
                      A                      A                      A
 Frequencies --   3263.7919              3600.5037              3723.2929
 Red. masses --      1.0903                 1.0458                 1.1022
 Frc consts  --      6.8427                 7.9879                 9.0028
 IR Inten    --      4.0572                77.0855                35.8223

 - Thermochemistry -
 -------------------
 Temperature   298.150 Kelvin.  Pressure   1.00000 Atm.
 Atom     1 has atomic number  6 and mass  12.00000

 Molecular mass:   168.05349 amu.
 Principal axes and moments of inertia in atomic units:
                           1         2         3
     Eigenvalues --  1142.133192701.080483830.79559
           X            0.99977  -0.02122   0.00175
           Y            0.02121   0.99977   0.00206
           Z           -0.00179  -0.00202   1.00000
 This molecule is an asymmetric top.
 Rotational symmetry number  1.
 Warning -- assumption of classical behavior for rotation
           may cause significant error
 Rotational temperatures (Kelvin)      0.07584     0.03207     0.02261
 Rotational constants (GHZ):           1.58015     0.66816     0.47111
 Zero-point vibrational energy     401249.5 (Joules/Mol)
                                   95.90094 (Kcal/Mol)
 Warning -- explicit consideration of  17 degrees of freedom as
           vibrations may cause significant error
 Vibrational temperatures:     91.22   133.92   166.05   243.97   278.95
          (Kelvin)            375.09   379.14   492.52   493.04   524.74
                              572.69   646.03   676.19   717.46   779.11
                              818.81   833.06   944.26  1027.03  1079.48
                             1159.39  1189.44  1196.25  1286.92  1365.54
                             1375.39  1525.60  1561.64  1619.41  1684.27
                             1695.83  1750.60  1829.25  1869.26  1943.91
                             1992.09  2045.31  2117.56  2152.83  2162.62
                             2185.43  2244.62  2309.39  2346.75  2386.51
                             2403.80  4354.39  4449.67  4542.20  4590.94
                             4675.62  4695.86  5180.32  5356.98

 Zero-point correction=                           0.152828 (Hartree/Particle)
 Thermal correction to Energy=                    0.163626
 Thermal correction to Enthalpy=                  0.164570
 Thermal correction to Gibbs Free Energy=         0.116223
 Sum of electronic and zero-point Energies=           -606.495253
 Sum of electronic and thermal Energies=              -606.484455
 Sum of electronic and thermal Enthalpies=            -606.483511
 Sum of electronic and thermal Free Energies=         -606.531858

                     E (Thermal)             CV                S
                      KCal/Mol        Cal/Mol-Kelvin    Cal/Mol-Kelvin
 Total                  102.677             40.876            101.754
 Electronic               0.000              0.000              0.000
 Translational            0.889              2.981             41.265
 Rotational               0.889              2.981             30.847
 Vibrational            100.899             34.914             29.641
 Vibration     1          0.597              1.972              4.348
 Vibration     2          0.602              1.954              3.594
 Vibration     3          0.608              1.937              3.176
 Vibration     4          0.625              1.880              2.440
 Vibration     5          0.635              1.848              2.190
 Vibration     6          0.669              1.745              1.657
 Vibration     7          0.670              1.740              1.638
 Vibration     8          0.721              1.591              1.201
 Vibration     9          0.722              1.590              1.200
 Vibration    10          0.738              1.545              1.102
 Vibration    11          0.764              1.474              0.970
 Vibration    12          0.808              1.363              0.799
 Vibration    13          0.827              1.317              0.738
 Vibration    14          0.854              1.253              0.661
 Vibration    15          0.897              1.158              0.562
 Vibration    16          0.925              1.098              0.506
 Vibration    17          0.936              1.077              0.487

 Normal termination of Gaussian 09 at Mon Aug 23 16:06:56 2021.
