 Gaussian 09, Revision E.01,
 Gaussian 09:  ES64L-G09RevE.01 30-Nov-2015

 -------------------------
 #P OPT Freq B3LYP/6-31G**
 -------------------------

 --------
 CIWMEA10
 --------
 Symbolic Z-matrix:
 Charge =  0 Multiplicity = 1

 SCF Done:  E(RB3LYP) =  -786.592130698     A.U. after   17 cycles
 SCF Done:  E(RB3LYP) =  -786.683292869     A.U. after   14 cycles
 SCF Done:  E(RB3LYP) =  -786.700820444     A.U. after   17 cycles
 SCF Done:  E(RB3LYP) =  -786.699278208     A.U. after   17 cycles
 SCF Done:  E(RB3LYP) =  -786.708263637     A.U. after   13 cycles
 SCF Done:  E(RB3LYP) =  -786.700625274     A.U. after   16 cycles
 SCF Done:  E(RB3LYP) =  -786.712738575     A.U. after   11 cycles
 SCF Done:  E(RB3LYP) =  -786.702564493     A.U. after   16 cycles
 SCF Done:  E(RB3LYP) =  -786.712986932     A.U. after   11 cycles
 SCF Done:  E(RB3LYP) =  -786.712450480     A.U. after   15 cycles
 SCF Done:  E(RB3LYP) =  -786.713239007     A.U. after   10 cycles
 SCF Done:  E(RB3LYP) =  -786.713415669     A.U. after   14 cycles
 SCF Done:  E(RB3LYP) =  -786.713590719     A.U. after   13 cycles
 SCF Done:  E(RB3LYP) =  -786.713617447     A.U. after   11 cycles
 SCF Done:  E(RB3LYP) =  -786.713629543     A.U. after   12 cycles
 SCF Done:  E(RB3LYP) =  -786.713631213     A.U. after   10 cycles
 SCF Done:  E(RB3LYP) =  -786.713631891     A.U. after    9 cycles
 Optimization completed.
    -- Stationary point found.
 Normal termination of Gaussian 09 at Fri Aug 20 15:58:10 2021.

 ----------------------------------------------------------------------
 #P Geom=AllCheck Guess=TCheck SCRF=Check GenChk RB3LYP/6-31G(d,p) Freq
 ----------------------------------------------------------------------

 Structure from the checkpoint file:  "/public/home/users/caep010/.cache/gau_scr/Gau-168507.chk"
 --------
 CIWMEA10
 --------
 Charge =  0 Multiplicity = 1

                         Standard orientation:
 ---------------------------------------------------------------------
 Center     Atomic      Atomic             Coordinates (Angstroms)
 Number     Number       Type             X           Y           Z
 ---------------------------------------------------------------------
      1          7           0        1.325973   -0.678039    0.000074
      2          6           0        0.412509   -0.246299   -1.082841
      3          6           0        0.412546   -0.245819    1.082941
      4          1           0        0.176972   -1.014818    1.817915
      5          6           0       -0.662602   -0.022431   -0.000011
      6          7           0       -1.796096   -1.025967    0.000525
      7          8           0       -2.207970   -1.379726   -1.094717
      8          8           0       -2.209006   -1.376818    1.096336
      9          7           0        2.634707   -0.188047   -0.000076
     10          8           0        3.144210   -0.024054   -1.101547
     11          8           0        3.144235   -0.023375    1.101296
     12          7           0       -1.288795    1.365786   -0.000457
     13          8           0       -2.504627    1.447421   -0.002531
     14          1           0        0.733778    0.678295   -1.567082
     15          1           0        0.733730    0.679108    1.566654
     16          1           0        0.176916   -1.015538   -1.817545
     17          8           0       -0.482671    2.287067    0.001046
 ---------------------------------------------------------------------

 SCF Done:  E(RB3LYP) =  -786.713631891     A.U. after    1 cycles

 The electronic state is 1-A.
 Alpha  occ. eigenvalues --  -19.24260 -19.24058 -19.23388 -19.23386 -19.20995
 Alpha  occ. eigenvalues --  -19.20993 -14.62980 -14.62596 -14.62047 -14.44625
 Alpha  occ. eigenvalues --  -10.35509 -10.29702 -10.29700  -1.28983  -1.27330
 Alpha  occ. eigenvalues --   -1.27067  -1.11744  -1.10808  -1.09187  -1.04202
 Alpha  occ. eigenvalues --   -0.90614  -0.79777  -0.77033  -0.74937  -0.63881
 Alpha  occ. eigenvalues --   -0.61784  -0.60962  -0.60142  -0.59425  -0.57992
 Alpha  occ. eigenvalues --   -0.57467  -0.55714  -0.55560  -0.54622  -0.53337
 Alpha  occ. eigenvalues --   -0.48998  -0.48880  -0.48098  -0.42504  -0.37250
 Alpha  occ. eigenvalues --   -0.36780  -0.35933  -0.35428  -0.34463  -0.34308
 Alpha  occ. eigenvalues --   -0.34219  -0.33745  -0.32013  -0.31837
 Alpha virt. eigenvalues --   -0.12065  -0.11916  -0.07848   0.01814   0.03734
 Alpha virt. eigenvalues --    0.06558   0.09166   0.10819   0.11719   0.13504
 Alpha virt. eigenvalues --    0.14036   0.14065   0.18740   0.21922   0.22585

 Mulliken charges:
               1
     1  N   -0.312379
     2  C    0.005154
     3  C    0.005101
     4  H    0.184782
     5  C    0.175168
     6  N    0.444853
     7  O   -0.342247
     8  O   -0.342305
     9  N    0.625866
    10  O   -0.387444
    11  O   -0.387442
    12  N    0.474824
    13  O   -0.336943
    14  H    0.180363
    15  H    0.180432
    16  H    0.184820
    17  O   -0.352603
 Sum of Mulliken charges =  -0.00000

 Dipole moment (field-independent basis, Debye):
    X=             -0.2801    Y=             -0.4833    Z=             -0.0005  Tot=              0.5586
 Quadrupole moment (field-independent basis, Debye-Ang):
   XX=            -93.2147   YY=            -76.4117   ZZ=            -70.0959
   XY=             -2.0505   XZ=             -0.0010   YZ=             -0.0030

  Exact polarizability:  95.762   7.162  61.140   0.010   0.021  76.538
 Approx polarizability: 154.057  24.025  97.135   0.045   0.095 164.421

                      1                      2                      3
                      A                      A                      A
 Frequencies --     26.5535                43.3894                78.6254
 Red. masses --     15.1597                 9.0027                14.9644
 Frc consts  --      0.0063                 0.0100                 0.0545
 IR Inten    --      0.0335                 4.9986                 0.1546

                      4                      5                      6
                      A                      A                      A
 Frequencies --    100.8023               156.5628               181.5082
 Red. masses --     15.8550                10.4524                13.8070
 Frc consts  --      0.0949                 0.1510                 0.2680
 IR Inten    --      0.0160                 9.4198                 2.9581

                      7                      8                      9
                      A                      A                      A
 Frequencies --    233.4293               270.7928               299.6531
 Red. masses --      9.0525                 3.3290                 4.5910
 Frc consts  --      0.2906                 0.1438                 0.2429
 IR Inten    --      7.6505                 6.5579                 0.0174

                     10                     11                     12
                      A                      A                      A
 Frequencies --    343.3509               370.4252               415.8154
 Red. masses --      7.6397                 2.5252                15.1310
 Frc consts  --      0.5306                 0.2042                 1.5414
 IR Inten    --      0.6892                16.2973                 0.3513

                     13                     14                     15
                      A                      A                      A
 Frequencies --    521.7802               545.1017               609.8407
 Red. masses --      6.5175                 7.0062                 5.8919
 Frc consts  --      1.0455                 1.2266                 1.2910
 IR Inten    --      5.3994                14.0475                 1.3499

                     16                     17                     18
                      A                      A                      A
 Frequencies --    664.3434               719.5559               721.5931
 Red. masses --      4.8671                 7.3419                 4.7334
 Frc consts  --      1.2656                 2.2397                 1.4521
 IR Inten    --     14.4222                 1.9650                 1.4695

                     19                     20                     21
                      A                      A                      A
 Frequencies --    772.2862               822.8839               850.9670
 Red. masses --     11.5541                 8.0029                10.0201
 Frc consts  --      4.0602                 3.1928                 4.2751
 IR Inten    --     25.0579                 2.9634                45.5838

                     22                     23                     24
                      A                      A                      A
 Frequencies --    869.3568               918.3180               948.2709
 Red. masses --      5.1891                 6.0173                 1.4645
 Frc consts  --      2.3107                 2.9898                 0.7759
 IR Inten    --     42.3365                16.6389                 0.4071

                     25                     26                     27
                      A                      A                      A
 Frequencies --   1062.8668              1109.7457              1129.6474
 Red. masses --      4.1063                 6.3797                 1.1377
 Frc consts  --      2.7331                 4.6291                 0.8554
 IR Inten    --     49.1931                 4.7611                 0.0000

                     28                     29                     30
                      A                      A                      A
 Frequencies --   1145.8836              1183.3259              1193.3369
 Red. masses --      1.9074                 5.0525                 6.2940
 Frc consts  --      1.4756                 4.1684                 5.2808
 IR Inten    --      6.9232                45.2079                 6.7972

                     31                     32                     33
                      A                      A                      A
 Frequencies --   1227.4288              1276.1529              1305.3556
 Red. masses --      1.7708                 1.3607                 1.9234
 Frc consts  --      1.5718                 1.3056                 1.9310
 IR Inten    --     61.9821                 0.8902                85.3147

                     34                     35                     36
                      A                      A                      A
 Frequencies --   1376.1503              1382.6025              1426.9627
 Red. masses --      6.6814                10.0176                 9.0232
 Frc consts  --      7.4550                11.2826                10.8253
 IR Inten    --    311.7203               113.0393                74.4111

                     37                     38                     39
                      A                      A                      A
 Frequencies --   1491.6846              1512.0884              1682.5844
 Red. masses --      1.0741                 1.1376                14.3156
 Frc consts  --      1.4082                 1.5324                23.8788
 IR Inten    --     21.3811                 7.2029               268.5174

                     40                     41                     42
                      A                      A                      A
 Frequencies --   1690.4419              1693.1166              3105.9738
 Red. masses --     14.0817                13.9514                 1.0569
 Frc consts  --     23.7085                23.5636                 6.0071
 IR Inten    --    192.2731               217.6094                 0.3607

                     43                     44                     45
                      A                      A                      A
 Frequencies --   3110.9119              3181.6509              3181.8664
 Red. masses --      1.0598                 1.1097                 1.1120
 Frc consts  --      6.0430                 6.6183                 6.6333
 IR Inten    --      3.5831                 0.7208                 0.3149

 - Thermochemistry -
 -------------------
 Temperature   298.150 Kelvin.  Pressure   1.00000 Atm.
 Atom     1 has atomic number  7 and mass  14.00307

 Molecular mass:   192.01308 amu.
 Principal axes and moments of inertia in atomic units:
                           1         2         3
     Eigenvalues --  1239.767553192.691963597.16094
           X            1.00000   0.00116  -0.00000
           Y           -0.00116   1.00000   0.00002
           Z            0.00000  -0.00002   1.00000
 This molecule is an asymmetric top.
 Rotational symmetry number  1.
 Warning -- assumption of classical behavior for rotation
           may cause significant error
 Rotational temperatures (Kelvin)      0.06986     0.02713     0.02408
 Rotational constants (GHZ):           1.45571     0.56527     0.50171
 Zero-point vibrational energy     280853.2 (Joules/Mol)
                                   67.12552 (Kcal/Mol)
 Warning -- explicit consideration of  15 degrees of freedom as
           vibrations may cause significant error
 Vibrational temperatures:     38.20    62.43   113.12   145.03   225.26
          (Kelvin)            261.15   335.85   389.61   431.13   494.00
                              532.96   598.26   750.72   784.28   877.42
                              955.84  1035.28  1038.21  1111.15  1183.94
                             1224.35  1250.81  1321.25  1364.35  1529.23
                             1596.67  1625.31  1648.67  1702.54  1716.94
                             1765.99  1836.10  1878.11  1979.97  1989.25
                             2053.08  2146.20  2175.56  2420.86  2432.17
                             2436.01  4468.80  4475.90  4577.68  4577.99

 Zero-point correction=                           0.106971 (Hartree/Particle)
 Thermal correction to Energy=                    0.118142
 Thermal correction to Enthalpy=                  0.119086
 Thermal correction to Gibbs Free Energy=         0.067680
 Sum of electronic and zero-point Energies=           -786.606661
 Sum of electronic and thermal Energies=              -786.595490
 Sum of electronic and thermal Enthalpies=            -786.594546
 Sum of electronic and thermal Free Energies=         -786.645952

                     E (Thermal)             CV                S
                      KCal/Mol        Cal/Mol-Kelvin    Cal/Mol-Kelvin
 Total                   74.135             39.117            108.192
 Electronic               0.000              0.000              0.000
 Translational            0.889              2.981             41.663
 Rotational               0.889              2.981             31.033
 Vibrational             72.358             33.156             35.497
 Vibration     1          0.593              1.984              6.072
 Vibration     2          0.595              1.980              5.098
 Vibration     3          0.600              1.964              3.925
 Vibration     4          0.604              1.948              3.439
 Vibration     5          0.620              1.895              2.591
 Vibration     6          0.630              1.865              2.313
 Vibration     7          0.654              1.790              1.852
 Vibration     8          0.674              1.727              1.591
 Vibration     9          0.692              1.674              1.419
 Vibration    10          0.722              1.589              1.197
 Vibration    11          0.742              1.533              1.078
 Vibration    12          0.779              1.436              0.906
 Vibration    13          0.877              1.202              0.606
 Vibration    14          0.900              1.150              0.554
 Vibration    15          0.969              1.011              0.433

 Normal termination of Gaussian 09 at Fri Aug 20 15:58:39 2021.
