 Gaussian 09, Revision E.01,
 Gaussian 09:  ES64L-G09RevE.01 30-Nov-2015

 -------------------------
 #P OPT Freq B3LYP/6-31G**
 -------------------------

 ------
 KASBAH
 ------
 Symbolic Z-matrix:
 Charge =  0 Multiplicity = 1

 SCF Done:  E(RB3LYP) =  -623.519322676     A.U. after   16 cycles
 SCF Done:  E(RB3LYP) =  -623.594622286     A.U. after   13 cycles
 SCF Done:  E(RB3LYP) =  -623.619164556     A.U. after   15 cycles
 SCF Done:  E(RB3LYP) =  -623.605857538     A.U. after   17 cycles
 SCF Done:  E(RB3LYP) =  -623.620338415     A.U. after   12 cycles
 SCF Done:  E(RB3LYP) =  -623.621262714     A.U. after   13 cycles
 SCF Done:  E(RB3LYP) =  -623.621519508     A.U. after   13 cycles
 SCF Done:  E(RB3LYP) =  -623.621605898     A.U. after   13 cycles
 SCF Done:  E(RB3LYP) =  -623.621637450     A.U. after   12 cycles
 SCF Done:  E(RB3LYP) =  -623.621675100     A.U. after   12 cycles
 SCF Done:  E(RB3LYP) =  -623.621595783     A.U. after   14 cycles
 SCF Done:  E(RB3LYP) =  -623.623101446     A.U. after   10 cycles
 SCF Done:  E(RB3LYP) =  -623.623424678     A.U. after   13 cycles
 SCF Done:  E(RB3LYP) =  -623.623559921     A.U. after   13 cycles
 SCF Done:  E(RB3LYP) =  -623.623629556     A.U. after   13 cycles
 SCF Done:  E(RB3LYP) =  -623.623654412     A.U. after   12 cycles
 SCF Done:  E(RB3LYP) =  -623.623656948     A.U. after   13 cycles
 SCF Done:  E(RB3LYP) =  -623.623657502     A.U. after    9 cycles
 SCF Done:  E(RB3LYP) =  -623.623657619     A.U. after    7 cycles
 Optimization completed.
    -- Stationary point found.
 Normal termination of Gaussian 09 at Fri Aug 20 15:57:44 2021.

 ----------------------------------------------------------------------
 #P Geom=AllCheck Guess=TCheck SCRF=Check GenChk RB3LYP/6-31G(d,p) Freq
 ----------------------------------------------------------------------

 Structure from the checkpoint file:  "/public/home/users/caep010/.cache/gau_scr/Gau-209948.chk"
 ------
 KASBAH
 ------
 Charge =  0 Multiplicity = 1

                         Standard orientation:
 ---------------------------------------------------------------------
 Center     Atomic      Atomic             Coordinates (Angstroms)
 Number     Number       Type             X           Y           Z
 ---------------------------------------------------------------------
      1          6           0       -0.949980   -0.002323   -0.639291
      2          6           0       -1.657886    1.180615   -0.390289
      3          6           0       -2.884081    1.142005    0.272676
      4          6           0       -3.414296   -0.080378    0.688689
      5          6           0       -2.715742   -1.263286    0.440816
      6          6           0        0.386711    0.049426   -1.342091
      7          7           0        1.541350    0.253921   -0.425330
      8          7           0        2.131045   -0.874141    0.220759
      9          6           0       -1.487848   -1.225934   -0.219505
     10          1           0       -0.942456   -2.145481   -0.408440
     11          1           0       -3.425429    2.064191    0.460336
     12          6           0        1.814563    1.456379    0.105579
     13          8           0        1.776753   -1.966714   -0.194111
     14          1           0       -3.127064   -2.216098    0.760005
     15          7           0        2.008415    2.541370    0.483771
     16          8           0        2.943451   -0.623917    1.091303
     17          1           0       -4.370871   -0.111224    1.201677
     18          1           0       -1.249018    2.133786   -0.715337
     19          1           0        0.437175    0.883695   -2.045643
     20          1           0        0.601709   -0.870904   -1.884023
 ---------------------------------------------------------------------

 SCF Done:  E(RB3LYP) =  -623.623657619     A.U. after    1 cycles

 The electronic state is 1-A.
 Alpha  occ. eigenvalues --  -19.21742 -19.21606 -14.63591 -14.46751 -14.35808
 Alpha  occ. eigenvalues --  -10.28077 -10.27338 -10.22127 -10.21117 -10.20969
 Alpha  occ. eigenvalues --  -10.20888 -10.20807 -10.20771  -1.27882  -1.10206
 Alpha  occ. eigenvalues --   -1.02581  -0.91692  -0.87602  -0.80703  -0.76325
 Alpha  occ. eigenvalues --   -0.74857  -0.72315  -0.62590  -0.61836  -0.59752
 Alpha  occ. eigenvalues --   -0.58482  -0.56370  -0.53350  -0.51931  -0.48719
 Alpha  occ. eigenvalues --   -0.48505  -0.44947  -0.43915  -0.42854  -0.40812
 Alpha  occ. eigenvalues --   -0.38709  -0.38082  -0.37361  -0.36510  -0.36003
 Alpha  occ. eigenvalues --   -0.35098  -0.34330  -0.32195  -0.29533  -0.26907
 Alpha  occ. eigenvalues --   -0.26851
 Alpha virt. eigenvalues --   -0.08405  -0.03170  -0.02229  -0.01032   0.05635
 Alpha virt. eigenvalues --    0.08117   0.08248   0.09208   0.11399   0.13542
 Alpha virt. eigenvalues --    0.14154   0.15217   0.16924   0.17799   0.19418

 Mulliken charges:
               1
     1  C    0.116918
     2  C   -0.111939
     3  C   -0.084037
     4  C   -0.078925
     5  C   -0.084125
     6  C   -0.157003
     7  N   -0.392416
     8  N    0.673633
     9  C   -0.116658
    10  H    0.109668
    11  H    0.099193
    12  C    0.591334
    13  O   -0.393856
    14  H    0.098310
    15  N   -0.417680
    16  O   -0.370887
    17  H    0.097070
    18  H    0.100849
    19  H    0.152286
    20  H    0.168265
 Sum of Mulliken charges =   0.00000

 Dipole moment (field-independent basis, Debye):
    X=             -3.7017    Y=             -1.0517    Z=             -2.4175  Tot=              4.5445
 Quadrupole moment (field-independent basis, Debye-Ang):
   XX=            -75.3361   YY=            -79.8669   ZZ=            -72.3462
   XY=             -3.0370   XZ=             -7.8759   YZ=             -2.8771

  Exact polarizability: 116.098   2.139 124.057 -10.201   0.919  65.950
 Approx polarizability: 167.393   6.788 237.004 -14.038  11.219 114.484

                      1                      2                      3
                      A                      A                      A
 Frequencies --     16.8856                49.2277                57.9272
 Red. masses --      5.2142                 7.8716                 6.4524
 Frc consts  --      0.0009                 0.0112                 0.0128
 IR Inten    --      0.0897                 1.7613                 0.3160

                      4                      5                      6
                      A                      A                      A
 Frequencies --    106.9513               158.2457               172.3283
 Red. masses --     13.2879                 6.2438                 9.9995
 Frc consts  --      0.0896                 0.0921                 0.1750
 IR Inten    --      1.7540                 0.9901                 4.3520

                      7                      8                      9
                      A                      A                      A
 Frequencies --    233.7264               310.6456               383.2156
 Red. masses --      6.1830                 6.1918                 2.1778
 Frc consts  --      0.1990                 0.3520                 0.1884
 IR Inten    --      0.6852                 0.8447                 2.6213

                     10                     11                     12
                      A                      A                      A
 Frequencies --    416.8125               463.4942               486.8124
 Red. masses --      2.9363                 4.8833                 6.9086
 Frc consts  --      0.3006                 0.6181                 0.9646
 IR Inten    --      0.0179                 0.6742                 7.0766

                     13                     14                     15
                      A                      A                      A
 Frequencies --    499.5339               551.9693               584.6257
 Red. masses --      6.3193                10.4178                 5.7109
 Frc consts  --      0.9291                 1.8701                 1.1500
 IR Inten    --      3.0687                 2.0468                16.0413

                     16                     17                     18
                      A                      A                      A
 Frequencies --    634.7387               678.8119               715.7000
 Red. masses --      6.2048                 4.9290                 1.6249
 Frc consts  --      1.4729                 1.3382                 0.4904
 IR Inten    --      0.0248                36.1425                50.4189

                     19                     20                     21
                      A                      A                      A
 Frequencies --    743.4480               779.8530               829.2443
 Red. masses --     14.0371                 2.5760                 3.6471
 Frc consts  --      4.5712                 0.9230                 1.4776
 IR Inten    --     15.6135                 4.6257                 4.0100

                     22                     23                     24
                      A                      A                      A
 Frequencies --    843.6266               862.0726               908.3490
 Red. masses --      7.1784                 1.2502                 2.5761
 Frc consts  --      3.0101                 0.5474                 1.2523
 IR Inten    --     21.6999                 0.3178                83.5899

                     25                     26                     27
                      A                      A                      A
 Frequencies --    940.2380               978.6785              1007.4627
 Red. masses --      1.4318                 1.3606                 1.2850
 Frc consts  --      0.7458                 0.7678                 0.7684
 IR Inten    --      2.8818                 0.2970                 0.1504

                     28                     29                     30
                      A                      A                      A
 Frequencies --   1017.7174              1027.2842              1056.9149
 Red. masses --      5.9021                 3.4058                 2.2332
 Frc consts  --      3.6017                 2.1177                 1.4698
 IR Inten    --      5.1244               106.1601                 0.8574

                     31                     32                     33
                      A                      A                      A
 Frequencies --   1118.6741              1190.7391              1211.2891
 Red. masses --      1.5631                 1.1053                 1.3695
 Frc consts  --      1.1525                 0.9233                 1.1839
 IR Inten    --      4.5410                 0.0392                 6.4970

                     34                     35                     36
                      A                      A                      A
 Frequencies --   1214.1993              1229.9577              1330.3753
 Red. masses --      1.7713                 2.9674                 5.1222
 Frc consts  --      1.5386                 2.6449                 5.3414
 IR Inten    --      4.3202                19.1113               251.6440

                     37                     38                     39
                      A                      A                      A
 Frequencies --   1335.8851              1364.9719              1375.2641
 Red. masses --      2.9393                 2.6107                 1.3661
 Frc consts  --      3.0905                 2.8658                 1.5223
 IR Inten    --     50.3220                 4.0910                10.9813

                     40                     41                     42
                      A                      A                      A
 Frequencies --   1389.3429              1481.3414              1499.5415
 Red. masses --      1.5168                 1.1137                 2.1978
 Frc consts  --      1.7250                 1.4399                 2.9118
 IR Inten    --     26.7509                27.7827                 6.8549

                     43                     44                     45
                      A                      A                      A
 Frequencies --   1541.4299              1643.3619              1661.8463
 Red. masses --      2.2273                 5.5612                 5.5538
 Frc consts  --      3.1180                 8.8489                 9.0370
 IR Inten    --      5.3676                 1.7635                 0.3376

                     46                     47                     48
                      A                      A                      A
 Frequencies --   1712.3079              2348.9241              3100.6659
 Red. masses --     13.9315                12.6479                 1.0644
 Frc consts  --     24.0664                41.1154                 6.0290
 IR Inten    --    274.9369                53.8092                 7.6533

                     49                     50                     51
                      A                      A                      A
 Frequencies --   3168.3959              3181.2261              3188.0221
 Red. masses --      1.1023                 1.0871                 1.0875
 Frc consts  --      6.5198                 6.4822                 6.5119
 IR Inten    --      0.0481                 3.2262                 0.8186

                     52                     53                     54
                      A                      A                      A
 Frequencies --   3197.5919              3205.9374              3213.1559
 Red. masses --      1.0909                 1.0946                 1.0985
 Frc consts  --      6.5718                 6.6286                 6.6821
 IR Inten    --     11.2211                16.7007                10.2187

 - Thermochemistry -
 -------------------
 Temperature   298.150 Kelvin.  Pressure   1.00000 Atm.
 Atom     1 has atomic number  6 and mass  12.00000

 Molecular mass:   177.05383 amu.
 Principal axes and moments of inertia in atomic units:
                           1         2         3
     Eigenvalues --  1285.503533214.866653967.05476
           X            0.99992  -0.00098  -0.01290
           Y            0.00088   0.99997  -0.00791
           Z            0.01291   0.00790   0.99989
 This molecule is an asymmetric top.
 Rotational symmetry number  1.
 Warning -- assumption of classical behavior for rotation
           may cause significant error
 Rotational temperatures (Kelvin)      0.06738     0.02694     0.02183
 Rotational constants (GHZ):           1.40392     0.56137     0.45493
 Zero-point vibrational energy     385323.1 (Joules/Mol)
                                   92.09443 (Kcal/Mol)
 Warning -- explicit consideration of  15 degrees of freedom as
           vibrations may cause significant error
 Vibrational temperatures:     24.29    70.83    83.34   153.88   227.68
          (Kelvin)            247.94   336.28   446.95   551.36   599.70
                              666.86   700.41   718.72   794.16   841.14
                              913.25   976.66  1029.73  1069.65  1122.03
                             1193.10  1213.79  1240.33  1306.91  1352.79
                             1408.10  1449.51  1464.27  1478.03  1520.66
                             1609.52  1713.21  1742.77  1746.96  1769.63
                             1914.11  1922.04  1963.89  1978.70  1998.95
                             2131.32  2157.50  2217.77  2364.43  2391.02
                             2463.63  3379.57  4461.16  4558.61  4577.07
                             4586.85  4600.62  4612.62  4623.01

 Zero-point correction=                           0.146762 (Hartree/Particle)
 Thermal correction to Energy=                    0.157890
 Thermal correction to Enthalpy=                  0.158834
 Thermal correction to Gibbs Free Energy=         0.107240
 Sum of electronic and zero-point Energies=           -623.476896
 Sum of electronic and thermal Energies=              -623.465767
 Sum of electronic and thermal Enthalpies=            -623.464823
 Sum of electronic and thermal Free Energies=         -623.516418

                     E (Thermal)             CV                S
                      KCal/Mol        Cal/Mol-Kelvin    Cal/Mol-Kelvin
 Total                   99.078             40.600            108.590
 Electronic               0.000              0.000              0.000
 Translational            0.889              2.981             41.421
 Rotational               0.889              2.981             31.173
 Vibrational             97.300             34.638             35.997
 Vibration     1          0.593              1.986              6.970
 Vibration     2          0.595              1.978              4.848
 Vibration     3          0.596              1.974              4.527
 Vibration     4          0.606              1.944              3.324
 Vibration     5          0.621              1.893              2.571
 Vibration     6          0.626              1.877              2.410
 Vibration     7          0.654              1.789              1.850
 Vibration     8          0.699              1.653              1.359
 Vibration     9          0.752              1.506              1.026
 Vibration    10          0.780              1.434              0.903
 Vibration    11          0.821              1.331              0.756
 Vibration    12          0.843              1.279              0.692
 Vibration    13          0.855              1.251              0.659
 Vibration    14          0.907              1.135              0.540
 Vibration    15          0.942              1.065              0.477

 Normal termination of Gaussian 09 at Fri Aug 20 15:58:17 2021.
