 Gaussian 09, Revision E.01,
 Gaussian 09:  ES64L-G09RevE.01 30-Nov-2015

 -------------------------
 #P OPT Freq B3LYP/6-31G**
 -------------------------

 ------
 YALQEK
 ------
 Symbolic Z-matrix:
 Charge =  0 Multiplicity = 1

 SCF Done:  E(RB3LYP) =  -541.316967101     A.U. after   15 cycles
 SCF Done:  E(RB3LYP) =  -541.392474081     A.U. after   14 cycles
 SCF Done:  E(RB3LYP) =  -541.411063790     A.U. after   15 cycles
 SCF Done:  E(RB3LYP) =  -541.411133110     A.U. after   15 cycles
 SCF Done:  E(RB3LYP) =  -541.410474275     A.U. after   15 cycles
 SCF Done:  E(RB3LYP) =  -541.411498393     A.U. after   11 cycles
 SCF Done:  E(RB3LYP) =  -541.411734728     A.U. after   13 cycles
 SCF Done:  E(RB3LYP) =  -541.411747406     A.U. after   11 cycles
 SCF Done:  E(RB3LYP) =  -541.411751804     A.U. after   10 cycles
 SCF Done:  E(RB3LYP) =  -541.411752522     A.U. after    8 cycles
 SCF Done:  E(RB3LYP) =  -541.411979752     A.U. after   10 cycles
 SCF Done:  E(RB3LYP) =  -541.411980890     A.U. after    9 cycles
 SCF Done:  E(RB3LYP) =  -541.411981033     A.U. after    9 cycles
 SCF Done:  E(RB3LYP) =  -541.411981134     A.U. after    8 cycles
 SCF Done:  E(RB3LYP) =  -541.409792750     A.U. after   13 cycles
 SCF Done:  E(RB3LYP) =  -541.411981134     A.U. after    8 cycles
 SCF Done:  E(RB3LYP) =  -541.411979064     A.U. after   10 cycles
 SCF Done:  E(RB3LYP) =  -541.411980087     A.U. after   10 cycles
 SCF Done:  E(RB3LYP) =  -541.411981142     A.U. after    9 cycles
 Optimization completed.
    -- Stationary point found.
 Normal termination of Gaussian 09 at Fri Aug 20 15:52:49 2021.

 ----------------------------------------------------------------------
 #P Geom=AllCheck Guess=TCheck SCRF=Check GenChk RB3LYP/6-31G(d,p) Freq
 ----------------------------------------------------------------------

 Structure from the checkpoint file:  "/public/home/users/caep010/.cache/gau_scr/Gau-144027.chk"
 ------
 YALQEK
 ------
 Charge =  0 Multiplicity = 1

                         Standard orientation:
 ---------------------------------------------------------------------
 Center     Atomic      Atomic             Coordinates (Angstroms)
 Number     Number       Type             X           Y           Z
 ---------------------------------------------------------------------
      1          7           0        1.714043   -0.656711   -0.001352
      2          8           0        2.571717    0.247374   -0.038126
      3          8           0        1.961195   -1.857925    0.015734
      4          6           0        0.361193   -0.219691    0.016748
      5          7           0       -0.676577   -1.068923    0.006566
      6          7           0       -1.710049   -0.265830   -0.005176
      7          7           0       -1.455289    1.059131   -0.003164
      8          6           0       -0.116061    1.118114    0.013333
      9          7           0        0.591030    2.274036    0.065861
     10          1           0        0.114522    3.125707   -0.185373
     11          1           0        1.579115    2.189919   -0.123990
     12          6           0       -3.075272   -0.760744   -0.013814
     13          1           0       -3.595120   -0.417046    0.883273
     14          1           0       -3.029460   -1.847898   -0.033205
     15          1           0       -3.593612   -0.384268   -0.898316
 ---------------------------------------------------------------------

 SCF Done:  E(RB3LYP) =  -541.411981142     A.U. after    1 cycles

 The electronic state is 1-A.
 Alpha  occ. eigenvalues --  -19.17729 -19.17664 -14.57311 -14.47830 -14.39988
 Alpha  occ. eigenvalues --  -14.37654 -14.36830 -10.28689 -10.26922 -10.25395
 Alpha  occ. eigenvalues --   -1.22081  -1.13511  -1.04659  -0.95829  -0.91333
 Alpha  occ. eigenvalues --   -0.86667  -0.78896  -0.69487  -0.63457  -0.62094
 Alpha  occ. eigenvalues --   -0.55766  -0.54139  -0.53832  -0.52160  -0.51311
 Alpha  occ. eigenvalues --   -0.49866  -0.48555  -0.43969  -0.43669  -0.36826
 Alpha  occ. eigenvalues --   -0.36060  -0.32219  -0.30568  -0.30520  -0.30222
 Alpha  occ. eigenvalues --   -0.28749  -0.23978
 Alpha virt. eigenvalues --   -0.08238  -0.01223   0.07224   0.08270   0.09658
 Alpha virt. eigenvalues --    0.11177   0.12459   0.14652   0.14882   0.18708
 Alpha virt. eigenvalues --    0.21105   0.25210   0.26083   0.26891   0.29903

 Mulliken charges:
               1
     1  N    0.339437
     2  O   -0.436892
     3  O   -0.389741
     4  C    0.457713
     5  N   -0.302147
     6  N   -0.029107
     7  N   -0.377594
     8  C    0.522687
     9  N   -0.670812
    10  H    0.280613
    11  H    0.299922
    12  C   -0.164177
    13  H    0.154854
    14  H    0.161651
    15  H    0.153593
 Sum of Mulliken charges =   0.00000

 Dipole moment (field-independent basis, Debye):
    X=             -4.2463    Y=              2.5044    Z=             -0.6589  Tot=              4.9736
 Quadrupole moment (field-independent basis, Debye-Ang):
   XX=            -54.7125   YY=            -54.4504   ZZ=            -55.4246
   XY=              8.8862   XZ=             -0.3865   YZ=             -1.9551

  Exact polarizability: 102.564   0.448  85.308   0.022  -0.365  33.737
 Approx polarizability: 163.631  -1.466 163.945   0.268  -0.301  50.728

                      1                      2                      3
                      A                      A                      A
 Frequencies --     64.7312                88.7004               159.4871
 Red. masses --      1.1848                 7.2168                 3.4599
 Frc consts  --      0.0029                 0.0335                 0.0519
 IR Inten    --      0.1392                 0.0751                 3.3081

                      4                      5                      6
                      A                      A                      A
 Frequencies --    205.2143               215.7846               295.4675
 Red. masses --      6.2269                 6.5017                 2.9093
 Frc consts  --      0.1545                 0.1784                 0.1496
 IR Inten    --      0.6376                 3.7033                11.4073

                      7                      8                      9
                      A                      A                      A
 Frequencies --    347.0768               387.7733               408.6827
 Red. masses --      2.0175                 2.0985                 4.4060
 Frc consts  --      0.1432                 0.1859                 0.4336
 IR Inten    --     70.6341               198.7134                 0.1355

                     10                     11                     12
                      A                      A                      A
 Frequencies --    438.6230               500.1514               602.5498
 Red. masses --      7.4868                 1.1916                 4.3656
 Frc consts  --      0.8487                 0.1756                 0.9338
 IR Inten    --      2.0224                41.1938                 1.1964

                     13                     14                     15
                      A                      A                      A
 Frequencies --    649.0305               659.8267               705.5710
 Red. masses --      9.6609                 4.7394                12.4636
 Frc consts  --      2.3977                 1.2157                 3.6557
 IR Inten    --      7.9488                 7.2477                 0.4817

                     16                     17                     18
                      A                      A                      A
 Frequencies --    770.4938               797.5423               884.8916
 Red. masses --     13.1152                 9.5057                 8.1277
 Frc consts  --      4.5874                 3.5624                 3.7497
 IR Inten    --     11.6287                20.3597                27.2144

                     19                     20                     21
                      A                      A                      A
 Frequencies --   1020.7996              1076.0367              1129.1924
 Red. masses --      7.7847                 1.7186                 1.7182
 Frc consts  --      4.7794                 1.1724                 1.2908
 IR Inten    --      2.0350                 2.1790                34.4892

                     22                     23                     24
                      A                      A                      A
 Frequencies --   1150.0812              1245.9502              1339.5987
 Red. masses --      1.3074                 6.9094                 8.0196
 Frc consts  --      1.0189                 6.3196                 8.4791
 IR Inten    --      0.1409                13.1509               170.3804

                     25                     26                     27
                      A                      A                      A
 Frequencies --   1385.3363              1398.9739              1451.0251
 Red. masses --      5.4923                11.2955                 2.5537
 Frc consts  --      6.2103                13.0249                 3.1679
 IR Inten    --    213.3070                67.6161                 1.7936

                     28                     29                     30
                      A                      A                      A
 Frequencies --   1460.5855              1487.9146              1504.5098
 Red. masses --      1.6741                 1.0419                 1.8667
 Frc consts  --      2.1042                 1.3590                 2.4895
 IR Inten    --      1.1969                10.0163                55.1682

                     31                     32                     33
                      A                      A                      A
 Frequencies --   1534.9476              1560.7721              1634.1188
 Red. masses --      1.8200                 2.0341                 3.5661
 Frc consts  --      2.5265                 2.9194                 5.6107
 IR Inten    --     17.5111               106.7188                88.0172

                     34                     35                     36
                      A                      A                      A
 Frequencies --   1678.2941              3075.4930              3148.5697
 Red. masses --      4.4907                 1.0332                 1.1061
 Frc consts  --      7.4524                 5.7579                 6.4608
 IR Inten    --    432.3750                25.8178                 7.2003

                     37                     38                     39
                      A                      A                      A
 Frequencies --   3198.1489              3592.6023              3729.8605
 Red. masses --      1.1047                 1.0453                 1.1039
 Frc consts  --      6.6572                 7.9487                 9.0484
 IR Inten    --      0.6020                58.2863                71.4157

 - Thermochemistry -
 -------------------
 Temperature   298.150 Kelvin.  Pressure   1.00000 Atm.
 Atom     1 has atomic number  7 and mass  14.00307

 Molecular mass:   143.04432 amu.
 Principal axes and moments of inertia in atomic units:
                           1         2         3
     Eigenvalues --   747.766381590.007842325.32135
           X            0.99870   0.05106  -0.00020
           Y           -0.05107   0.99869  -0.00395
           Z            0.00000   0.00396   0.99999
 This molecule is an asymmetric top.
 Rotational symmetry number  1.
 Warning -- assumption of classical behavior for rotation
           may cause significant error
 Rotational temperatures (Kelvin)      0.11583     0.05447     0.03725
 Rotational constants (GHZ):           2.41351     1.13505     0.77613
 Zero-point vibrational energy     281029.2 (Joules/Mol)
                                   67.16758 (Kcal/Mol)
 Warning -- explicit consideration of  12 degrees of freedom as
           vibrations may cause significant error
 Vibrational temperatures:     93.13   127.62   229.47   295.26   310.47
          (Kelvin)            425.11   499.37   557.92   588.00   631.08
                              719.61   866.93   933.81   949.34  1015.16
                             1108.57  1147.48  1273.16  1468.70  1548.17
                             1624.65  1654.71  1792.64  1927.38  1993.19
                             2012.81  2087.70  2101.45  2140.77  2164.65
                             2208.44  2245.60  2351.13  2414.69  4424.94
                             4530.08  4601.42  5168.95  5366.43

 Zero-point correction=                           0.107038 (Hartree/Particle)
 Thermal correction to Energy=                    0.115994
 Thermal correction to Enthalpy=                  0.116938
 Thermal correction to Gibbs Free Energy=         0.072572
 Sum of electronic and zero-point Energies=           -541.304943
 Sum of electronic and thermal Energies=              -541.295988
 Sum of electronic and thermal Enthalpies=            -541.295043
 Sum of electronic and thermal Free Energies=         -541.339409

                     E (Thermal)             CV                S
                      KCal/Mol        Cal/Mol-Kelvin    Cal/Mol-Kelvin
 Total                   72.787             32.053             93.376
 Electronic               0.000              0.000              0.000
 Translational            0.889              2.981             40.785
 Rotational               0.889              2.981             29.404
 Vibrational             71.010             26.091             23.187
 Vibration     1          0.597              1.971              4.308
 Vibration     2          0.602              1.957              3.689
 Vibration     3          0.621              1.892              2.556
 Vibration     4          0.640              1.832              2.086
 Vibration     5          0.645              1.817              1.994
 Vibration     6          0.690              1.682              1.442
 Vibration     7          0.725              1.581              1.179
 Vibration     8          0.756              1.496              1.009
 Vibration     9          0.773              1.451              0.931
 Vibration    10          0.799              1.386              0.831
 Vibration    11          0.856              1.250              0.658
 Vibration    12          0.961              1.026              0.445

 Optimization completed.
    -- Stationary point found.
 Normal termination of Gaussian 09 at Fri Aug 20 15:53:06 2021.
