 Gaussian 09, Revision E.01,
 Gaussian 09:  ES64L-G09RevE.01 30-Nov-2015

 -------------------------
 #P OPT Freq B3LYP/6-31G**
 -------------------------

 ------
 VACRAT
 ------
 Symbolic Z-matrix:
 Charge =  0 Multiplicity = 1

 SCF Done:  E(RB3LYP) =  -622.404764300     A.U. after   16 cycles
 SCF Done:  E(RB3LYP) =  -622.527260790     A.U. after   13 cycles
 SCF Done:  E(RB3LYP) =  -622.592408737     A.U. after   14 cycles
 SCF Done:  E(RB3LYP) =  -622.595350217     A.U. after   16 cycles
 SCF Done:  E(RB3LYP) =  -622.602815181     A.U. after   15 cycles
 SCF Done:  E(RB3LYP) =  -622.607917934     A.U. after   14 cycles
 SCF Done:  E(RB3LYP) =  -622.610483767     A.U. after   15 cycles
 SCF Done:  E(RB3LYP) =  -622.611520389     A.U. after   13 cycles
 SCF Done:  E(RB3LYP) =  -622.611793415     A.U. after   13 cycles
 SCF Done:  E(RB3LYP) =  -622.611879936     A.U. after   12 cycles
 SCF Done:  E(RB3LYP) =  -622.612025813     A.U. after   12 cycles
 SCF Done:  E(RB3LYP) =  -622.612131722     A.U. after   13 cycles
 SCF Done:  E(RB3LYP) =  -622.612288664     A.U. after   12 cycles
 SCF Done:  E(RB3LYP) =  -622.612392959     A.U. after   13 cycles
 SCF Done:  E(RB3LYP) =  -622.612419596     A.U. after   12 cycles
 SCF Done:  E(RB3LYP) =  -622.612427066     A.U. after   11 cycles
 SCF Done:  E(RB3LYP) =  -622.612429777     A.U. after   10 cycles
 SCF Done:  E(RB3LYP) =  -622.612429924     A.U. after    8 cycles
 SCF Done:  E(RB3LYP) =  -622.612429979     A.U. after    8 cycles
 Optimization completed.
    -- Stationary point found.
 Normal termination of Gaussian 09 at Fri Aug 20 15:51:22 2021.

 ----------------------------------------------------------------------
 #P Geom=AllCheck Guess=TCheck SCRF=Check GenChk RB3LYP/6-31G(d,p) Freq
 ----------------------------------------------------------------------

 Structure from the checkpoint file:  "/public/home/users/caep010/.cache/gau_scr/Gau-216979.chk"
 ------
 VACRAT
 ------
 Charge =  0 Multiplicity = 1

                         Standard orientation:
 ---------------------------------------------------------------------
 Center     Atomic      Atomic             Coordinates (Angstroms)
 Number     Number       Type             X           Y           Z
 ---------------------------------------------------------------------
      1          8           0        0.063148    2.343146    0.000167
      2          7           0        0.570834    1.066814    0.000158
      3          6           0        1.914360    0.936299   -0.000034
      4          6           0       -0.344557    0.027454    0.000150
      5          7           0       -1.588437    0.524809   -0.000004
      6          7           0       -2.674400   -0.316494   -0.000088
      7          8           0       -2.526226   -1.549622   -0.000016
      8          8           0       -3.763856    0.250498   -0.000309
      9          6           0        0.237391   -1.269688    0.000269
     10          6           0        1.607861   -1.418488    0.000222
     11          1           0       -0.918646    2.137043    0.000023
     12          1           0       -0.433388   -2.113604    0.000316
     13          6           0        2.492499   -0.314241    0.000030
     14          6           0        3.989406   -0.485490   -0.000365
     15          1           0        2.021139   -2.423479    0.000386
     16          1           0        2.458965    1.871816   -0.000079
     17          1           0        4.323266   -1.041421   -0.883160
     18          1           0        4.323644   -1.042830    0.881402
     19          1           0        4.502747    0.479325    0.000279
 ---------------------------------------------------------------------

 SCF Done:  E(RB3LYP) =  -622.612429979     A.U. after    1 cycles

 The electronic state is 1-A.
 Alpha  occ. eigenvalues --  -19.22763 -19.15241 -19.15021 -14.57351 -14.49557
 Alpha  occ. eigenvalues --  -14.36332 -10.30819 -10.27709 -10.24142 -10.23874
 Alpha  occ. eigenvalues --  -10.22715 -10.21921  -1.21023  -1.15882  -1.02600
 Alpha  occ. eigenvalues --   -0.97300  -0.93629  -0.84380  -0.81691  -0.75616
 Alpha  occ. eigenvalues --   -0.68703  -0.67305  -0.63450  -0.57100  -0.55754
 Alpha  occ. eigenvalues --   -0.53932  -0.52622  -0.50159  -0.50138  -0.48963
 Alpha  occ. eigenvalues --   -0.48317  -0.45182  -0.44915  -0.42270  -0.42059
 Alpha  occ. eigenvalues --   -0.39333  -0.37366  -0.34008  -0.33920  -0.29752
 Alpha  occ. eigenvalues --   -0.29145  -0.28391  -0.25540  -0.23679
 Alpha virt. eigenvalues --   -0.07434  -0.05020   0.00958   0.04825   0.08521
 Alpha virt. eigenvalues --    0.10189   0.10240   0.11332   0.13612   0.14023
 Alpha virt. eigenvalues --    0.16480   0.16614   0.19030   0.19738   0.22123

 Mulliken charges:
               1
     1  O   -0.417541
     2  N   -0.242195
     3  C    0.140676
     4  C    0.661795
     5  N   -0.572953
     6  N    0.601417
     7  O   -0.447615
     8  O   -0.408010
     9  C   -0.126893
    10  C   -0.067966
    11  H    0.377887
    12  H    0.164868
    13  C    0.050169
    14  C   -0.382766
    15  H    0.114720
    16  H    0.156068
    17  H    0.137812
    18  H    0.137779
    19  H    0.122750
 Sum of Mulliken charges =  -0.00000

 Dipole moment (field-independent basis, Debye):
    X=              8.1223    Y=             -0.0237    Z=              0.0001  Tot=              8.1224
 Quadrupole moment (field-independent basis, Debye-Ang):
   XX=            -75.4891   YY=            -67.0298   ZZ=            -68.1656
   XY=             -3.7363   XZ=             -0.0027   YZ=             -0.0009

  Exact polarizability: 168.819  -5.966 101.816   0.000  -0.003  40.255
 Approx polarizability: 268.577 -17.459 195.594   0.004  -0.008  61.446

                      1                      2                      3
                      A                      A                      A
 Frequencies --     49.6510                72.9184                92.3342
 Red. masses --     12.4503                 4.8437                 1.0577
 Frc consts  --      0.0181                 0.0152                 0.0053
 IR Inten    --      0.1998                 0.3397                 0.1063

                      4                      5                      6
                      A                      A                      A
 Frequencies --    166.7876               173.1926               227.7271
 Red. masses --      6.3148                 6.4161                 4.4884
 Frc consts  --      0.1035                 0.1134                 0.1371
 IR Inten    --      0.0264                 2.5624                 0.0208

                      7                      8                      9
                      A                      A                      A
 Frequencies --    296.4387               319.6727               332.4943
 Red. masses --      3.3869                 8.0022                 4.6605
 Frc consts  --      0.1754                 0.4818                 0.3036
 IR Inten    --      3.0753                 2.5711                 1.4915

                     10                     11                     12
                      A                      A                      A
 Frequencies --    395.1331               425.2021               505.6937
 Red. masses --      8.0598                 3.6929                 4.3928
 Frc consts  --      0.7414                 0.3934                 0.6619
 IR Inten    --      3.6764                 4.9172                 7.0829

                     13                     14                     15
                      A                      A                      A
 Frequencies --    546.7300               581.7558               608.4419
 Red. masses --      2.9834                 7.2477                 6.1372
 Frc consts  --      0.5254                 1.4452                 1.3386
 IR Inten    --     16.3226                 0.2974                 1.7523

                     16                     17                     18
                      A                      A                      A
 Frequencies --    654.6703               703.9731               734.4107
 Red. masses --      1.2250                 3.7690                 6.6861
 Frc consts  --      0.3093                 1.1005                 2.1247
 IR Inten    --     68.8685                25.3114                 3.8109

                     19                     20                     21
                      A                      A                      A
 Frequencies --    776.2859               787.5486               842.0125
 Red. masses --     12.9596                10.8376                 1.4226
 Frc consts  --      4.6014                 3.9604                 0.5942
 IR Inten    --     11.5540                14.2245                43.2141

                     22                     23                     24
                      A                      A                      A
 Frequencies --    872.7584               888.3987               951.4964
 Red. masses --      1.2734                 7.7683                 3.0400
 Frc consts  --      0.5715                 3.6124                 1.6216
 IR Inten    --      0.8758                29.6172                 6.5585

                     25                     26                     27
                      A                      A                      A
 Frequencies --    997.1481              1037.0849              1042.9665
 Red. masses --      1.2760                 1.6112                 6.8493
 Frc consts  --      0.7475                 1.0210                 4.3897
 IR Inten    --      0.6638                21.3455                58.0385

                     28                     29                     30
                      A                      A                      A
 Frequencies --   1068.3931              1154.5688              1173.5859
 Red. masses --      1.4631                 2.4971                 1.3916
 Frc consts  --      0.9840                 1.9613                 1.1292
 IR Inten    --      4.4902                23.0381                47.6847

                     31                     32                     33
                      A                      A                      A
 Frequencies --   1264.0788              1294.0753              1296.4569
 Red. masses --      3.1375                 2.2521                 3.2413
 Frc consts  --      2.9538                 2.2221                 3.2099
 IR Inten    --     16.8084                73.3386                65.7209

                     34                     35                     36
                      A                      A                      A
 Frequencies --   1342.6906              1388.9413              1436.1161
 Red. masses --      4.3880                 2.9843                 1.2899
 Frc consts  --      4.6608                 3.3920                 1.5674
 IR Inten    --    822.6569               138.7098                 0.0713

                     37                     38                     39
                      A                      A                      A
 Frequencies --   1440.0191              1495.9764              1510.6759
 Red. masses --      2.6920                 1.0422                 1.1343
 Frc consts  --      3.2890                 1.3742                 1.5252
 IR Inten    --     22.7690                 6.7511                22.8261

                     40                     41                     42
                      A                      A                      A
 Frequencies --   1547.2188              1568.5621              1620.6239
 Red. masses --      2.8498                 3.7226                 4.1904
 Frc consts  --      4.0195                 5.3964                 6.4844
 IR Inten    --    344.5614               213.9822                23.4373

                     43                     44                     45
                      A                      A                      A
 Frequencies --   1635.4308              1692.8161              3046.8745
 Red. masses --      3.6204                 6.3316                 1.0372
 Frc consts  --      5.7052                10.6901                 5.6729
 IR Inten    --    335.7483                98.2575                27.9864

                     46                     47                     48
                      A                      A                      A
 Frequencies --   3105.0556              3133.9301              3192.9390
 Red. masses --      1.1017                 1.1016                 1.0908
 Frc consts  --      6.2584                 6.3745                 6.5521
 IR Inten    --     12.4644                11.3455                 6.4312

                     49                     50                     51
                      A                      A                      A
 Frequencies --   3197.7528              3250.0566              3296.3365
 Red. masses --      1.0638                 1.0935                 1.0923
 Frc consts  --      6.4093                 6.8054                 6.9928
 IR Inten    --    191.1022                 1.6583                11.5694

 - Thermochemistry -
 -------------------
 Temperature   298.150 Kelvin.  Pressure   1.00000 Atm.
 Atom     1 has atomic number  8 and mass  15.99491

 Molecular mass:   169.04874 amu.
 Principal axes and moments of inertia in atomic units:
                           1         2         3
     Eigenvalues --   817.315053145.812753951.92159
           X            0.99992  -0.01276  -0.00001
           Y            0.01276   0.99992  -0.00000
           Z            0.00001   0.00000   1.00000
 This molecule is an asymmetric top.
 Rotational symmetry number  1.
 Warning -- assumption of classical behavior for rotation
           may cause significant error
 Rotational temperatures (Kelvin)      0.10597     0.02753     0.02192
 Rotational constants (GHZ):           2.20813     0.57370     0.45667
 Zero-point vibrational energy     366273.2 (Joules/Mol)
                                   87.54140 (Kcal/Mol)
 Warning -- explicit consideration of  15 degrees of freedom as
           vibrations may cause significant error
 Vibrational temperatures:     71.44   104.91   132.85   239.97   249.19
          (Kelvin)            327.65   426.51   459.94   478.38   568.51
                              611.77   727.58   786.62   837.02   875.41
                              941.92  1012.86  1056.65  1116.90  1133.11
                             1211.47  1255.70  1278.21  1368.99  1434.67
                             1492.13  1500.59  1537.18  1661.16  1688.53
                             1818.73  1861.88  1865.31  1931.83  1998.37
                             2066.25  2071.86  2152.37  2173.52  2226.10
                             2256.81  2331.71  2353.02  2435.58  4383.77
                             4467.48  4509.02  4593.92  4600.85  4676.10
                             4742.69

 Zero-point correction=                           0.139506 (Hartree/Particle)
 Thermal correction to Energy=                    0.149984
 Thermal correction to Enthalpy=                  0.150928
 Thermal correction to Gibbs Free Energy=         0.102541
 Sum of electronic and zero-point Energies=           -622.472924
 Sum of electronic and thermal Energies=              -622.462446
 Sum of electronic and thermal Enthalpies=            -622.461502
 Sum of electronic and thermal Free Energies=         -622.509889

                     E (Thermal)             CV                S
                      KCal/Mol        Cal/Mol-Kelvin    Cal/Mol-Kelvin
 Total                   94.116             38.763            101.839
 Electronic               0.000              0.000              0.000
 Translational            0.889              2.981             41.283
 Rotational               0.889              2.981             30.697
 Vibrational             92.339             32.801             29.858
 Vibration     1          0.595              1.978              4.831
 Vibration     2          0.599              1.967              4.073
 Vibration     3          0.602              1.955              3.610
 Vibration     4          0.624              1.883              2.471
 Vibration     5          0.627              1.875              2.401
 Vibration     6          0.651              1.799              1.897
 Vibration     7          0.690              1.680              1.437
 Vibration     8          0.706              1.636              1.312
 Vibration     9          0.714              1.611              1.248
 Vibration    10          0.762              1.481              0.981
 Vibration    11          0.787              1.415              0.874
 Vibration    12          0.861              1.237              0.644
 Vibration    13          0.902              1.147              0.551
 Vibration    14          0.939              1.071              0.482
 Vibration    15          0.967              1.014              0.435

 Optimization completed.
    -- Stationary point found.
 Normal termination of Gaussian 09 at Fri Aug 20 15:51:49 2021.
