 Gaussian 09, Revision E.01,
 Gaussian 09:  ES64L-G09RevE.01 30-Nov-2015

 -------------------------
 #P OPT Freq B3LYP/6-31G**
 -------------------------

 ------
 BAZPOI
 ------
 Symbolic Z-matrix:
 Charge =  0 Multiplicity = 1

 SCF Done:  E(RB3LYP) =  -625.895647019     A.U. after   16 cycles
 SCF Done:  E(RB3LYP) =  -626.018998706     A.U. after   13 cycles
 SCF Done:  E(RB3LYP) =  -626.099971281     A.U. after   14 cycles
 SCF Done:  E(RB3LYP) =  -626.101549569     A.U. after   14 cycles
 SCF Done:  E(RB3LYP) =  -626.101456125     A.U. after   14 cycles
 SCF Done:  E(RB3LYP) =  -626.101878774     A.U. after    9 cycles
 SCF Done:  E(RB3LYP) =  -626.101416890     A.U. after   13 cycles
 SCF Done:  E(RB3LYP) =  -626.101940098     A.U. after    9 cycles
 SCF Done:  E(RB3LYP) =  -626.101928734     A.U. after   12 cycles
 SCF Done:  E(RB3LYP) =  -626.101994881     A.U. after   12 cycles
 SCF Done:  E(RB3LYP) =  -626.102010121     A.U. after    8 cycles
 SCF Done:  E(RB3LYP) =  -626.102011132     A.U. after    9 cycles
 SCF Done:  E(RB3LYP) =  -626.102011357     A.U. after    8 cycles
 SCF Done:  E(RB3LYP) =  -626.102011628     A.U. after    8 cycles
 SCF Done:  E(RB3LYP) =  -626.102012145     A.U. after    8 cycles
 SCF Done:  E(RB3LYP) =  -626.102013150     A.U. after    9 cycles
 SCF Done:  E(RB3LYP) =  -626.102013745     A.U. after    8 cycles
 SCF Done:  E(RB3LYP) =  -626.102013873     A.U. after    8 cycles
 SCF Done:  E(RB3LYP) =  -626.102013893     A.U. after    8 cycles
 Optimization completed.
    -- Stationary point found.
 Normal termination of Gaussian 09 at Fri Aug 20 16:06:25 2021.

 ----------------------------------------------------------------------
 #P Geom=AllCheck Guess=TCheck SCRF=Check GenChk RB3LYP/6-31G(d,p) Freq
 ----------------------------------------------------------------------

 Structure from the checkpoint file:  "/public/home/users/caep010/.cache/gau_scr/Gau-44897.chk"
 ------
 BAZPOI
 ------
 Charge =  0 Multiplicity = 1

                         Standard orientation:
 ---------------------------------------------------------------------
 Center     Atomic      Atomic             Coordinates (Angstroms)
 Number     Number       Type             X           Y           Z
 ---------------------------------------------------------------------
      1          7           0        2.822989   -0.050191    0.013738
      2          6           0        1.449184   -0.115525    0.003407
      3          6           0        0.665844    1.049379   -0.001285
      4          6           0        3.491313    1.240277    0.006000
      5          1           0        4.570456    1.087645    0.021406
      6          1           0        3.222489    1.840948    0.884946
      7          1           0        3.243899    1.823054   -0.891600
      8          1           0        1.136289    2.024862   -0.006520
      9          6           0       -0.742267    1.019570   -0.010800
     10          7           0       -1.437875    2.186660   -0.043969
     11          1           0       -0.949961    3.055151    0.096036
     12          1           0       -2.442901    2.130860    0.049240
     13          6           0       -1.376416   -0.259329   -0.010077
     14          7           0       -2.800727   -0.419183    0.004713
     15          8           0       -3.530716    0.597266    0.027003
     16          8           0       -3.272401   -1.561937   -0.001983
     17          6           0       -0.590392   -1.425106   -0.008552
     18          1           0       -1.110520   -2.374462   -0.009153
     19          6           0        0.782128   -1.377261   -0.003279
     20          1           0        1.342924   -2.301718   -0.002456
     21          6           0        3.619307   -1.268761   -0.000797
     22          1           0        3.435361   -1.868441   -0.901447
     23          1           0        4.676412   -1.003403    0.015012
     24          1           0        3.417580   -1.897600    0.875297
 ---------------------------------------------------------------------

 SCF Done:  E(RB3LYP) =  -626.102013893     A.U. after    1 cycles

 The electronic state is 1-A.
 Alpha  occ. eigenvalues --  -19.15236 -19.14967 -14.54499 -14.37460 -14.34767
 Alpha  occ. eigenvalues --  -10.25366 -10.24594 -10.23441 -10.23368 -10.22311
 Alpha  occ. eigenvalues --  -10.19942 -10.18672 -10.18625  -1.19116  -1.01591
 Alpha  occ. eigenvalues --   -0.96621  -0.93185  -0.84816  -0.79041  -0.75469
 Alpha  occ. eigenvalues --   -0.73020  -0.71095  -0.64124  -0.61824  -0.58792
 Alpha  occ. eigenvalues --   -0.54624  -0.52970  -0.52201  -0.50383  -0.49335
 Alpha  occ. eigenvalues --   -0.48494  -0.47968  -0.47358  -0.43847  -0.42438
 Alpha  occ. eigenvalues --   -0.42358  -0.41988  -0.40681  -0.39633  -0.39063
 Alpha  occ. eigenvalues --   -0.35615  -0.33363  -0.29195  -0.28517  -0.28010
 Alpha  occ. eigenvalues --   -0.26406  -0.21507  -0.20693
 Alpha virt. eigenvalues --   -0.06030   0.00748   0.03465   0.07285   0.08302
 Alpha virt. eigenvalues --    0.09979   0.11504   0.12081   0.14633   0.15449
 Alpha virt. eigenvalues --    0.15515   0.15948   0.16372   0.17309   0.18646

 Mulliken charges:
               1
     1  N   -0.516860
     2  C    0.375721
     3  C   -0.198914
     4  C   -0.168988
     5  H    0.114292
     6  H    0.124371
     7  H    0.124986
     8  H    0.070117
     9  C    0.322960
    10  N   -0.672936
    11  H    0.260898
    12  H    0.304707
    13  C    0.243434
    14  N    0.352335
    15  O   -0.464354
    16  O   -0.424867
    17  C   -0.115282
    18  H    0.131615
    19  C   -0.146957
    20  H    0.084816
    21  C   -0.170812
    22  H    0.127730
    23  H    0.113785
    24  H    0.128203
 Sum of Mulliken charges =  -0.00000

 Dipole moment (field-independent basis, Debye):
    X=              7.3547    Y=              2.2613    Z=              0.3011  Tot=              7.7004
 Quadrupole moment (field-independent basis, Debye-Ang):
   XX=            -80.3589   YY=            -66.4307   ZZ=            -77.9643
   XY=             -5.6187   XZ=             -0.4366   YZ=              0.9840

  Exact polarizability: 195.247  -1.718 128.094   0.010   0.148  51.517
 Approx polarizability: 310.381  -6.586 230.679   0.472  -0.164  78.296

                      1                      2                      3
                      A                      A                      A
 Frequencies --     42.3785                59.4480                77.1530
 Red. masses --      2.3705                 3.0911                 6.3267
 Frc consts  --      0.0025                 0.0064                 0.0222
 IR Inten    --      1.8600                 0.1104                 2.3768

                      4                      5                      6
                      A                      A                      A
 Frequencies --     84.7488               162.0847               186.7368
 Red. masses --      2.8228                 1.8990                 2.6817
 Frc consts  --      0.0119                 0.0294                 0.0551
 IR Inten    --      0.1284                17.8789                 3.4473

                      7                      8                      9
                      A                      A                      A
 Frequencies --    192.1624               228.3382               249.1515
 Red. masses --      1.5073                 1.2467                 2.5943
 Frc consts  --      0.0328                 0.0383                 0.0949
 IR Inten    --     11.4415               173.5085                 0.3211

                     10                     11                     12
                      A                      A                      A
 Frequencies --    299.2176               319.1155               327.3126
 Red. masses --      5.0388                 3.8365                 5.1803
 Frc consts  --      0.2658                 0.2302                 0.3270
 IR Inten    --      2.9346                10.3047                 5.6293

                     13                     14                     15
                      A                      A                      A
 Frequencies --    381.6724               456.0319               461.1662
 Red. masses --      3.3752                 3.0656                 4.8291
 Frc consts  --      0.2897                 0.3756                 0.6051
 IR Inten    --      9.9603                 2.1358                 0.5009

                     16                     17                     18
                      A                      A                      A
 Frequencies --    479.8514               565.7680               592.3135
 Red. masses --      3.9364                 4.5675                 1.5612
 Frc consts  --      0.5340                 0.8614                 0.3227
 IR Inten    --      0.8750                 1.6041                15.2496

                     19                     20                     21
                      A                      A                      A
 Frequencies --    611.1833               623.3519               651.3311
 Red. masses --      2.0592                 4.3243                 4.2976
 Frc consts  --      0.4532                 0.9900                 1.0742
 IR Inten    --     12.0836                 6.5360                 0.0783

                     22                     23                     24
                      A                      A                      A
 Frequencies --    694.0110               732.7891               747.6605
 Red. masses --      2.4625                 5.9860                 4.6571
 Frc consts  --      0.6988                 1.8939                 1.5338
 IR Inten    --      0.6298                 7.9896                21.8380

                     25                     26                     27
                      A                      A                      A
 Frequencies --    793.3015               808.5414               845.7255
 Red. masses --      1.7898                 1.9328                 8.7392
 Frc consts  --      0.6636                 0.7444                 3.6828
 IR Inten    --      0.3176                48.4038                10.4352

                     28                     29                     30
                      A                      A                      A
 Frequencies --    921.1331               972.2573               992.6716
 Red. masses --      4.6086                 1.2668                 2.3760
 Frc consts  --      2.3039                 0.7055                 1.3794
 IR Inten    --      3.3476                 1.0490                16.0292

                     31                     32                     33
                      A                      A                      A
 Frequencies --   1086.3393              1097.3770              1130.0976
 Red. masses --      1.5258                 1.6121                 2.8062
 Frc consts  --      1.0609                 1.1438                 2.1116
 IR Inten    --     29.3539                 3.7768               109.0100

                     34                     35                     36
                      A                      A                      A
 Frequencies --   1141.6775              1149.9560              1194.1770
 Red. masses --      1.3087                 1.2340                 1.5508
 Frc consts  --      1.0050                 0.9615                 1.3030
 IR Inten    --      0.1154                 0.0074                 6.8207

                     37                     38                     39
                      A                      A                      A
 Frequencies --   1216.5274              1278.0352              1306.8875
 Red. masses --      1.5407                 2.6873                 2.1045
 Frc consts  --      1.3434                 2.5861                 2.1178
 IR Inten    --     35.1028                64.6536                40.4410

                     40                     41                     42
                      A                      A                      A
 Frequencies --   1325.9602              1356.3323              1408.1367
 Red. masses --      3.0951                 3.4787                 4.7482
 Frc consts  --      3.2062                 3.7705                 5.5472
 IR Inten    --    194.2901               813.1983                20.0568

                     43                     44                     45
                      A                      A                      A
 Frequencies --   1425.0345              1459.4968              1490.2913
 Red. masses --      3.3169                 1.1945                 2.1520
 Frc consts  --      3.9686                 1.4991                 2.8160
 IR Inten    --     54.5741                 1.3221                59.6185

                     46                     47                     48
                      A                      A                      A
 Frequencies --   1493.4044              1502.6168              1504.1609
 Red. masses --      1.0397                 1.0479                 1.4645
 Frc consts  --      1.3663                 1.3941                 1.9523
 IR Inten    --      0.4156                10.0170                73.2458

                     49                     50                     51
                      A                      A                      A
 Frequencies --   1527.8311              1542.7492              1550.0773
 Red. masses --      1.1948                 1.2064                 3.3576
 Frc consts  --      1.6432                 1.6918                 4.7532
 IR Inten    --     13.7106                15.0268               121.5421

                     52                     53                     54
                      A                      A                      A
 Frequencies --   1563.7427              1618.0484              1630.6595
 Red. masses --      2.4412                 3.7136                 2.0747
 Frc consts  --      3.5171                 5.7283                 3.2504
 IR Inten    --     81.7128               137.3986               212.8936

                     55                     56                     57
                      A                      A                      A
 Frequencies --   1677.1857              3010.2059              3021.3913
 Red. masses --      6.1878                 1.0384                 1.0403
 Frc consts  --     10.2553                 5.5436                 5.5952
 IR Inten    --    563.1437                69.4338                63.3079

                     58                     59                     60
                      A                      A                      A
 Frequencies --   3057.6985              3069.1973              3145.7087
 Red. masses --      1.1040                 1.1049                 1.0979
 Frc consts  --      6.0817                 6.1325                 6.4009
 IR Inten    --     31.9247                36.6086                 1.9745

                     61                     62                     63
                      A                      A                      A
 Frequencies --   3158.1087              3216.9747              3236.2213
 Red. masses --      1.0954                 1.0886                 1.0871
 Frc consts  --      6.4367                 6.6374                 6.7079
 IR Inten    --     34.5260                10.3744                 2.6806

                     64                     65                     66
                      A                      A                      A
 Frequencies --   3249.6393              3558.8642              3728.8773
 Red. masses --      1.0944                 1.0484                 1.1014
 Frc consts  --      6.8090                 7.8237                 9.0229
 IR Inten    --      4.4783                91.2410                59.2106

 - Thermochemistry -
 -------------------
 Temperature   298.150 Kelvin.  Pressure   1.00000 Atm.
 Atom     1 has atomic number  7 and mass  14.00307

 Molecular mass:   181.08513 amu.
 Principal axes and moments of inertia in atomic units:
                           1         2         3
     Eigenvalues --   979.016033914.020524869.90176
           X            0.99997  -0.00813  -0.00017
           Y            0.00813   0.99997   0.00167
           Z            0.00016  -0.00167   1.00000
 This molecule is an asymmetric top.
 Rotational symmetry number  1.
 Warning -- assumption of classical behavior for rotation
           may cause significant error
 Rotational temperatures (Kelvin)      0.08847     0.02213     0.01779
 Rotational constants (GHZ):           1.84342     0.46110     0.37059
 Zero-point vibrational energy     506548.5 (Joules/Mol)
                                  121.06800 (Kcal/Mol)
 Warning -- explicit consideration of  19 degrees of freedom as
           vibrations may cause significant error
 Vibrational temperatures:     60.97    85.53   111.01   121.93   233.20
          (Kelvin)            268.67   276.48   328.53   358.47   430.51
                              459.14   470.93   549.14   656.13   663.51
                              690.40   814.01   852.21   879.36   896.86
                              937.12   998.53  1054.32  1075.72  1141.38
                             1163.31  1216.81  1325.30  1398.86  1428.23
                             1563.00  1578.88  1625.96  1642.62  1654.53
                             1718.15  1750.31  1838.81  1880.32  1907.76
                             1951.46  2025.99  2050.30  2099.89  2144.19
                             2148.67  2161.93  2164.15  2198.21  2219.67
                             2230.21  2249.87  2328.01  2346.15  2413.09
                             4331.01  4347.10  4399.34  4415.88  4525.97
                             4543.81  4628.50  4656.19  4675.50  5120.41
                             5365.02

 Zero-point correction=                           0.192934 (Hartree/Particle)
 Thermal correction to Energy=                    0.205739
 Thermal correction to Enthalpy=                  0.206684
 Thermal correction to Gibbs Free Energy=         0.153171
 Sum of electronic and zero-point Energies=           -625.909080
 Sum of electronic and thermal Energies=              -625.896274
 Sum of electronic and thermal Enthalpies=            -625.895330
 Sum of electronic and thermal Free Energies=         -625.948843

                     E (Thermal)             CV                S
                      KCal/Mol        Cal/Mol-Kelvin    Cal/Mol-Kelvin
 Total                  129.103             47.243            112.627
 Electronic               0.000              0.000              0.000
 Translational            0.889              2.981             41.488
 Rotational               0.889              2.981             31.301
 Vibrational            127.326             41.282             39.837
 Vibration     1          0.595              1.980              5.145
 Vibration     2          0.597              1.974              4.475
 Vibration     3          0.599              1.964              3.962
 Vibration     4          0.601              1.960              3.778
 Vibration     5          0.622              1.889              2.525
 Vibration     6          0.632              1.858              2.260
 Vibration     7          0.634              1.851              2.207
 Vibration     8          0.651              1.798              1.892
 Vibration     9          0.662              1.764              1.737
 Vibration    10          0.692              1.675              1.421
 Vibration    11          0.705              1.637              1.315
 Vibration    12          0.711              1.621              1.273
 Vibration    13          0.751              1.509              1.033
 Vibration    14          0.814              1.348              0.778
 Vibration    15          0.819              1.336              0.763
 Vibration    16          0.836              1.295              0.710
 Vibration    17          0.922              1.105              0.512
 Vibration    18          0.950              1.048              0.463
 Vibration    19          0.970              1.008              0.431

 Optimization completed.
    -- Stationary point found.
 Normal termination of Gaussian 09 at Fri Aug 20 16:07:06 2021.
