 Gaussian 09, Revision E.01,
 Gaussian 09:  ES64L-G09RevE.01 30-Nov-2015

 -------------------------
 #P OPT Freq B3LYP/6-31G**
 -------------------------

 ------
 ZERJIR
 ------
 Symbolic Z-matrix:
 Charge =  0 Multiplicity = 1

 SCF Done:  E(RB3LYP) =  -640.727268759     A.U. after   16 cycles
 SCF Done:  E(RB3LYP) =  -640.850967505     A.U. after   13 cycles
 SCF Done:  E(RB3LYP) =  -640.920897278     A.U. after   14 cycles
 SCF Done:  E(RB3LYP) =  -640.915838993     A.U. after   15 cycles
 SCF Done:  E(RB3LYP) =  -640.922181789     A.U. after   11 cycles
 SCF Done:  E(RB3LYP) =  -640.923602684     A.U. after   14 cycles
 SCF Done:  E(RB3LYP) =  -640.923835053     A.U. after   13 cycles
 SCF Done:  E(RB3LYP) =  -640.923843846     A.U. after   14 cycles
 SCF Done:  E(RB3LYP) =  -640.924047336     A.U. after   13 cycles
 SCF Done:  E(RB3LYP) =  -640.924211458     A.U. after   13 cycles
 SCF Done:  E(RB3LYP) =  -640.924277075     A.U. after   16 cycles
 SCF Done:  E(RB3LYP) =  -640.924496692     A.U. after   13 cycles
 SCF Done:  E(RB3LYP) =  -640.924624631     A.U. after   11 cycles
 SCF Done:  E(RB3LYP) =  -640.924703603     A.U. after   12 cycles
 SCF Done:  E(RB3LYP) =  -640.924724516     A.U. after   11 cycles
 SCF Done:  E(RB3LYP) =  -640.924740562     A.U. after   12 cycles
 SCF Done:  E(RB3LYP) =  -640.924743429     A.U. after    9 cycles
 SCF Done:  E(RB3LYP) =  -640.924743749     A.U. after    8 cycles
 Optimization completed.
    -- Stationary point found.
 Normal termination of Gaussian 09 at Fri Aug 20 15:55:46 2021.

 ----------------------------------------------------------------------
 #P Geom=AllCheck Guess=TCheck SCRF=Check GenChk RB3LYP/6-31G(d,p) Freq
 ----------------------------------------------------------------------

 Structure from the checkpoint file:  "/public/home/users/caep010/.cache/gau_scr/Gau-29744.chk"
 ------
 ZERJIR
 ------
 Charge =  0 Multiplicity = 1

                         Standard orientation:
 ---------------------------------------------------------------------
 Center     Atomic      Atomic             Coordinates (Angstroms)
 Number     Number       Type             X           Y           Z
 ---------------------------------------------------------------------
      1          8           0       -2.440907   -1.500820    0.349138
      2          7           0       -3.076476   -0.431152    0.149362
      3          7           0       -2.457160    0.735097   -0.225730
      4          8           0       -4.293351   -0.365318    0.252987
      5          6           0       -1.122415    0.791897   -0.262437
      6          7           0       -0.641311    2.017188   -0.611758
      7          1           0       -1.341112    2.652052   -0.966885
      8          1           0        0.291435    2.085942   -0.989446
      9          7           0       -0.257254   -0.204035    0.023784
     10          6           0        1.159827   -0.165582    0.039046
     11          1           0       -0.757710   -1.082232    0.195164
     12          6           0        1.852926   -1.258985   -0.498750
     13          6           0        3.244829   -1.290390   -0.460700
     14          1           0        3.771160   -2.143097   -0.878638
     15          1           0        1.293867   -2.074690   -0.947429
     16          6           0        1.874957    0.888799    0.625762
     17          1           0        1.342740    1.712866    1.087906
     18          6           0        3.269694    0.854421    0.641620
     19          1           0        3.815575    1.674750    1.097907
     20          6           0        3.959960   -0.230496    0.100767
     21          1           0        5.044843   -0.254164    0.122963
 ---------------------------------------------------------------------

 SCF Done:  E(RB3LYP) =  -640.924743749     A.U. after    1 cycles

 The electronic state is 1-A.
 Alpha  occ. eigenvalues --  -19.15925 -19.15539 -14.57482 -14.39013 -14.38399
 Alpha  occ. eigenvalues --  -14.35375 -10.33496 -10.25988 -10.21553 -10.21494
 Alpha  occ. eigenvalues --  -10.21468 -10.21412 -10.21067  -1.21159  -1.03496
 Alpha  occ. eigenvalues --   -1.01713  -0.93892  -0.91171  -0.86839  -0.77077
 Alpha  occ. eigenvalues --   -0.77009  -0.70480  -0.65014  -0.63476  -0.61283
 Alpha  occ. eigenvalues --   -0.56902  -0.55188  -0.53514  -0.52303  -0.50689
 Alpha  occ. eigenvalues --   -0.50545  -0.48636  -0.47308  -0.45916  -0.44572
 Alpha  occ. eigenvalues --   -0.43062  -0.39197  -0.38502  -0.37061  -0.33271
 Alpha  occ. eigenvalues --   -0.31881  -0.29376  -0.28998  -0.27606  -0.27235
 Alpha  occ. eigenvalues --   -0.26158  -0.24405
 Alpha virt. eigenvalues --   -0.05771  -0.02775  -0.01896   0.04908   0.07062
 Alpha virt. eigenvalues --    0.07855   0.10748   0.12153   0.13093   0.13865
 Alpha virt. eigenvalues --    0.15288   0.16663   0.17001   0.18322   0.20935

 Mulliken charges:
               1
     1  O   -0.475291
     2  N    0.587889
     3  N   -0.414891
     4  O   -0.386602
     5  C    0.737067
     6  N   -0.625382
     7  H    0.300324
     8  H    0.282187
     9  N   -0.622320
    10  C    0.253210
    11  H    0.322964
    12  C   -0.100752
    13  C   -0.090664
    14  H    0.101005
    15  H    0.106349
    16  C   -0.114002
    17  H    0.117438
    18  C   -0.094963
    19  H    0.099586
    20  C   -0.079622
    21  H    0.096469
 Sum of Mulliken charges =  -0.00000

 Dipole moment (field-independent basis, Debye):
    X=              7.0969    Y=              2.3701    Z=             -1.6586  Tot=              7.6638
 Quadrupole moment (field-independent basis, Debye-Ang):
   XX=            -89.7457   YY=            -67.3429   ZZ=            -72.8900
   XY=             -4.1319   XZ=              2.1119   YZ=              0.1795

  Exact polarizability: 182.510  -0.406 104.871  -0.680   9.075  52.518
 Approx polarizability: 275.228  -3.247 186.143  -1.444  18.529  83.806

                      1                      2                      3
                      A                      A                      A
 Frequencies --     42.4162                43.8166                81.4695
 Red. masses --      7.6153                 4.9875                 7.1079
 Frc consts  --      0.0081                 0.0056                 0.0278
 IR Inten    --      1.1116                 2.2269                 1.5388

                      4                      5                      6
                      A                      A                      A
 Frequencies --    116.7544               188.6045               210.8093
 Red. masses --      5.6846                 8.0790                 6.8148
 Frc consts  --      0.0457                 0.1693                 0.1784
 IR Inten    --      1.0134                 1.1603                 4.7764

                      7                      8                      9
                      A                      A                      A
 Frequencies --    280.5053               368.3500               380.4556
 Red. masses --      5.0406                 3.9992                 5.7907
 Frc consts  --      0.2337                 0.3197                 0.4938
 IR Inten    --      4.0772                 2.4797                 7.1328

                     10                     11                     12
                      A                      A                      A
 Frequencies --    411.4486               439.3174               457.9426
 Red. masses --      2.1066                 1.5770                 3.8921
 Frc consts  --      0.2101                 0.1793                 0.4809
 IR Inten    --     54.9199               116.8251                 1.2546

                     13                     14                     15
                      A                      A                      A
 Frequencies --    512.3936               531.9989               587.8402
 Red. masses --      3.0525                 1.2243                 7.0366
 Frc consts  --      0.4722                 0.2042                 1.4326
 IR Inten    --     19.3886                74.5731                13.7987

                     16                     17                     18
                      A                      A                      A
 Frequencies --    630.8026               684.6889               704.7991
 Red. masses --      6.2968                 3.1880                 3.9467
 Frc consts  --      1.4762                 0.8805                 1.1551
 IR Inten    --      0.7925                 7.4829                 6.1292

                     19                     20                     21
                      A                      A                      A
 Frequencies --    717.0017               754.2784               770.6967
 Red. masses --      2.2247                 1.8056                 2.6034
 Frc consts  --      0.6738                 0.6052                 0.9111
 IR Inten    --      8.7605                96.7852                10.2777

                     22                     23                     24
                      A                      A                      A
 Frequencies --    776.8815               785.0065               855.5660
 Red. masses --      2.4792                 8.0285                 1.3004
 Frc consts  --      0.8816                 2.9150                 0.5608
 IR Inten    --     67.4470                 5.0638                 0.1613

                     25                     26                     27
                      A                      A                      A
 Frequencies --    875.3117               931.6170               941.5785
 Red. masses --      3.8096                 1.4436                 6.4853
 Frc consts  --      1.7197                 0.7382                 3.3876
 IR Inten    --      7.7349                 4.9020                42.7885

                     28                     29                     30
                      A                      A                      A
 Frequencies --    977.5791              1001.3533              1016.1811
 Red. masses --      1.3360                 1.2544                 6.0386
 Frc consts  --      0.7522                 0.7411                 3.6739
 IR Inten    --      0.3149                 0.3375                 0.7817

                     31                     32                     33
                      A                      A                      A
 Frequencies --   1050.9889              1064.1595              1113.5751
 Red. masses --      2.7040                 2.1745                 1.5509
 Frc consts  --      1.7598                 1.4508                 1.1331
 IR Inten    --      0.3864                13.2746                 3.1044

                     34                     35                     36
                      A                      A                      A
 Frequencies --   1170.4197              1189.3463              1204.9767
 Red. masses --      2.0579                 1.1007                 1.2713
 Frc consts  --      1.6610                 0.9173                 1.0875
 IR Inten    --     20.5483                 1.4509                68.8568

                     37                     38                     39
                      A                      A                      A
 Frequencies --   1214.1726              1317.4306              1338.0756
 Red. masses --      2.2054                 5.1597                 2.6498
 Frc consts  --      1.9156                 5.2763                 2.7953
 IR Inten    --    243.5951               177.8549                11.6232

                     40                     41                     42
                      A                      A                      A
 Frequencies --   1363.8834              1408.7512              1492.7522
 Red. masses --      2.2897                 2.4186                 2.4517
 Frc consts  --      2.5095                 2.8280                 3.2189
 IR Inten    --      0.9774                37.6049                70.8594

                     43                     44                     45
                      A                      A                      A
 Frequencies --   1513.4960              1541.4336              1611.1471
 Red. masses --      2.8890                 2.3370                 5.0370
 Frc consts  --      3.8991                 3.2715                 7.7036
 IR Inten    --    112.0496                54.2035               952.9117

                     46                     47                     48
                      A                      A                      A
 Frequencies --   1628.8845              1642.9186              1662.1132
 Red. masses --      2.3847                 3.9067                 5.4257
 Frc consts  --      3.7279                 6.2129                 8.8313
 IR Inten    --    397.7559               169.0100                17.0586

                     49                     50                     51
                      A                      A                      A
 Frequencies --   1683.5306              3187.4020              3193.7789
 Red. masses --      2.3919                 1.0856                 1.0888
 Frc consts  --      3.9943                 6.4980                 6.5437
 IR Inten    --    269.2403                 2.4838                 3.7077

                     52                     53                     54
                      A                      A                      A
 Frequencies --   3203.0688              3212.5867              3218.9460
 Red. masses --      1.0930                 1.0958                 1.0961
 Frc consts  --      6.6070                 6.6635                 6.6913
 IR Inten    --     14.4300                14.7095                 3.5238

                     55                     56                     57
                      A                      A                      A
 Frequencies --   3363.6054              3594.9010              3724.8544
 Red. masses --      1.0789                 1.0456                 1.1040
 Frc consts  --      7.1919                 7.9617                 9.0250
 IR Inten    --    334.4030                56.6985                82.9295

 - Thermochemistry -
 -------------------
 Temperature   298.150 Kelvin.  Pressure   1.00000 Atm.
 Atom     1 has atomic number  8 and mass  15.99491

 Molecular mass:   180.06473 amu.
 Principal axes and moments of inertia in atomic units:
                           1         2         3
     Eigenvalues --   823.058664508.247315107.02112
           X            0.99999  -0.00510   0.00199
           Y            0.00507   0.99986   0.01570
           Z           -0.00207  -0.01569   0.99987
 This molecule is an asymmetric top.
 Rotational symmetry number  1.
 Warning -- assumption of classical behavior for rotation
           may cause significant error
 Rotational temperatures (Kelvin)      0.10523     0.01921     0.01696
 Rotational constants (GHZ):           2.19272     0.40032     0.35338
 Zero-point vibrational energy     418625.2 (Joules/Mol)
                                  100.05382 (Kcal/Mol)
 Warning -- explicit consideration of  15 degrees of freedom as
           vibrations may cause significant error
 Vibrational temperatures:     61.03    63.04   117.22   167.98   271.36
          (Kelvin)            303.31   403.58   529.97   547.39   591.98
                              632.08   658.88   737.22   765.43   845.77
                              907.58   985.11  1014.05  1031.60  1085.24
                             1108.86  1117.76  1129.45  1230.97  1259.38
                             1340.39  1354.72  1406.52  1440.72  1462.06
                             1512.14  1531.09  1602.18  1683.97  1711.20
                             1733.69  1746.92  1895.49  1925.19  1962.32
                             2026.88  2147.73  2177.58  2217.78  2318.08
                             2343.60  2363.79  2391.41  2422.22  4585.95
                             4595.13  4608.50  4622.19  4631.34  4839.47
                             5172.25  5359.23

 Zero-point correction=                           0.159446 (Hartree/Particle)
 Thermal correction to Energy=                    0.170471
 Thermal correction to Enthalpy=                  0.171416
 Thermal correction to Gibbs Free Energy=         0.121162
 Sum of electronic and zero-point Energies=           -640.765298
 Sum of electronic and thermal Energies=              -640.754272
 Sum of electronic and thermal Enthalpies=            -640.753328
 Sum of electronic and thermal Free Energies=         -640.803581

                     E (Thermal)             CV                S
                      KCal/Mol        Cal/Mol-Kelvin    Cal/Mol-Kelvin
 Total                  106.972             41.938            105.767
 Electronic               0.000              0.000              0.000
 Translational            0.889              2.981             41.471
 Rotational               0.889              2.981             31.317
 Vibrational            105.195             35.976             32.979
 Vibration     1          0.595              1.980              5.143
 Vibration     2          0.595              1.980              5.079
 Vibration     3          0.600              1.962              3.855
 Vibration     4          0.608              1.935              3.153
 Vibration     5          0.633              1.856              2.242
 Vibration     6          0.643              1.824              2.037
 Vibration     7          0.680              1.710              1.531
 Vibration     8          0.741              1.537              1.087
 Vibration     9          0.750              1.512              1.037
 Vibration    10          0.775              1.445              0.922
 Vibration    11          0.799              1.384              0.829
 Vibration    12          0.816              1.343              0.772
 Vibration    13          0.867              1.223              0.628
 Vibration    14          0.887              1.179              0.583
 Vibration    15          0.945              1.058              0.471

 Normal termination of Gaussian 09 at Fri Aug 20 15:56:18 2021.
