 Gaussian 09, Revision E.01,
 Gaussian 09:  ES64L-G09RevE.01 30-Nov-2015

 -------------------------
 #P OPT Freq B3LYP/6-31G**
 -------------------------

 --------
 MNPYDO29
 --------
 Symbolic Z-matrix:
 Charge =  0 Multiplicity = 1

 SCF Done:  E(RB3LYP) =  -567.160120375     A.U. after   17 cycles
 SCF Done:  E(RB3LYP) =  -567.239802675     A.U. after   14 cycles
 SCF Done:  E(RB3LYP) =  -567.270967619     A.U. after   15 cycles
 SCF Done:  E(RB3LYP) =  -567.269431055     A.U. after   15 cycles
 SCF Done:  E(RB3LYP) =  -567.271589312     A.U. after   12 cycles
 SCF Done:  E(RB3LYP) =  -567.271401231     A.U. after   15 cycles
 SCF Done:  E(RB3LYP) =  -567.272000717     A.U. after   10 cycles
 SCF Done:  E(RB3LYP) =  -567.272093127     A.U. after   13 cycles
 SCF Done:  E(RB3LYP) =  -567.272121705     A.U. after   13 cycles
 SCF Done:  E(RB3LYP) =  -567.272132652     A.U. after   12 cycles
 SCF Done:  E(RB3LYP) =  -567.272147017     A.U. after   13 cycles
 SCF Done:  E(RB3LYP) =  -567.272160025     A.U. after   12 cycles
 SCF Done:  E(RB3LYP) =  -567.272164765     A.U. after   12 cycles
 SCF Done:  E(RB3LYP) =  -567.272165033     A.U. after    8 cycles
 Optimization completed.
    -- Stationary point found.
 Normal termination of Gaussian 09 at Fri Aug 20 16:00:38 2021.

 ----------------------------------------------------------------------
 #P Geom=AllCheck Guess=TCheck SCRF=Check GenChk RB3LYP/6-31G(d,p) Freq
 ----------------------------------------------------------------------

 Structure from the checkpoint file:  "/public/home/users/caep010/.cache/gau_scr/Gau-148041.chk"
 --------
 MNPYDO29
 --------
 Charge =  0 Multiplicity = 1

                         Standard orientation:
 ---------------------------------------------------------------------
 Center     Atomic      Atomic             Coordinates (Angstroms)
 Number     Number       Type             X           Y           Z
 ---------------------------------------------------------------------
      1          7           0        2.190138   -0.152276   -0.000059
      2          6           0        1.429217    0.993286   -0.000274
      3          1           0        2.023640    1.896582   -0.000630
      4          6           0        0.042005    0.994276   -0.000017
      5          6           0       -0.590357   -0.268331    0.000317
      6          6           0        0.178871   -1.436396    0.000622
      7          1           0       -0.319666   -2.396701    0.000848
      8          6           0        1.549952   -1.371228    0.000524
      9          1           0        2.215971   -2.222253    0.000854
     10          8           0        3.454087   -0.086166   -0.000319
     11          6           0       -0.652270    2.332668   -0.000144
     12          1           0        0.087778    3.136148    0.000299
     13          1           0       -1.298021    2.440457   -0.874366
     14          1           0       -1.299100    2.440077    0.873046
     15          7           0       -2.040414   -0.430864   -0.000034
     16          8           0       -2.744161    0.582472    0.000955
     17          8           0       -2.485322   -1.581053   -0.001331
 ---------------------------------------------------------------------

 SCF Done:  E(RB3LYP) =  -567.272165033     A.U. after    1 cycles

 The electronic state is 1-A.
 Alpha  occ. eigenvalues --  -19.18827 -19.18732 -19.15420 -14.58218 -14.51499
 Alpha  occ. eigenvalues --  -10.27215 -10.26192 -10.26170 -10.25974 -10.24569
 Alpha  occ. eigenvalues --  -10.21143  -1.23186  -1.14203  -1.05788  -0.93486
 Alpha  occ. eigenvalues --   -0.85452  -0.82938  -0.76110  -0.72358  -0.66990
 Alpha  occ. eigenvalues --   -0.62740  -0.56731  -0.55869  -0.54224  -0.51511
 Alpha  occ. eigenvalues --   -0.50952  -0.49913  -0.49341  -0.46534  -0.44581
 Alpha  occ. eigenvalues --   -0.44030  -0.41870  -0.40468  -0.36443  -0.31654
 Alpha  occ. eigenvalues --   -0.31650  -0.30200  -0.29775  -0.27699  -0.24653
 Alpha virt. eigenvalues --   -0.10654  -0.04880  -0.03242   0.07526   0.09533
 Alpha virt. eigenvalues --    0.09676   0.11516   0.13504   0.15861   0.16725
 Alpha virt. eigenvalues --    0.17497   0.19118   0.20822   0.24112   0.25049

 Mulliken charges:
               1
     1  N   -0.020442
     2  C    0.085843
     3  H    0.146474
     4  C    0.080118
     5  C    0.239242
     6  C   -0.135147
     7  H    0.161207
     8  C    0.122030
     9  H    0.154045
    10  O   -0.474056
    11  C   -0.349367
    12  H    0.111066
    13  H    0.154253
    14  H    0.154358
    15  N    0.381027
    16  O   -0.409224
    17  O   -0.401428
 Sum of Mulliken charges =   0.00000

 Dipole moment (field-independent basis, Debye):
    X=              0.8334    Y=              0.8324    Z=              0.0013  Tot=              1.1779
 Quadrupole moment (field-independent basis, Debye-Ang):
   XX=            -85.1506   YY=            -54.5122   ZZ=            -61.2938
   XY=             -3.2114   XZ=              0.0009   YZ=             -0.0084

  Exact polarizability: 141.595  -1.612 100.452  -0.002  -0.002  36.960
 Approx polarizability: 306.107   0.352 182.186  -0.020   0.021  57.160

                      1                      2                      3
                      A                      A                      A
 Frequencies --     39.3314               104.5968               207.0869
 Red. masses --      8.2453                 7.8100                 2.5324
 Frc consts  --      0.0075                 0.0503                 0.0640
 IR Inten    --      0.0590                10.1743                 0.0648

                      4                      5                      6
                      A                      A                      A
 Frequencies --    240.8379               252.0074               296.4025
 Red. masses --      1.1668                 9.1402                 6.7559
 Frc consts  --      0.0399                 0.3420                 0.3497
 IR Inten    --      0.3154                 7.8799                 0.6311

                      7                      8                      9
                      A                      A                      A
 Frequencies --    334.6387               364.6653               459.2081
 Red. masses --      3.6525                 8.6384                 3.1274
 Frc consts  --      0.2410                 0.6768                 0.3885
 IR Inten    --      0.6240                 0.8391                 1.2947

                     10                     11                     12
                      A                      A                      A
 Frequencies --    466.4670               543.5800               584.7834
 Red. masses --     10.2321                 5.3040                 3.6054
 Frc consts  --      1.3118                 0.9234                 0.7264
 IR Inten    --      7.4857                 2.4981                 0.0013

                     13                     14                     15
                      A                      A                      A
 Frequencies --    612.0153               651.8301               691.7592
 Red. masses --      4.6127                 7.5509                 3.3493
 Frc consts  --      1.0180                 1.8902                 0.9443
 IR Inten    --      0.2523                30.6546                 7.8472

                     16                     17                     18
                      A                      A                      A
 Frequencies --    759.4173               764.6560               836.3919
 Red. masses --      7.1754                 6.5283                 1.3945
 Frc consts  --      2.4381                 2.2490                 0.5747
 IR Inten    --     15.7401                 3.8261                 7.8032

                     19                     20                     21
                      A                      A                      A
 Frequencies --    855.0552               867.4601               974.1146
 Red. masses --      8.7413                 1.5766                 1.2866
 Frc consts  --      3.7654                 0.6990                 0.7193
 IR Inten    --     14.7673                35.8152                 0.9298

                     22                     23                     24
                      A                      A                      A
 Frequencies --    989.3967              1048.3230              1061.8476
 Red. masses --      2.7816                 1.5134                 1.5078
 Frc consts  --      1.6043                 0.9799                 1.0016
 IR Inten    --      0.6160                 1.5557                 4.5656

                     25                     26                     27
                      A                      A                      A
 Frequencies --   1111.8063              1179.0148              1203.4412
 Red. masses --      3.0882                 1.7426                 2.1961
 Frc consts  --      2.2491                 1.4272                 1.8739
 IR Inten    --    124.6683                 4.5926                 0.6657

                     28                     29                     30
                      A                      A                      A
 Frequencies --   1275.0316              1299.9297              1375.1988
 Red. masses --      2.6792                 2.0144                10.3050
 Frc consts  --      2.5663                 2.0056                11.4823
 IR Inten    --     28.0650                 3.8453               602.0690

                     31                     32                     33
                      A                      A                      A
 Frequencies --   1401.4074              1430.8352              1463.8376
 Red. masses --      3.9802                 1.2406                 2.0682
 Frc consts  --      4.6056                 1.4965                 2.6111
 IR Inten    --      0.8377                 4.3359                 6.6691

                     34                     35                     36
                      A                      A                      A
 Frequencies --   1486.1705              1509.8040              1520.3854
 Red. masses --      1.0445                 1.6221                 2.8256
 Frc consts  --      1.3593                 2.1786                 3.8483
 IR Inten    --      7.1316                88.6278                14.0039

                     37                     38                     39
                      A                      A                      A
 Frequencies --   1565.9019              1638.2258              1670.0462
 Red. masses --      9.2854                10.8789                 6.1509
 Frc consts  --     13.4147                17.2022                10.1075
 IR Inten    --     29.8342               201.7266               120.9794

                     40                     41                     42
                      A                      A                      A
 Frequencies --   3069.7058              3144.5925              3150.4852
 Red. masses --      1.0356                 1.1006                 1.1045
 Frc consts  --      5.7494                 6.4121                 6.4590
 IR Inten    --      8.2687                 2.7796                14.1228

                     43                     44                     45
                      A                      A                      A
 Frequencies --   3253.3051              3260.0077              3273.2648
 Red. masses --      1.0903                 1.0927                 1.0963
 Frc consts  --      6.7990                 6.8421                 6.9203
 IR Inten    --      5.3937                 0.2922                 2.5037

 - Thermochemistry -
 -------------------
 Temperature   298.150 Kelvin.  Pressure   1.00000 Atm.
 Atom     1 has atomic number  7 and mass  14.00307

 Molecular mass:   154.03784 amu.
 Principal axes and moments of inertia in atomic units:
                           1         2         3
     Eigenvalues --   797.070952188.314572974.39572
           X            0.99987  -0.01611   0.00000
           Y            0.01611   0.99987  -0.00003
           Z           -0.00000   0.00003   1.00000
 This molecule is an asymmetric top.
 Rotational symmetry number  1.
 Warning -- assumption of classical behavior for rotation
           may cause significant error
 Rotational temperatures (Kelvin)      0.10867     0.03958     0.02912
 Rotational constants (GHZ):           2.26422     0.82472     0.60676
 Zero-point vibrational energy     324716.0 (Joules/Mol)
                                   77.60898 (Kcal/Mol)
 Warning -- explicit consideration of  13 degrees of freedom as
           vibrations may cause significant error
 Vibrational temperatures:     56.59   150.49   297.95   346.51   362.58
          (Kelvin)            426.46   481.47   524.67   660.70   671.14
                              782.09   841.37   880.55   937.84   995.29
                             1092.63  1100.17  1203.38  1230.23  1248.08
                             1401.53  1423.52  1508.30  1527.76  1599.64
                             1696.34  1731.48  1834.48  1870.31  1978.60
                             2016.31  2058.65  2106.13  2138.27  2172.27
                             2187.49  2252.98  2357.04  2402.82  4416.62
                             4524.36  4532.84  4680.77  4690.42  4709.49

 Zero-point correction=                           0.123678 (Hartree/Particle)
 Thermal correction to Energy=                    0.132692
 Thermal correction to Enthalpy=                  0.133637
 Thermal correction to Gibbs Free Energy=         0.088793
 Sum of electronic and zero-point Energies=           -567.148487
 Sum of electronic and thermal Energies=              -567.139473
 Sum of electronic and thermal Enthalpies=            -567.138529
 Sum of electronic and thermal Free Energies=         -567.183372

                     E (Thermal)             CV                S
                      KCal/Mol        Cal/Mol-Kelvin    Cal/Mol-Kelvin
 Total                   83.266             34.085             94.382
 Electronic               0.000              0.000              0.000
 Translational            0.889              2.981             41.006
 Rotational               0.889              2.981             30.029
 Vibrational             81.488             28.123             23.346
 Vibration     1          0.594              1.981              5.292
 Vibration     2          0.605              1.946              3.367
 Vibration     3          0.641              1.830              2.069
 Vibration     4          0.658              1.778              1.797
 Vibration     5          0.664              1.759              1.716
 Vibration     6          0.690              1.680              1.437
 Vibration     7          0.716              1.606              1.238
 Vibration     8          0.738              1.545              1.102
 Vibration     9          0.817              1.341              0.768
 Vibration    10          0.824              1.324              0.748
 Vibration    11          0.899              1.154              0.558
 Vibration    12          0.942              1.064              0.477
 Vibration    13          0.971              1.006              0.429

 Normal termination of Gaussian 09 at Fri Aug 20 16:01:00 2021.
