 Gaussian 09, Revision E.01,
 Gaussian 09:  ES64L-G09RevE.01 30-Nov-2015

 -------------------------
 #P OPT Freq B3LYP/6-31G**
 -------------------------

 ------
 NABMOS
 ------
 Symbolic Z-matrix:
 Charge =  0 Multiplicity = 1

 SCF Done:  E(RB3LYP) =  -637.491973440     A.U. after   16 cycles
 SCF Done:  E(RB3LYP) =  -637.564487171     A.U. after   14 cycles
 SCF Done:  E(RB3LYP) =  -637.584971425     A.U. after   15 cycles
 SCF Done:  E(RB3LYP) =  -637.580699052     A.U. after   16 cycles
 SCF Done:  E(RB3LYP) =  -637.593251317     A.U. after   12 cycles
 SCF Done:  E(RB3LYP) =  -637.594562749     A.U. after   14 cycles
 SCF Done:  E(RB3LYP) =  -637.592876540     A.U. after   14 cycles
 SCF Done:  E(RB3LYP) =  -637.595079941     A.U. after   11 cycles
 SCF Done:  E(RB3LYP) =  -637.595482978     A.U. after   12 cycles
 SCF Done:  E(RB3LYP) =  -637.595680478     A.U. after   13 cycles
 SCF Done:  E(RB3LYP) =  -637.595729114     A.U. after   12 cycles
 SCF Done:  E(RB3LYP) =  -637.595740640     A.U. after   10 cycles
 SCF Done:  E(RB3LYP) =  -637.595742667     A.U. after   10 cycles
 SCF Done:  E(RB3LYP) =  -637.595742965     A.U. after    8 cycles
 SCF Done:  E(RB3LYP) =  -637.595743039     A.U. after    8 cycles
 Optimization completed.
    -- Stationary point found.
 Normal termination of Gaussian 09 at Fri Aug 20 15:37:21 2021.

 ----------------------------------------------------------------------
 #P Geom=AllCheck Guess=TCheck SCRF=Check GenChk RB3LYP/6-31G(d,p) Freq
 ----------------------------------------------------------------------

 Structure from the checkpoint file:  "/public/home/users/caep010/.cache/gau_scr/Gau-167516.chk"
 ------
 NABMOS
 ------
 Charge =  0 Multiplicity = 1

                         Standard orientation:
 ---------------------------------------------------------------------
 Center     Atomic      Atomic             Coordinates (Angstroms)
 Number     Number       Type             X           Y           Z
 ---------------------------------------------------------------------
      1          7           0       -1.090156    0.128312    0.300462
      2          7           0       -2.373062   -0.314516    0.042544
      3          8           0       -3.233246    0.552276   -0.090406
      4          6           0       -0.761909    1.512379   -0.067095
      5          6           0        0.761919    1.512372    0.067215
      6          7           0        1.090114    0.128234   -0.300028
      7          7           0        2.372990   -0.314534   -0.042682
      8          8           0        2.532994   -1.533313   -0.013360
      9          8           0        3.233278    0.552331    0.089859
     10          6           0       -0.000017   -0.807868    0.000427
     11          8           0       -2.532937   -1.533295    0.013087
     12          1           0       -0.237472   -1.445073   -0.855930
     13          1           0        0.237536   -1.444670    0.857076
     14          1           0        1.087357    1.730603    1.091030
     15          1           0        1.246312    2.215406   -0.610729
     16          1           0       -1.246256    2.215584    0.610713
     17          1           0       -1.087353    1.730381   -1.090951
 ---------------------------------------------------------------------

 SCF Done:  E(RB3LYP) =  -637.595743039     A.U. after    1 cycles

 The electronic state is 1-A.
 Alpha  occ. eigenvalues --  -19.19660 -19.19656 -19.19650 -19.19647 -14.61725
 Alpha  occ. eigenvalues --  -14.61723 -14.44044 -14.44043 -10.30400 -10.27501
 Alpha  occ. eigenvalues --  -10.27479  -1.26042  -1.25902  -1.07827  -1.07794
 Alpha  occ. eigenvalues --   -1.04473  -0.97121  -0.83061  -0.78927  -0.71458
 Alpha  occ. eigenvalues --   -0.62882  -0.62796  -0.59003  -0.58736  -0.56721
 Alpha  occ. eigenvalues --   -0.56473  -0.53792  -0.53306  -0.51165  -0.48573
 Alpha  occ. eigenvalues --   -0.46901  -0.46100  -0.44543  -0.43696  -0.34670
 Alpha  occ. eigenvalues --   -0.33647  -0.32757  -0.32660  -0.31023  -0.30931
 Alpha  occ. eigenvalues --   -0.30848  -0.29548
 Alpha virt. eigenvalues --   -0.06616  -0.06580   0.05030   0.07785   0.09147
 Alpha virt. eigenvalues --    0.09150   0.10565   0.12354   0.12492   0.13529
 Alpha virt. eigenvalues --    0.16804   0.16987   0.20864   0.21715   0.22763

 Mulliken charges:
               1
     1  N   -0.355566
     2  N    0.651359
     3  O   -0.409294
     4  C   -0.046860
     5  C   -0.046872
     6  N   -0.355496
     7  N    0.651327
     8  O   -0.408447
     9  O   -0.409358
    10  C    0.174282
    11  O   -0.408414
    12  H    0.169566
    13  H    0.169532
    14  H    0.150244
    15  H    0.161881
    16  H    0.161866
    17  H    0.150248
 Sum of Mulliken charges =  -0.00000

 Dipole moment (field-independent basis, Debye):
    X=             -0.0014    Y=              2.9844    Z=              0.0009  Tot=              2.9844
 Quadrupole moment (field-independent basis, Debye-Ang):
   XX=            -87.3611   YY=            -61.1946   ZZ=            -59.0620
   XY=              0.0003   XZ=             -0.3063   YZ=             -0.0007

  Exact polarizability:  94.736  -0.001  82.332   3.522  -0.001  43.683
 Approx polarizability: 134.779  -0.001 155.835   9.437  -0.002  67.798

                      1                      2                      3
                      A                      A                      A
 Frequencies --     50.5696                97.8239               151.4074
 Red. masses --      6.0371                 9.4253                 3.6003
 Frc consts  --      0.0091                 0.0531                 0.0486
 IR Inten    --      8.3925                 0.0916                 0.9701

                      4                      5                      6
                      A                      A                      A
 Frequencies --    159.8015               167.4351               230.6242
 Red. masses --      4.3616                 8.9435                 2.8622
 Frc consts  --      0.0656                 0.1477                 0.0897
 IR Inten    --      0.1730                 8.1266                23.1390

                      7                      8                      9
                      A                      A                      A
 Frequencies --    253.6041               296.2297               350.3033
 Red. masses --      2.9926                 6.2619                12.0867
 Frc consts  --      0.1134                 0.3238                 0.8739
 IR Inten    --      2.7853                 1.1983                 0.0007

                     10                     11                     12
                      A                      A                      A
 Frequencies --    477.9637               578.6174               646.3846
 Red. masses --      5.4057                 9.6552                 5.3351
 Frc consts  --      0.7276                 1.9046                 1.3133
 IR Inten    --      4.3572                 7.9252                 3.1100

                     13                     14                     15
                      A                      A                      A
 Frequencies --    718.7559               758.9675               779.1454
 Red. masses --      3.3315                10.2233                11.2758
 Frc consts  --      1.0140                 3.4697                 4.0331
 IR Inten    --      6.6254                 3.2073                37.4368

                     16                     17                     18
                      A                      A                      A
 Frequencies --    784.2821               852.6841               875.5759
 Red. masses --     12.3665                 2.9974                 6.7945
 Frc consts  --      4.4817                 1.2840                 3.0690
 IR Inten    --      0.9706                36.0363                 0.0896

                     19                     20                     21
                      A                      A                      A
 Frequencies --    919.8903              1005.8322              1092.5484
 Red. masses --      1.9631                 2.0331                 2.0264
 Frc consts  --      0.9787                 1.2119                 1.4251
 IR Inten    --      1.9838                 1.3986                26.7717

                     22                     23                     24
                      A                      A                      A
 Frequencies --   1115.1188              1121.1046              1138.4829
 Red. masses --      2.4678                 1.8019                 3.1768
 Frc consts  --      1.8080                 1.3343                 2.4260
 IR Inten    --    124.2733                10.1693                 0.4694

                     25                     26                     27
                      A                      A                      A
 Frequencies --   1192.5923              1219.8127              1236.5808
 Red. masses --      1.1405                 1.1993                 1.9976
 Frc consts  --      0.9558                 1.0514                 1.7998
 IR Inten    --      7.5398                47.7011                 3.0555

                     28                     29                     30
                      A                      A                      A
 Frequencies --   1249.9862              1289.4930              1328.4754
 Red. masses --      7.2423                 2.4274                 3.1035
 Frc consts  --      6.6671                 2.3781                 3.2271
 IR Inten    --      5.1119                23.3852               631.8309

                     31                     32                     33
                      A                      A                      A
 Frequencies --   1346.0942              1357.4425              1407.6426
 Red. masses --      1.3801                 3.2143                 2.6641
 Frc consts  --      1.4733                 3.4896                 3.1102
 IR Inten    --     67.9243                48.0779                32.2657

                     34                     35                     36
                      A                      A                      A
 Frequencies --   1423.5298              1524.7035              1533.6675
 Red. masses --      2.0576                 1.0863                 1.0865
 Frc consts  --      2.4567                 1.4879                 1.5057
 IR Inten    --    124.2996                 3.2585                 0.0318

                     37                     38                     39
                      A                      A                      A
 Frequencies --   1555.6671              1659.0733              1664.7115
 Red. masses --      1.0836                14.3651                14.2606
 Frc consts  --      1.5451                23.2965                23.2844
 IR Inten    --      0.9105                63.9124               460.7895

                     40                     41                     42
                      A                      A                      A
 Frequencies --   3058.7868              3065.7154              3076.2174
 Red. masses --      1.0713                 1.0652                 1.0562
 Frc consts  --      5.9053                 5.8984                 5.8888
 IR Inten    --     12.8625                15.2426                 4.0019

                     43                     44                     45
                      A                      A                      A
 Frequencies --   3123.4920              3147.7315              3153.6980
 Red. masses --      1.1126                 1.0973                 1.1018
 Frc consts  --      6.3953                 6.4056                 6.4563
 IR Inten    --      6.5611                 5.0077                 7.2414

 - Thermochemistry -
 -------------------
 Temperature   298.150 Kelvin.  Pressure   1.00000 Atm.
 Atom     1 has atomic number  7 and mass  14.00307

 Molecular mass:   162.03890 amu.
 Principal axes and moments of inertia in atomic units:
                           1         2         3
     Eigenvalues --   637.391412706.138953289.41622
           X            1.00000   0.00000   0.00169
           Y           -0.00000   1.00000  -0.00000
           Z           -0.00169   0.00000   1.00000
 This molecule is an asymmetric top.
 Rotational symmetry number  1.
 Warning -- assumption of classical behavior for rotation
           may cause significant error
 Rotational temperatures (Kelvin)      0.13589     0.03201     0.02633
 Rotational constants (GHZ):           2.83145     0.66691     0.54865
 Zero-point vibrational energy     324416.9 (Joules/Mol)
                                   77.53749 (Kcal/Mol)
 Warning -- explicit consideration of  11 degrees of freedom as
           vibrations may cause significant error
 Vibrational temperatures:     72.76   140.75   217.84   229.92   240.90
          (Kelvin)            331.82   364.88   426.21   504.01   687.68
                              832.50   930.00  1034.13  1091.98  1121.01
                             1128.41  1226.82  1259.76  1323.52  1447.17
                             1571.93  1604.41  1613.02  1638.02  1715.87
                             1755.04  1779.16  1798.45  1855.29  1911.38
                             1936.73  1953.05  2025.28  2048.14  2193.71
                             2206.60  2238.26  2387.03  2395.15  4400.91
                             4410.88  4425.99  4494.00  4528.88  4537.46

 Zero-point correction=                           0.123564 (Hartree/Particle)
 Thermal correction to Energy=                    0.132980
 Thermal correction to Enthalpy=                  0.133924
 Thermal correction to Gibbs Free Energy=         0.087802
 Sum of electronic and zero-point Energies=           -637.472179
 Sum of electronic and thermal Energies=              -637.462763
 Sum of electronic and thermal Enthalpies=            -637.461819
 Sum of electronic and thermal Free Energies=         -637.507941

                     E (Thermal)             CV                S
                      KCal/Mol        Cal/Mol-Kelvin    Cal/Mol-Kelvin
 Total                   83.446             33.350             97.072
 Electronic               0.000              0.000              0.000
 Translational            0.889              2.981             41.157
 Rotational               0.889              2.981             30.118
 Vibrational             81.669             27.388             25.797
 Vibration     1          0.595              1.977              4.795
 Vibration     2          0.603              1.951              3.497
 Vibration     3          0.619              1.901              2.654
 Vibration     4          0.622              1.892              2.552
 Vibration     5          0.624              1.883              2.464
 Vibration     6          0.652              1.794              1.874
 Vibration     7          0.665              1.757              1.705
 Vibration     8          0.690              1.681              1.438
 Vibration     9          0.727              1.575              1.165
 Vibration    10          0.834              1.299              0.716
 Vibration    11          0.935              1.078              0.488

 Optimization completed.
    -- Stationary point found.
 Normal termination of Gaussian 09 at Fri Aug 20 15:37:45 2021.
