 Gaussian 09, Revision E.01,
 Gaussian 09:  ES64L-G09RevE.01 30-Nov-2015

 -------------------------
 #P OPT Freq B3LYP/6-31G**
 -------------------------

 ------
 SORBUW
 ------
 Symbolic Z-matrix:
 Charge =  0 Multiplicity = 1

 SCF Done:  E(RB3LYP) =  -645.644486709     A.U. after   15 cycles
 SCF Done:  E(RB3LYP) =  -645.712647177     A.U. after   13 cycles
 SCF Done:  E(RB3LYP) =  -645.733470245     A.U. after   14 cycles
 SCF Done:  E(RB3LYP) =  -645.733971702     A.U. after   12 cycles
 SCF Done:  E(RB3LYP) =  -645.734121698     A.U. after   12 cycles
 SCF Done:  E(RB3LYP) =  -645.734178783     A.U. after   11 cycles
 SCF Done:  E(RB3LYP) =  -645.734196325     A.U. after    9 cycles
 SCF Done:  E(RB3LYP) =  -645.734199466     A.U. after    8 cycles
 Optimization completed.
    -- Stationary point found.
 Normal termination of Gaussian 09 at Fri Aug 20 15:49:54 2021.

 ----------------------------------------------------------------------
 #P Geom=AllCheck Guess=TCheck SCRF=Check GenChk RB3LYP/6-31G(d,p) Freq
 ----------------------------------------------------------------------

 Structure from the checkpoint file:  "/public/home/users/caep010/.cache/gau_scr/Gau-57601.chk"
 ------
 SORBUW
 ------
 Charge =  0 Multiplicity = 1

                         Standard orientation:
 ---------------------------------------------------------------------
 Center     Atomic      Atomic             Coordinates (Angstroms)
 Number     Number       Type             X           Y           Z
 ---------------------------------------------------------------------
      1          7           0        0.000000   -0.000000    3.512580
      2          6           0        0.000000   -0.000000    2.047288
      3          6           0       -0.000000    0.000000   -0.729555
      4          7           0       -0.000000    0.000000   -2.136247
      5          8           0        0.020132    1.090507    4.085250
      6          8           0       -0.020132   -1.090507    4.085250
      7          6           0        0.008364    1.216316    1.365999
      8          6           0       -0.008364   -1.216316    1.365999
      9          6           0       -0.000000    1.214232   -0.022179
     10          6           0        0.000000   -1.214232   -0.022179
     11          6           0        0.564107    0.975320   -2.949446
     12          6           0       -0.564107   -0.975320   -2.949446
     13          6           0        0.361347    0.616112   -4.257078
     14          6           0       -0.361347   -0.616112   -4.257078
     15          1           0        0.003445    2.140839    1.929386
     16          1           0       -0.003445   -2.140839    1.929386
     17          1           0       -0.035296    2.153088   -0.562142
     18          1           0        0.035296   -2.153088   -0.562142
     19          1           0        1.108045    1.802751   -2.522205
     20          1           0       -1.108045   -1.802751   -2.522205
     21          1           0        0.703416    1.167685   -5.121177
     22          1           0       -0.703416   -1.167685   -5.121177
 ---------------------------------------------------------------------

 SCF Done:  E(RB3LYP) =  -645.734199466     A.U. after    1 cycles

 The electronic state is 1-A.
 Alpha  occ. eigenvalues --  -19.18020 -19.18019 -14.57212 -14.40924 -10.27087
 Alpha  occ. eigenvalues --  -10.25560 -10.22837 -10.22836 -10.22409 -10.22409
 Alpha  occ. eigenvalues --  -10.22068 -10.22067 -10.18754 -10.18710  -1.22318
 Alpha  occ. eigenvalues --   -1.05017  -1.00772  -0.89857  -0.83552  -0.78544
 Alpha  occ. eigenvalues --   -0.77912  -0.73766  -0.69919  -0.64772  -0.61941
 Alpha  occ. eigenvalues --   -0.58187  -0.58088  -0.56381  -0.55087  -0.53151
 Alpha  occ. eigenvalues --   -0.51430  -0.48441  -0.47949  -0.46354  -0.45929
 Alpha  occ. eigenvalues --   -0.44219  -0.43510  -0.41888  -0.40179  -0.38934
 Alpha  occ. eigenvalues --   -0.38890  -0.37719  -0.30960  -0.30783  -0.30395
 Alpha  occ. eigenvalues --   -0.29067  -0.28657  -0.24088  -0.22865
 Alpha virt. eigenvalues --   -0.09112  -0.03560  -0.01504   0.03678   0.06414
 Alpha virt. eigenvalues --    0.07967   0.10454   0.10950   0.13596   0.13785
 Alpha virt. eigenvalues --    0.15699   0.16377   0.16840   0.17304   0.20166

 Mulliken charges:
               1
     1  N    0.382488
     2  C    0.251857
     3  C    0.328672
     4  N   -0.526671
     5  O   -0.400134
     6  O   -0.400134
     7  C   -0.101531
     8  C   -0.101531
     9  C   -0.117891
    10  C   -0.117891
    11  C    0.081788
    12  C    0.081788
    13  C   -0.144000
    14  C   -0.144000
    15  H    0.142662
    16  H    0.142662
    17  H    0.114908
    18  H    0.114908
    19  H    0.114174
    20  H    0.114174
    21  H    0.091851
    22  H    0.091851
 Sum of Mulliken charges =   0.00000

 Dipole moment (field-independent basis, Debye):
    X=             -0.0000    Y=             -0.0000    Z=             -4.2058  Tot=              4.2058
 Quadrupole moment (field-independent basis, Debye-Ang):
   XX=            -80.2422   YY=            -72.8244   ZZ=            -98.6636
   XY=              2.8294   XZ=              0.0000   YZ=             -0.0000

  Exact polarizability:  51.012  12.971 118.416  -0.000   0.000 222.396
 Approx polarizability:  81.733  24.272 235.015   0.000   0.000 328.681

                      1                      2                      3
                      A                      B                      A
 Frequencies --     57.9871                61.1187                86.3720
 Red. masses --      7.0978                 6.6346                 3.9851
 Frc consts  --      0.0141                 0.0146                 0.0175
 IR Inten    --      0.4386                 1.6297                 2.3072

                      4                      5                      6
                      B                      B                      B
 Frequencies --    114.6813               174.3450               251.4582
 Red. masses --      5.6480                 6.3835                 6.5715
 Frc consts  --      0.0438                 0.1143                 0.2448
 IR Inten    --      1.5629                 2.6395                 1.0042

                      7                      8                      9
                      A                      B                      A
 Frequencies --    278.3935               333.5365               426.8085
 Red. masses --      9.3801                 6.0941                 3.1573
 Frc consts  --      0.4283                 0.3994                 0.3389
 IR Inten    --      0.1946                 0.2683                 1.6792

                     10                     11                     12
                      B                      A                      B
 Frequencies --    438.6975               513.6792               519.4886
 Red. masses --      4.7352                 7.0746                 3.4361
 Frc consts  --      0.5369                 1.0999                 0.5463
 IR Inten    --      0.2419                12.5088                 4.8391

                     13                     14                     15
                      B                      A                      B
 Frequencies --    543.9150               617.8390               627.1082
 Red. masses --      5.5637                 3.3731                 4.7081
 Frc consts  --      0.9698                 0.7586                 1.0909
 IR Inten    --      1.4920                 4.7405                 3.9345

                     16                     17                     18
                      B                      A                      B
 Frequencies --    647.3388               688.4156               702.3335
 Red. masses --      5.8639                 1.2818                 3.9494
 Frc consts  --      1.4478                 0.3579                 1.1478
 IR Inten    --      0.8867                 1.9723                11.8322

                     19                     20                     21
                      A                      B                      B
 Frequencies --    731.4711               741.4040               758.8485
 Red. masses --      7.4070                 1.1906                 6.0171
 Frc consts  --      2.3350                 0.3856                 2.0415
 IR Inten    --      0.5494                77.1950                23.1954

                     22                     23                     24
                      B                      A                      A
 Frequencies --    837.3085               842.3246               863.6526
 Red. masses --      1.2644                 1.2560                 9.3392
 Frc consts  --      0.5223                 0.5250                 4.1043
 IR Inten    --      0.6146                 0.0059                61.7962

                     25                     26                     27
                      B                      B                      A
 Frequencies --    874.1687               880.5345               886.5380
 Red. masses --      1.7707                 5.2231                 1.2830
 Frc consts  --      0.7972                 2.3860                 0.5941
 IR Inten    --     36.2532                 1.0614                 0.0281

                     28                     29                     30
                      A                      A                      B
 Frequencies --    939.0155               985.0974               988.8655
 Red. masses --      4.0423                 1.3210                 1.3019
 Frc consts  --      2.1000                 0.7553                 0.7501
 IR Inten    --     25.2338                 0.7540                 0.6120

                     31                     32                     33
                      A                      A                      A
 Frequencies --   1027.6795              1040.9651              1091.6825
 Red. masses --      2.9315                 1.6961                 1.7943
 Frc consts  --      1.8241                 1.0829                 1.2599
 IR Inten    --      0.3759                12.5048                73.0515

                     34                     35                     36
                      B                      A                      B
 Frequencies --   1107.1905              1134.4711              1137.2114
 Red. masses --      1.2459                 2.8747                 1.2722
 Frc consts  --      0.8998                 2.1799                 0.9694
 IR Inten    --     12.1771               100.2311                12.4828

                     37                     38                     39
                      A                      A                      B
 Frequencies --   1152.1002              1209.6774              1281.4545
 Red. masses --      1.9402                 1.3144                 1.7609
 Frc consts  --      1.5174                 1.1332                 1.7037
 IR Inten    --      4.9800                16.6237                 2.3975

                     40                     41                     42
                      B                      B                      A
 Frequencies --   1316.8487              1346.1718              1371.5151
 Red. masses --      1.4723                 1.9900                 3.8839
 Frc consts  --      1.5042                 2.1247                 4.3044
 IR Inten    --      0.1482                 0.0199               449.4896

                     43                     44                     45
                      B                      A                      A
 Frequencies --   1381.9533              1394.9127              1449.8821
 Red. masses --     10.4095                 9.3843                 4.2497
 Frc consts  --     11.7129                10.7584                 5.2635
 IR Inten    --      7.5102               352.5270                 5.2652

                     46                     47                     48
                      B                      A                      A
 Frequencies --   1469.2395              1519.2787              1551.9470
 Red. masses --      3.6839                 2.9225                 3.0720
 Frc consts  --      4.6854                 3.9744                 4.3594
 IR Inten    --      0.7294                52.6208               233.0967

                     49                     50                     51
                      B                      B                      A
 Frequencies --   1591.9909              1615.3761              1655.7533
 Red. masses --      4.7758                 9.1942                 5.9718
 Frc consts  --      7.1314                14.1354                 9.6460
 IR Inten    --     10.5446                88.0689               191.5826

                     52                     53                     54
                      B                      A                      B
 Frequencies --   1666.4734              3221.8833              3222.8617
 Red. masses --      9.4112                 1.0899                 1.0902
 Frc consts  --     15.3990                 6.6661                 6.6715
 IR Inten    --    108.2860                 3.5948                 2.0825

                     55                     56                     57
                      B                      A                      B
 Frequencies --   3246.7481              3247.0591              3254.8644
 Red. masses --      1.0932                 1.0940                 1.0893
 Frc consts  --      6.7894                 6.7957                 6.7991
 IR Inten    --      0.7158                 3.1763                 3.5549

                     58                     59                     60
                      A                      B                      A
 Frequencies --   3266.9139              3290.6208              3294.9136
 Red. masses --      1.0951                 1.0981                 1.1042
 Frc consts  --      6.8863                 7.0057                 7.0631
 IR Inten    --      2.1959                 0.3532                 1.7736

 - Thermochemistry -
 -------------------
 Temperature   298.150 Kelvin.  Pressure   1.00000 Atm.
 Atom     1 has atomic number  7 and mass  14.00307

 Molecular mass:   188.05858 amu.
 Principal axes and moments of inertia in atomic units:
                           1         2         3
     Eigenvalues --   653.558235710.414046290.38080
           X            0.00000   0.15608   0.98774
           Y           -0.00000   0.98774  -0.15608
           Z            1.00000   0.00000  -0.00000
 This molecule is an asymmetric top.
 Rotational symmetry number  2.
 Warning -- assumption of classical behavior for rotation
           may cause significant error
 Rotational temperatures (Kelvin)      0.13253     0.01517     0.01377
 Rotational constants (GHZ):           2.76141     0.31604     0.28690
 Zero-point vibrational energy     436471.8 (Joules/Mol)
                                  104.31926 (Kcal/Mol)
 Warning -- explicit consideration of  14 degrees of freedom as
           vibrations may cause significant error
 Vibrational temperatures:     83.43    87.94   124.27   165.00   250.84
          (Kelvin)            361.79   400.55   479.88   614.08   631.19
                              739.07   747.43   782.57   888.93   902.27
                              931.37   990.48  1010.50  1052.42  1066.71
                             1091.81  1204.70  1211.92  1242.60  1257.73
                             1266.89  1275.53  1351.03  1417.33  1422.76
                             1478.60  1497.71  1570.69  1593.00  1632.25
                             1636.19  1657.61  1740.45  1843.72  1894.65
                             1936.84  1973.30  1988.32  2006.97  2086.05
                             2113.91  2185.90  2232.90  2290.52  2324.16
                             2382.26  2397.68  4635.57  4636.97  4671.34
                             4671.79  4683.02  4700.35  4734.46  4740.64

 Zero-point correction=                           0.166243 (Hartree/Particle)
 Thermal correction to Energy=                    0.176991
 Thermal correction to Enthalpy=                  0.177935
 Thermal correction to Gibbs Free Energy=         0.129189
 Sum of electronic and zero-point Energies=           -645.567956
 Sum of electronic and thermal Energies=              -645.557209
 Sum of electronic and thermal Enthalpies=            -645.556265
 Sum of electronic and thermal Free Energies=         -645.605011

                     E (Thermal)             CV                S
                      KCal/Mol        Cal/Mol-Kelvin    Cal/Mol-Kelvin
 Total                  111.063             41.938            102.595
 Electronic               0.000              0.000              0.000
 Translational            0.889              2.981             41.601
 Rotational               0.889              2.981             30.152
 Vibrational            109.286             35.976             30.842
 Vibration     1          0.596              1.974              4.525
 Vibration     2          0.597              1.973              4.421
 Vibration     3          0.601              1.959              3.741
 Vibration     4          0.608              1.937              3.188
 Vibration     5          0.627              1.874              2.388
 Vibration     6          0.663              1.760              1.720
 Vibration     7          0.679              1.713              1.544
 Vibration     8          0.715              1.609              1.243
 Vibration     9          0.788              1.412              0.869
 Vibration    10          0.799              1.386              0.831
 Vibration    11          0.869              1.220              0.625
 Vibration    12          0.874              1.207              0.611
 Vibration    13          0.899              1.153              0.557
 Vibration    14          0.978              0.994              0.420

 Optimization completed.
    -- Stationary point found.
 Normal termination of Gaussian 09 at Fri Aug 20 15:50:20 2021.
