 Gaussian 09, Revision E.01,
 Gaussian 09:  ES64L-G09RevE.01 30-Nov-2015

 -------------------------
 #P OPT Freq B3LYP/6-31G**
 -------------------------

 ------
 KAHHUY
 ------
 Symbolic Z-matrix:
 Charge =  0 Multiplicity = 1

 SCF Done:  E(RB3LYP) =  -690.467515123     A.U. after   17 cycles
 SCF Done:  E(RB3LYP) =  -690.537831926     A.U. after   15 cycles
 SCF Done:  E(RB3LYP) =  -690.543220806     A.U. after   16 cycles
 SCF Done:  E(RB3LYP) =  -690.535506105     A.U. after   17 cycles
 SCF Done:  E(RB3LYP) =  -690.547367997     A.U. after   13 cycles
 SCF Done:  E(RB3LYP) =  -690.548269084     A.U. after   15 cycles
 SCF Done:  E(RB3LYP) =  -690.545687471     A.U. after   15 cycles
 SCF Done:  E(RB3LYP) =  -690.548447286     A.U. after   11 cycles
 SCF Done:  E(RB3LYP) =  -690.548503197     A.U. after   14 cycles
 SCF Done:  E(RB3LYP) =  -690.548569046     A.U. after   13 cycles
 SCF Done:  E(RB3LYP) =  -690.547976071     A.U. after   15 cycles
 SCF Done:  E(RB3LYP) =  -690.548731992     A.U. after   12 cycles
 SCF Done:  E(RB3LYP) =  -690.548789147     A.U. after   13 cycles
 SCF Done:  E(RB3LYP) =  -690.548841540     A.U. after   12 cycles
 SCF Done:  E(RB3LYP) =  -690.548871530     A.U. after   12 cycles
 SCF Done:  E(RB3LYP) =  -690.548885182     A.U. after   12 cycles
 SCF Done:  E(RB3LYP) =  -690.548887685     A.U. after   10 cycles
 SCF Done:  E(RB3LYP) =  -690.548887922     A.U. after   10 cycles
 SCF Done:  E(RB3LYP) =  -690.548887914     A.U. after    9 cycles
 Optimization completed.
    -- Stationary point found.
 Normal termination of Gaussian 09 at Fri Aug 20 16:03:08 2021.

 ----------------------------------------------------------------------
 #P Geom=AllCheck Guess=TCheck SCRF=Check GenChk RB3LYP/6-31G(d,p) Freq
 ----------------------------------------------------------------------

 Structure from the checkpoint file:  "/public/home/users/caep010/.cache/gau_scr/Gau-172857.chk"
 ------
 KAHHUY
 ------
 Charge =  0 Multiplicity = 1

                         Standard orientation:
 ---------------------------------------------------------------------
 Center     Atomic      Atomic             Coordinates (Angstroms)
 Number     Number       Type             X           Y           Z
 ---------------------------------------------------------------------
      1          6           0        0.740783   -0.573659    0.001478
      2          6           0       -0.500121    0.118708    0.033123
      3          6           0       -1.470244   -0.898430    0.046980
      4          7           0       -0.762191   -2.055502    0.029432
      5          1           0       -1.119428   -2.996852    0.089815
      6          7           0        0.593090   -1.875654    0.003461
      7          7           0        2.096397   -0.031376    0.074695
      8          8           0        2.932277   -0.517316   -0.677329
      9          8           0        2.280683    0.844795    0.911866
     10          7           0       -0.790720    1.496897   -0.114630
     11          8           0        0.125914    2.270990   -0.369826
     12          8           0       -1.987346    1.833261    0.007578
     13          7           0       -2.818431   -0.809724    0.106977
     14          1           0       -3.382004   -1.551275   -0.280636
     15          1           0       -3.160304    0.142094    0.023482
 ---------------------------------------------------------------------

 SCF Done:  E(RB3LYP) =  -690.548887914     A.U. after    1 cycles

 The electronic state is 1-A.
 Alpha  occ. eigenvalues --  -19.19331 -19.19293 -19.19002 -19.18873 -14.58745
 Alpha  occ. eigenvalues --  -14.58609 -14.46213 -14.40780 -14.40615 -10.33318
 Alpha  occ. eigenvalues --  -10.30125 -10.27133  -1.23895  -1.23276  -1.10694
 Alpha  occ. eigenvalues --   -1.06655  -1.05883  -0.98244  -0.89357  -0.85330
 Alpha  occ. eigenvalues --   -0.76922  -0.74800  -0.64023  -0.62546  -0.59813
 Alpha  occ. eigenvalues --   -0.55764  -0.55557  -0.55113  -0.54877  -0.53448
 Alpha  occ. eigenvalues --   -0.52766  -0.51170  -0.49406  -0.48037  -0.38788
 Alpha  occ. eigenvalues --   -0.35650  -0.32933  -0.32418  -0.31917  -0.31521
 Alpha  occ. eigenvalues --   -0.31339  -0.30286  -0.29149  -0.26514
 Alpha virt. eigenvalues --   -0.09787  -0.07379  -0.01248   0.02820   0.04957
 Alpha virt. eigenvalues --    0.05836   0.09945   0.13475   0.14976   0.18078
 Alpha virt. eigenvalues --    0.21899   0.24138   0.26082   0.28123   0.31120

 Mulliken charges:
               1
     1  C    0.504081
     2  C    0.199174
     3  C    0.618193
     4  N   -0.423649
     5  H    0.294717
     6  N   -0.297524
     7  N    0.371532
     8  O   -0.354459
     9  O   -0.360952
    10  N    0.338687
    11  O   -0.390540
    12  O   -0.443188
    13  N   -0.656049
    14  H    0.281300
    15  H    0.318679
 Sum of Mulliken charges =  -0.00000

 Dipole moment (field-independent basis, Debye):
    X=             -6.6363    Y=             -5.5719    Z=             -0.4800  Tot=              8.6785
 Quadrupole moment (field-independent basis, Debye-Ang):
   XX=            -64.4663   YY=            -65.3087   ZZ=            -66.6996
   XY=             11.2327   XZ=              3.1149   YZ=             -0.3883

  Exact polarizability: 103.832   6.246  92.067  -4.533   3.766  38.981
 Approx polarizability: 180.207  10.156 174.780 -17.800  17.477  75.104

                      1                      2                      3
                      A                      A                      A
 Frequencies --     51.2987                88.1328               126.2139
 Red. masses --     14.4353                13.7707                 7.0833
 Frc consts  --      0.0224                 0.0630                 0.0665
 IR Inten    --      0.5722                 0.0478                 2.5413

                      4                      5                      6
                      A                      A                      A
 Frequencies --    170.7487               198.8663               253.6950
 Red. masses --     14.8298                 7.3621                 6.5846
 Frc consts  --      0.2547                 0.1715                 0.2497
 IR Inten    --      0.6089                 0.6631                 2.8031

                      7                      8                      9
                      A                      A                      A
 Frequencies --    301.8712               339.8619               357.5923
 Red. masses --      3.9133                 1.8740                 3.7722
 Frc consts  --      0.2101                 0.1275                 0.2842
 IR Inten    --     28.6791               108.0233                31.1308

                     10                     11                     12
                      A                      A                      A
 Frequencies --    389.3596               435.4468               470.2816
 Red. masses --      4.3880                10.2282                 1.9287
 Frc consts  --      0.3919                 1.1427                 0.2513
 IR Inten    --     16.3143                 9.6343                47.2349

                     13                     14                     15
                      A                      A                      A
 Frequencies --    531.7144               591.8079               598.9256
 Red. masses --      2.9997                 1.7457                 2.1761
 Frc consts  --      0.4997                 0.3602                 0.4599
 IR Inten    --     48.2529                86.5377                94.9095

                     16                     17                     18
                      A                      A                      A
 Frequencies --    679.6020               693.5314               750.9203
 Red. masses --      4.5950                10.3016                 9.6108
 Frc consts  --      1.2504                 2.9194                 3.1930
 IR Inten    --      8.3892                 6.7692                19.5820

                     19                     20                     21
                      A                      A                      A
 Frequencies --    770.1809               778.2765               834.9038
 Red. masses --     10.8318                11.3778                12.6684
 Frc consts  --      3.7856                 4.0605                 5.2029
 IR Inten    --     10.6936                 7.0058                50.6944

                     22                     23                     24
                      A                      A                      A
 Frequencies --    857.0218              1061.7938              1078.0773
 Red. masses --     13.5431                 3.7323                 2.0886
 Frc consts  --      5.8608                 2.4791                 1.4302
 IR Inten    --     39.0363                 9.6763                17.9498

                     25                     26                     27
                      A                      A                      A
 Frequencies --   1154.5904              1232.8236              1365.7957
 Red. masses --      5.4667                 5.4265                 2.1059
 Frc consts  --      4.2937                 4.8593                 2.3145
 IR Inten    --      3.2879                21.6070               114.9639

                     28                     29                     30
                      A                      A                      A
 Frequencies --   1385.3479              1412.9048              1461.6292
 Red. masses --      8.5005                 7.1273                 5.5939
 Frc consts  --      9.6119                 8.3831                 7.0411
 IR Inten    --     73.8467               154.0816                53.2507

                     31                     32                     33
                      A                      A                      A
 Frequencies --   1496.6181              1569.9047              1572.2062
 Red. masses --      5.6791                 2.2630                 5.6103
 Frc consts  --      7.4946                 3.2861                 8.1707
 IR Inten    --     80.5903               152.0273               127.9739

                     34                     35                     36
                      A                      A                      A
 Frequencies --   1634.7310              1670.4621              1690.6469
 Red. masses --      2.7297                13.4733                 4.4018
 Frc consts  --      4.2980                22.1511                 7.4129
 IR Inten    --    102.5796               211.6729               411.2960

                     37                     38                     39
                      A                      A                      A
 Frequencies --   3536.8762              3669.2647              3691.4298
 Red. masses --      1.0500                 1.0816                 1.0990
 Frc consts  --      7.7386                 8.5798                 8.8231
 IR Inten    --     80.6064               102.3001                81.0524

 - Thermochemistry -
 -------------------
 Temperature   298.150 Kelvin.  Pressure   1.00000 Atm.
 Atom     1 has atomic number  6 and mass  12.00000

 Molecular mass:   173.01850 amu.
 Principal axes and moments of inertia in atomic units:
                           1         2         3
     Eigenvalues --  1247.018412001.602573081.58544
           X            0.99923   0.03911   0.00152
           Y           -0.03911   0.99923   0.00062
           Z           -0.00150  -0.00068   1.00000
 This molecule is an asymmetric top.
 Rotational symmetry number  1.
 Warning -- assumption of classical behavior for rotation
           may cause significant error
 Rotational temperatures (Kelvin)      0.06946     0.04327     0.02811
 Rotational constants (GHZ):           1.44725     0.90165     0.58565
 Zero-point vibrational energy     244967.4 (Joules/Mol)
                                   58.54862 (Kcal/Mol)
 Warning -- explicit consideration of  15 degrees of freedom as
           vibrations may cause significant error
 Vibrational temperatures:     73.81   126.80   181.59   245.67   286.12
          (Kelvin)            365.01   434.32   488.98   514.49   560.20
                              626.51   676.63   765.02   851.48   861.72
                              977.79   997.84  1080.41  1108.12  1119.76
                             1201.24  1233.06  1527.68  1551.11  1661.20
                             1773.76  1965.07  1993.20  2032.85  2102.96
                             2153.30  2258.74  2262.05  2352.01  2403.42
                             2432.46  5088.77  5279.25  5311.14

 Zero-point correction=                           0.093303 (Hartree/Particle)
 Thermal correction to Energy=                    0.103351
 Thermal correction to Enthalpy=                  0.104295
 Thermal correction to Gibbs Free Energy=         0.057069
 Sum of electronic and zero-point Energies=           -690.455585
 Sum of electronic and thermal Energies=              -690.445537
 Sum of electronic and thermal Enthalpies=            -690.444592
 Sum of electronic and thermal Free Energies=         -690.491819

                     E (Thermal)             CV                S
                      KCal/Mol        Cal/Mol-Kelvin    Cal/Mol-Kelvin
 Total                   64.854             36.349             99.396
 Electronic               0.000              0.000              0.000
 Translational            0.889              2.981             41.352
 Rotational               0.889              2.981             30.421
 Vibrational             63.076             30.388             27.623
 Vibration     1          0.596              1.977              4.767
 Vibration     2          0.601              1.958              3.701
 Vibration     3          0.611              1.927              3.003
 Vibration     4          0.626              1.878              2.427
 Vibration     5          0.637              1.841              2.144
 Vibration     6          0.665              1.757              1.705
 Vibration     7          0.694              1.670              1.407
 Vibration     8          0.720              1.596              1.213
 Vibration     9          0.733              1.560              1.133
 Vibration    10          0.757              1.493              1.003
 Vibration    11          0.796              1.393              0.841
 Vibration    12          0.827              1.316              0.737
 Vibration    13          0.887              1.180              0.583
 Vibration    14          0.949              1.049              0.464
 Vibration    15          0.957              1.034              0.452

 Normal termination of Gaussian 09 at Fri Aug 20 16:03:29 2021.
