 Gaussian 09, Revision E.01,
 Gaussian 09:  ES64L-G09RevE.01 30-Nov-2015

 -------------------------
 #P OPT Freq B3LYP/6-31G**
 -------------------------

 ------
 SAMROP
 ------
 Symbolic Z-matrix:
 Charge =  0 Multiplicity = 1

 SCF Done:  E(RB3LYP) =  -719.449459546     A.U. after   15 cycles
 SCF Done:  E(RB3LYP) =  -719.609495212     A.U. after   13 cycles
 SCF Done:  E(RB3LYP) =  -719.737626697     A.U. after   13 cycles
 SCF Done:  E(RB3LYP) =  -719.738190264     A.U. after   14 cycles
 SCF Done:  E(RB3LYP) =  -719.747656624     A.U. after   13 cycles
 SCF Done:  E(RB3LYP) =  -719.748281651     A.U. after   13 cycles
 SCF Done:  E(RB3LYP) =  -719.748545438     A.U. after   11 cycles
 SCF Done:  E(RB3LYP) =  -719.748615542     A.U. after   12 cycles
 SCF Done:  E(RB3LYP) =  -719.748675909     A.U. after   11 cycles
 SCF Done:  E(RB3LYP) =  -719.748740112     A.U. after   10 cycles
 SCF Done:  E(RB3LYP) =  -719.748909786     A.U. after   11 cycles
 SCF Done:  E(RB3LYP) =  -719.748915865     A.U. after   10 cycles
 SCF Done:  E(RB3LYP) =  -719.748920410     A.U. after   10 cycles
 SCF Done:  E(RB3LYP) =  -719.748922971     A.U. after   10 cycles
 SCF Done:  E(RB3LYP) =  -719.748924132     A.U. after    9 cycles
 SCF Done:  E(RB3LYP) =  -719.748924762     A.U. after    9 cycles
 SCF Done:  E(RB3LYP) =  -719.748925138     A.U. after    8 cycles
 SCF Done:  E(RB3LYP) =  -719.748925328     A.U. after    7 cycles
 SCF Done:  E(RB3LYP) =  -719.748925404     A.U. after    7 cycles
 Optimization completed.
    -- Stationary point found.
 Normal termination of Gaussian 09 at Fri Aug 20 16:09:42 2021.

 ----------------------------------------------------------------------
 #P Geom=AllCheck Guess=TCheck SCRF=Check GenChk RB3LYP/6-31G(d,p) Freq
 ----------------------------------------------------------------------

 Structure from the checkpoint file:  "/public/home/users/caep010/.cache/gau_scr/Gau-111212.chk"
 ------
 SAMROP
 ------
 Charge =  0 Multiplicity = 1

                         Standard orientation:
 ---------------------------------------------------------------------
 Center     Atomic      Atomic             Coordinates (Angstroms)
 Number     Number       Type             X           Y           Z
 ---------------------------------------------------------------------
      1          8           0        3.709008    0.809248   -0.302945
      2          6           0        4.192137   -0.490389    0.042432
      3          1           0        4.838159   -0.381953    0.917587
      4          1           0        4.795994   -0.899660   -0.782114
      5          6           0        2.498462    0.586823   -1.017277
      6          6           0        2.938886   -1.369911    0.291517
      7          1           0        2.822155   -1.620876    1.350743
      8          1           0        2.998286   -2.313130   -0.257105
      9          6           0        1.759302   -0.493322   -0.211530
     10          1           0        2.704313    0.235402   -2.041934
     11          1           0        1.966290    1.540733   -1.087432
     12          6           0        0.986620    0.098586    0.980471
     13          1           0        1.667535    0.698726    1.592678
     14          7           0       -0.127477    0.970187    0.608464
     15          1           0        0.042447    1.961101    0.567677
     16          1           0        0.590651   -0.711515    1.595755
     17          6           0       -1.349956    0.519509    0.223660
     18          7           0       -1.471989   -0.816553    0.204999
     19          7           0       -2.293165    1.428669   -0.086271
     20          1           0       -3.176335    0.990607   -0.349644
     21          6           0       -2.129899    2.865003    0.001949
     22          1           0       -3.076263    3.334624   -0.268305
     23          1           0       -1.871819    3.187938    1.018896
     24          1           0       -1.364174    3.237583   -0.691887
     25          7           0       -2.674005   -1.379580   -0.127455
     26          8           0       -3.679969   -0.694262   -0.454612
     27          8           0       -2.704404   -2.604177   -0.092847
     28          1           0        1.058826   -1.062895   -0.827182
 ---------------------------------------------------------------------

 SCF Done:  E(RB3LYP) =  -719.748925404     A.U. after    1 cycles

 The electronic state is 1-A.
 Alpha  occ. eigenvalues --  -19.15195 -19.15107 -19.14749 -14.56845 -14.38645
 Alpha  occ. eigenvalues --  -14.37955 -14.34631 -10.32510 -10.25385 -10.23596
 Alpha  occ. eigenvalues --  -10.23484 -10.23431 -10.19876 -10.19357  -1.20419
 Alpha  occ. eigenvalues --   -1.04028  -1.02783  -1.01157  -0.93010  -0.91336
 Alpha  occ. eigenvalues --   -0.80366  -0.75437  -0.74259  -0.70399  -0.68489
 Alpha  occ. eigenvalues --   -0.61234  -0.59868  -0.57565  -0.56511  -0.53246
 Alpha  occ. eigenvalues --   -0.51793  -0.50846  -0.50172  -0.49913  -0.48149
 Alpha  occ. eigenvalues --   -0.47987  -0.47203  -0.45717  -0.43375  -0.42304
 Alpha  occ. eigenvalues --   -0.41744  -0.39561  -0.39054  -0.35711  -0.34901
 Alpha  occ. eigenvalues --   -0.34148  -0.32511  -0.32176  -0.28688  -0.28559
 Alpha  occ. eigenvalues --   -0.26868  -0.25849  -0.25369  -0.25182
 Alpha virt. eigenvalues --   -0.04435   0.04186   0.05164   0.08074   0.09916
 Alpha virt. eigenvalues --    0.10540   0.11181   0.12461   0.12666   0.13486
 Alpha virt. eigenvalues --    0.13657   0.14780   0.15014   0.15963   0.17117

 Mulliken charges:
               1
     1  O   -0.493131
     2  C    0.068677
     3  H    0.104041
     4  H    0.092313
     5  C    0.057555
     6  C   -0.236099
     7  H    0.109397
     8  H    0.114722
     9  C   -0.075441
    10  H    0.089667
    11  H    0.081675
    12  C   -0.037760
    13  H    0.112481
    14  N   -0.585450
    15  H    0.269339
    16  H    0.150070
    17  C    0.803210
    18  N   -0.443511
    19  N   -0.546570
    20  H    0.320199
    21  C   -0.194415
    22  H    0.144386
    23  H    0.132175
    24  H    0.127690
    25  N    0.588529
    26  O   -0.480589
    27  O   -0.398683
    28  H    0.125520
 Sum of Mulliken charges =  -0.00000

 Dipole moment (field-independent basis, Debye):
    X=              2.7629    Y=              5.4654    Z=              0.6826  Tot=              6.1620
 Quadrupole moment (field-independent basis, Debye-Ang):
   XX=            -95.3779   YY=            -81.8092   ZZ=            -80.6122
   XY=            -22.2123   XZ=             -0.0729   YZ=              0.2168

  Exact polarizability: 137.610  -0.483 129.336   9.461  -0.923  79.175
 Approx polarizability: 179.803   2.414 208.817  20.031  -1.271 118.596

                      1                      2                      3
                      A                      A                      A
 Frequencies --     33.3858                40.3217                49.5553
 Red. masses --      3.7617                 3.3348                 4.8308
 Frc consts  --      0.0025                 0.0032                 0.0070
 IR Inten    --      4.1952                 2.5363                 2.8644

                      4                      5                      6
                      A                      A                      A
 Frequencies --     56.6721                65.5044                97.9637
 Red. masses --      5.6963                 3.3665                 4.7173
 Frc consts  --      0.0108                 0.0085                 0.0267
 IR Inten    --      0.0899                 1.6263                 2.0984

                      7                      8                      9
                      A                      A                      A
 Frequencies --    159.5839               165.0503               205.5220
 Red. masses --      1.1192                 3.8086                 5.2204
 Frc consts  --      0.0168                 0.0611                 0.1299
 IR Inten    --      4.2692                 1.9439                 2.2650

                     10                     11                     12
                      A                      A                      A
 Frequencies --    213.6908               238.2531               269.8427
 Red. masses --      3.0446                 3.3114                 3.1293
 Frc consts  --      0.0819                 0.1107                 0.1343
 IR Inten    --      2.1752                 1.8008                20.5627

                     13                     14                     15
                      A                      A                      A
 Frequencies --    303.0606               352.1798               395.3741
 Red. masses --      3.5036                 1.1552                 2.4498
 Frc consts  --      0.1896                 0.0844                 0.2256
 IR Inten    --     13.0930                66.0090                 2.5187

                     16                     17                     18
                      A                      A                      A
 Frequencies --    443.5375               446.1432               571.7957
 Red. masses --      4.8705                 3.2934                 4.7708
 Frc consts  --      0.5645                 0.3862                 0.9190
 IR Inten    --      6.5242                 1.1711                 3.8045

                     19                     20                     21
                      A                      A                      A
 Frequencies --    658.9448               680.1764               693.4707
 Red. masses --      1.1450                 3.9046                 3.9319
 Frc consts  --      0.2929                 1.0643                 1.1140
 IR Inten    --     37.3155                 6.1256                 9.9460

                     22                     23                     24
                      A                      A                      A
 Frequencies --    714.8262               724.8232               782.8462
 Red. masses --      4.1644                 4.0313                13.3655
 Frc consts  --      1.2537                 1.2478                 4.8260
 IR Inten    --     21.8182                15.8089                21.7323

                     25                     26                     27
                      A                      A                      A
 Frequencies --    786.1331               812.3847               852.6550
 Red. masses --      9.9544                 1.7501                 2.4026
 Frc consts  --      3.6246                 0.6805                 1.0291
 IR Inten    --     10.5595                 2.9693                13.5114

                     28                     29                     30
                      A                      A                      A
 Frequencies --    883.1135               927.2712               935.6730
 Red. masses --      4.4350                 2.4140                 2.2398
 Frc consts  --      2.0379                 1.2229                 1.1553
 IR Inten    --     17.4047                10.2155                 1.7532

                     31                     32                     33
                      A                      A                      A
 Frequencies --    953.2394               984.9523              1008.3327
 Red. masses --      3.4832                 2.1192                 2.2285
 Frc consts  --      1.8648                 1.2113                 1.3350
 IR Inten    --     27.4245                 8.2889                 3.4315

                     34                     35                     36
                      A                      A                      A
 Frequencies --   1058.3111              1065.5352              1092.6871
 Red. masses --      3.4141                 2.2027                 2.4808
 Frc consts  --      2.2529                 1.4735                 1.7451
 IR Inten    --     45.0823                20.6541                30.7185

                     37                     38                     39
                      A                      A                      A
 Frequencies --   1128.9046              1151.9943              1160.7900
 Red. masses --      3.0845                 1.2713                 1.9397
 Frc consts  --      2.3160                 0.9941                 1.5399
 IR Inten    --     51.8124                 0.3471                 0.6790

                     40                     41                     42
                      A                      A                      A
 Frequencies --   1175.5068              1199.4639              1227.9232
 Red. masses --      2.9039                 1.9568                 1.1893
 Frc consts  --      2.3642                 1.6587                 1.0565
 IR Inten    --    153.5226                49.4490                 6.1989

                     43                     44                     45
                      A                      A                      A
 Frequencies --   1245.8485              1257.3205              1279.8197
 Red. masses --      1.2628                 1.4561                 1.4364
 Frc consts  --      1.1548                 1.3563                 1.3862
 IR Inten    --      8.7109                 1.0231                77.6872

                     46                     47                     48
                      A                      A                      A
 Frequencies --   1283.0494              1313.6604              1317.0146
 Red. masses --      3.3166                 1.2977                 1.3233
 Frc consts  --      3.2168                 1.3194                 1.3524
 IR Inten    --    280.8333                 0.3996                 1.2825

                     49                     50                     51
                      A                      A                      A
 Frequencies --   1351.0096              1380.0147              1397.6183
 Red. masses --      1.2318                 1.4781                 1.4467
 Frc consts  --      1.3247                 1.6585                 1.6650
 IR Inten    --     11.8660                39.7796                80.6419

                     52                     53                     54
                      A                      A                      A
 Frequencies --   1399.6680              1410.1032              1425.6121
 Red. masses --      2.3286                 1.3773                 1.5286
 Frc consts  --      2.6878                 1.6135                 1.8305
 IR Inten    --     34.8438                15.4550                33.1369

                     55                     56                     57
                      A                      A                      A
 Frequencies --   1481.9247              1489.0414              1503.2873
 Red. masses --      1.1532                 1.1801                 1.0438
 Frc consts  --      1.4921                 1.5416                 1.3898
 IR Inten    --     58.1202                 6.1735                 8.8701

                     58                     59                     60
                      A                      A                      A
 Frequencies --   1511.4800              1523.4884              1531.8647
 Red. masses --      1.0861                 1.0883                 1.0601
 Frc consts  --      1.4619                 1.4883                 1.4657
 IR Inten    --      2.2850                 6.6121                34.5825

                     61                     62                     63
                      A                      A                      A
 Frequencies --   1541.0879              1564.1751              1647.2897
 Red. masses --      1.1089                 4.3201                 4.8831
 Frc consts  --      1.5516                 6.2275                 7.8070
 IR Inten    --      6.2851               588.1726               433.3205

                     64                     65                     66
                      A                      A                      A
 Frequencies --   1663.2193              2983.5467              2999.3429
 Red. masses --      2.9334                 1.0714                 1.0724
 Frc consts  --      4.7811                 5.6192                 5.6838
 IR Inten    --    322.0495                55.6525                92.4529

                     67                     68                     69
                      A                      A                      A
 Frequencies --   3014.5150              3066.0428              3067.5373
 Red. masses --      1.0398                 1.1042                 1.0638
 Frc consts  --      5.5671                 6.1156                 5.8978
 IR Inten    --     47.5596                29.5247                14.9753

                     70                     71                     72
                      A                      A                      A
 Frequencies --   3072.5324              3093.2040              3102.7942
 Red. masses --      1.0642                 1.0926                 1.0929
 Frc consts  --      5.9194                 6.1592                 6.1993
 IR Inten    --     28.4415                42.7491                25.3353

                     73                     74                     75
                      A                      A                      A
 Frequencies --   3110.8136              3123.2594              3139.1955
 Red. masses --      1.0898                 1.1011                 1.1034
 Frc consts  --      6.2138                 6.3282                 6.4062
 IR Inten    --      1.3057                37.5385                 5.1968

                     76                     77                     78
                      A                      A                      A
 Frequencies --   3153.5537              3441.6968              3683.7113
 Red. masses --      1.0968                 1.0796                 1.0771
 Frc consts  --      6.4264                 7.5347                 8.6118
 IR Inten    --      8.9954               235.9021                39.6836

 - Thermochemistry -
 -------------------
 Temperature   298.150 Kelvin.  Pressure   1.00000 Atm.
 Atom     1 has atomic number  8 and mass  15.99491

 Molecular mass:   202.10659 amu.
 Principal axes and moments of inertia in atomic units:
                           1         2         3
     Eigenvalues --  1575.691675111.123766302.82301
           X            0.99929  -0.03758   0.00002
           Y            0.03758   0.99928  -0.00483
           Z            0.00016   0.00483   0.99999
 This molecule is an asymmetric top.
 Rotational symmetry number  1.
 Warning -- assumption of classical behavior for rotation
           may cause significant error
 Rotational temperatures (Kelvin)      0.05497     0.01695     0.01374
 Rotational constants (GHZ):           1.14536     0.35310     0.28634
 Zero-point vibrational energy     612109.6 (Joules/Mol)
                                  146.29771 (Kcal/Mol)
 Warning -- explicit consideration of  18 degrees of freedom as
           vibrations may cause significant error
 Vibrational temperatures:     48.03    58.01    71.30    81.54    94.25
          (Kelvin)            140.95   229.61   237.47   295.70   307.45
                              342.79   388.24   436.04   506.71   568.85
                              638.15   641.90   822.69   948.07   978.62
                              997.75  1028.47  1042.86  1126.34  1131.07
                             1168.84  1226.78  1270.60  1334.13  1346.22
                             1371.50  1417.12  1450.76  1522.67  1533.07
                             1572.13  1624.24  1657.46  1670.12  1691.29
                             1725.76  1766.71  1792.50  1809.00  1841.37
                             1846.02  1890.06  1894.89  1943.80  1985.53
                             2010.86  2013.81  2028.82  2051.14  2132.16
                             2142.40  2162.89  2174.68  2191.96  2204.01
                             2217.28  2250.50  2370.08  2393.00  4292.65
                             4315.38  4337.21  4411.35  4413.50  4420.68
                             4450.43  4464.22  4475.76  4493.67  4516.60
                             4537.25  4951.83  5300.03

 Zero-point correction=                           0.233140 (Hartree/Particle)
 Thermal correction to Energy=                    0.247507
 Thermal correction to Enthalpy=                  0.248451
 Thermal correction to Gibbs Free Energy=         0.189382
 Sum of electronic and zero-point Energies=           -719.515785
 Sum of electronic and thermal Energies=              -719.501419
 Sum of electronic and thermal Enthalpies=            -719.500474
 Sum of electronic and thermal Free Energies=         -719.559543

                     E (Thermal)             CV                S
                      KCal/Mol        Cal/Mol-Kelvin    Cal/Mol-Kelvin
 Total                  155.313             51.184            124.320
 Electronic               0.000              0.000              0.000
 Translational            0.889              2.981             41.815
 Rotational               0.889              2.981             32.296
 Vibrational            153.535             45.223             50.209
 Vibration     1          0.594              1.983              5.617
 Vibration     2          0.594              1.981              5.243
 Vibration     3          0.595              1.978              4.835
 Vibration     4          0.596              1.975              4.570
 Vibration     5          0.597              1.971              4.284
 Vibration     6          0.603              1.951              3.494
 Vibration     7          0.621              1.892              2.555
 Vibration     8          0.623              1.885              2.491
 Vibration     9          0.640              1.832              2.083
 Vibration    10          0.644              1.820              2.012
 Vibration    11          0.656              1.782              1.816
 Vibration    12          0.674              1.729              1.597
 Vibration    13          0.695              1.668              1.400
 Vibration    14          0.729              1.571              1.156
 Vibration    15          0.762              1.480              0.980
 Vibration    16          0.803              1.375              0.816
 Vibration    17          0.805              1.369              0.808
 Vibration    18          0.928              1.092              0.501

 Normal termination of Gaussian 09 at Fri Aug 20 16:10:40 2021.
