 Gaussian 09, Revision E.01,
 Gaussian 09:  ES64L-G09RevE.01 30-Nov-2015

 -------------------------
 #P OPT Freq B3LYP/6-31G**
 -------------------------

 ------
 QUZNUV
 ------
 Symbolic Z-matrix:
 Charge =  0 Multiplicity = 1

 SCF Done:  E(RB3LYP) =  -683.851196649     A.U. after   16 cycles
 SCF Done:  E(RB3LYP) =  -683.994216498     A.U. after   13 cycles
 SCF Done:  E(RB3LYP) =  -684.080414054     A.U. after   14 cycles
 SCF Done:  E(RB3LYP) =  -684.082584955     A.U. after   14 cycles
 SCF Done:  E(RB3LYP) =  -684.079191445     A.U. after   15 cycles
 SCF Done:  E(RB3LYP) =  -684.082725928     A.U. after    9 cycles
 SCF Done:  E(RB3LYP) =  -684.082972568     A.U. after   14 cycles
 SCF Done:  E(RB3LYP) =  -684.083101431     A.U. after   12 cycles
 SCF Done:  E(RB3LYP) =  -684.083206628     A.U. after   11 cycles
 SCF Done:  E(RB3LYP) =  -684.083367177     A.U. after   13 cycles
 SCF Done:  E(RB3LYP) =  -684.086043399     A.U. after   16 cycles
 SCF Done:  E(RB3LYP) =  -684.086073811     A.U. after   10 cycles
 SCF Done:  E(RB3LYP) =  -684.086119858     A.U. after   11 cycles
 SCF Done:  E(RB3LYP) =  -684.086134958     A.U. after   11 cycles
 SCF Done:  E(RB3LYP) =  -684.086135825     A.U. after   10 cycles
 SCF Done:  E(RB3LYP) =  -684.086135834     A.U. after    8 cycles
 SCF Done:  E(RB3LYP) =  -684.086135925     A.U. after    8 cycles
 SCF Done:  E(RB3LYP) =  -684.086135993     A.U. after    7 cycles
 SCF Done:  E(RB3LYP) =  -684.086136011     A.U. after    7 cycles
 Optimization completed.
    -- Stationary point found.
 Normal termination of Gaussian 09 at Fri Aug 20 15:58:57 2021.

 ----------------------------------------------------------------------
 #P Geom=AllCheck Guess=TCheck SCRF=Check GenChk RB3LYP/6-31G(d,p) Freq
 ----------------------------------------------------------------------

 Structure from the checkpoint file:  "/public/home/users/caep010/.cache/gau_scr/Gau-62379.chk"
 ------
 QUZNUV
 ------
 Charge =  0 Multiplicity = 1

                         Standard orientation:
 ---------------------------------------------------------------------
 Center     Atomic      Atomic             Coordinates (Angstroms)
 Number     Number       Type             X           Y           Z
 ---------------------------------------------------------------------
      1          8           0        4.535752   -0.722642    0.279207
      2          7           0        3.808210    0.266519    0.186472
      3          8           0        4.198831    1.431181    0.266479
      4          6           0        2.372275    0.040500   -0.034063
      5          6           0        1.901725   -1.266715   -0.134002
      6          6           0        0.541396   -1.470197   -0.345864
      7          1           0        0.162749   -2.484993   -0.431685
      8          1           0        2.598086   -2.091296   -0.048941
      9          6           0       -0.345262   -0.389191   -0.459933
     10          6           0        0.165713    0.914684   -0.354301
     11          1           0       -0.509572    1.760732   -0.446310
     12          6           0        1.521799    1.139535   -0.142029
     13          1           0        1.930301    2.139101   -0.063849
     14          6           0       -1.826627   -0.612065   -0.650562
     15          1           0       -2.006920   -1.587202   -1.116430
     16          1           0       -2.240040    0.153646   -1.313723
     17          6           0       -2.597896   -0.534356    0.687493
     18          1           0       -2.261865   -1.320638    1.369766
     19          7           0       -4.039085   -0.653249    0.519191
     20          1           0       -2.397760    0.429630    1.162915
     21          1           0       -4.482821   -1.553780    0.623470
     22          6           0       -4.793959    0.400848    0.102274
     23          8           0       -4.352601    1.514020   -0.132667
     24          1           0       -5.866877    0.143184    0.006907
 ---------------------------------------------------------------------

 SCF Done:  E(RB3LYP) =  -684.086136011     A.U. after    1 cycles

 The electronic state is 1-A.
 Alpha  occ. eigenvalues --  -19.17880 -19.17869 -19.12787 -14.57004 -14.37882
 Alpha  occ. eigenvalues --  -10.29562 -10.25233 -10.24349 -10.22710 -10.22102
 Alpha  occ. eigenvalues --  -10.22015 -10.21641 -10.21422 -10.20933  -1.22165
 Alpha  occ. eigenvalues --   -1.04870  -1.04270  -0.93791  -0.89292  -0.82624
 Alpha  occ. eigenvalues --   -0.77408  -0.77066  -0.70739  -0.65284  -0.63664
 Alpha  occ. eigenvalues --   -0.60253  -0.58932  -0.55785  -0.55709  -0.52938
 Alpha  occ. eigenvalues --   -0.51315  -0.49807  -0.48544  -0.47054  -0.46223
 Alpha  occ. eigenvalues --   -0.44907  -0.44116  -0.43603  -0.41674  -0.39879
 Alpha  occ. eigenvalues --   -0.37852  -0.37709  -0.37564  -0.35949  -0.30779
 Alpha  occ. eigenvalues --   -0.30543  -0.28873  -0.28238  -0.27778  -0.26558
 Alpha  occ. eigenvalues --   -0.26226
 Alpha virt. eigenvalues --   -0.08754  -0.02780  -0.00115   0.01659   0.06051
 Alpha virt. eigenvalues --    0.07609   0.11055   0.11336   0.12296   0.13520
 Alpha virt. eigenvalues --    0.14458   0.15288   0.16179   0.16641   0.18696

 Mulliken charges:
               1
     1  O   -0.398966
     2  N    0.386049
     3  O   -0.397044
     4  C    0.240779
     5  C   -0.085867
     6  C   -0.135129
     7  H    0.094034
     8  H    0.136962
     9  C    0.128001
    10  C   -0.134802
    11  H    0.116834
    12  C   -0.086251
    13  H    0.139549
    14  C   -0.246866
    15  H    0.101073
    16  H    0.142474
    17  C   -0.043678
    18  H    0.110884
    19  N   -0.486253
    20  H    0.145182
    21  H    0.262728
    22  C    0.409302
    23  O   -0.470817
    24  H    0.071822
 Sum of Mulliken charges =  -0.00000

 Dipole moment (field-independent basis, Debye):
    X=             -5.0201    Y=             -4.1491    Z=              0.1430  Tot=              6.5143
 Quadrupole moment (field-independent basis, Debye-Ang):
   XX=            -97.9211   YY=            -78.7200   ZZ=            -80.1460
   XY=             13.2332   XZ=             -4.7188   YZ=             -0.4893

  Exact polarizability: 176.040   2.041 121.754  10.410  -1.972  56.448
 Approx polarizability: 236.664   0.107 242.510  19.832  -5.848  86.819

                      1                      2                      3
                      A                      A                      A
 Frequencies --     29.6738                33.9558                58.1555
 Red. masses --      6.2641                 6.6061                 5.5473
 Frc consts  --      0.0032                 0.0045                 0.0111
 IR Inten    --      4.7934                 4.2234                 1.0147

                      4                      5                      6
                      A                      A                      A
 Frequencies --     64.1086                73.9667               157.3423
 Red. masses --      6.4085                 4.2358                 3.7433
 Frc consts  --      0.0155                 0.0137                 0.0546
 IR Inten    --      2.9723                 4.3154                16.8401

                      7                      8                      9
                      A                      A                      A
 Frequencies --    189.1796               223.8836               278.9661
 Red. masses --      2.6959                 4.3084                 3.4081
 Frc consts  --      0.0568                 0.1272                 0.1563
 IR Inten    --     21.2260                 4.4028                18.6538

                     10                     11                     12
                      A                      A                      A
 Frequencies --    312.8204               348.0209               367.3619
 Red. masses --      5.8428                 4.4456                 3.0261
 Frc consts  --      0.3369                 0.3172                 0.2406
 IR Inten    --      7.8519                31.8479                 4.3459

                     13                     14                     15
                      A                      A                      A
 Frequencies --    422.2988               430.2658               502.6293
 Red. masses --      3.0387                 4.3137                 1.4831
 Frc consts  --      0.3193                 0.4705                 0.2208
 IR Inten    --      0.0588                20.4586                17.3810

                     16                     17                     18
                      A                      A                      A
 Frequencies --    522.7466               535.0637               646.5307
 Red. masses --      2.9097                 6.8832                 6.8786
 Frc consts  --      0.4685                 1.1610                 1.6941
 IR Inten    --      3.1897                 1.5150                 0.3949

                     19                     20                     21
                      A                      A                      A
 Frequencies --    661.3420               711.1302               730.1552
 Red. masses --      5.4184                 3.7944                 1.6717
 Frc consts  --      1.3963                 1.1305                 0.5251
 IR Inten    --      4.0396                14.9344                 4.9814

                     22                     23                     24
                      A                      A                      A
 Frequencies --    759.3538               815.3155               832.0309
 Red. masses --      4.8772                 2.9136                 2.8147
 Frc consts  --      1.6570                 1.1411                 1.1480
 IR Inten    --     14.2665                 4.3456                19.5472

                     25                     26                     27
                      A                      A                      A
 Frequencies --    857.1527               869.8391               879.1823
 Red. masses --      1.2761                 2.4465                 3.5068
 Frc consts  --      0.5524                 1.0906                 1.5971
 IR Inten    --      1.0181                25.2985                23.4584

                     28                     29                     30
                      A                      A                      A
 Frequencies --    983.3729               987.9198               995.3742
 Red. masses --      1.9696                 1.6755                 1.4684
 Frc consts  --      1.1222                 0.9634                 0.8572
 IR Inten    --      3.4080                 2.4787                 3.0166

                     31                     32                     33
                      A                      A                      A
 Frequencies --   1019.4624              1031.9971              1034.1250
 Red. masses --      2.4895                 2.1410                 2.8297
 Frc consts  --      1.5244                 1.3434                 1.7829
 IR Inten    --     13.0436                 5.3961                 5.2274

                     34                     35                     36
                      A                      A                      A
 Frequencies --   1063.0263              1130.5215              1135.9447
 Red. masses --      1.6927                 2.9495                 1.2867
 Frc consts  --      1.1270                 2.2210                 0.9783
 IR Inten    --      2.1556                43.9379                 7.2058

                     37                     38                     39
                      A                      A                      A
 Frequencies --   1195.3441              1206.6570              1228.9298
 Red. masses --      1.4466                 1.2873                 2.4219
 Frc consts  --      1.2178                 1.1043                 2.1550
 IR Inten    --     56.7072                 2.4430                 7.5183

                     40                     41                     42
                      A                      A                      A
 Frequencies --   1240.8056              1315.2553              1330.1328
 Red. masses --      1.8271                 1.4265                 1.2889
 Frc consts  --      1.6573                 1.4540                 1.3436
 IR Inten    --     59.0144                 0.1502                11.1539

                     43                     44                     45
                      A                      A                      A
 Frequencies --   1345.5205              1377.0085              1397.5810
 Red. masses --      1.1930                 5.4310                12.0217
 Frc consts  --      1.2726                 6.0674                13.8347
 IR Inten    --     20.1915                 9.6148               386.9691

                     46                     47                     48
                      A                      A                      A
 Frequencies --   1405.4119              1430.0650              1457.6562
 Red. masses --      1.2935                 1.2410                 2.9248
 Frc consts  --      1.5053                 1.4954                 3.6615
 IR Inten    --      4.1355                 9.4311                 1.4653

                     49                     50                     51
                      A                      A                      A
 Frequencies --   1485.0200              1509.8673              1531.7331
 Red. masses --      1.1033                 1.1091                 1.8744
 Frc consts  --      1.4336                 1.4897                 2.5911
 IR Inten    --      9.1958                 5.4535               145.3914

                     52                     53                     54
                      A                      A                      A
 Frequencies --   1535.8303              1615.1241              1655.3966
 Red. masses --      2.3967                 9.8307                 5.8722
 Frc consts  --      3.3308                15.1094                 9.4810
 IR Inten    --      4.4457               112.8923                31.7328

                     55                     56                     57
                      A                      A                      A
 Frequencies --   1668.7247              1802.5870              2963.9641
 Red. masses --      9.3364                 7.4720                 1.0867
 Frc consts  --     15.3179                14.3048                 5.6248
 IR Inten    --     94.5447               233.6299               140.4113

                     58                     59                     60
                      A                      A                      A
 Frequencies --   3056.3696              3073.9311              3107.9079
 Red. masses --      1.0611                 1.0610                 1.1017
 Frc consts  --      5.8399                 5.9067                 6.2700
 IR Inten    --     14.0485                28.2247                 1.4828

                     61                     62                     63
                      A                      A                      A
 Frequencies --   3131.6925              3187.7921              3193.5088
 Red. masses --      1.1078                 1.0903                 1.0909
 Frc consts  --      6.4012                 6.5281                 6.5550
 IR Inten    --     13.1343                10.9006                 4.0140

                     64                     65                     66
                      A                      A                      A
 Frequencies --   3245.1967              3245.5100              3641.6010
 Red. masses --      1.0927                 1.0929                 1.0786
 Frc consts  --      6.7801                 6.7825                 8.4274
 IR Inten    --      1.0210                 1.4683                24.6793

 - Thermochemistry -
 -------------------
 Temperature   298.150 Kelvin.  Pressure   1.00000 Atm.
 Atom     1 has atomic number  8 and mass  15.99491

 Molecular mass:   194.06914 amu.
 Principal axes and moments of inertia in atomic units:
                           1         2         3
     Eigenvalues --   797.143597149.122107726.41853
           X            0.99999   0.00481  -0.00185
           Y           -0.00481   0.99998  -0.00284
           Z            0.00184   0.00285   0.99999
 This molecule is an asymmetric top.
 Rotational symmetry number  1.
 Warning -- assumption of classical behavior for rotation
           may cause significant error
 Rotational temperatures (Kelvin)      0.10866     0.01212     0.01121
 Rotational constants (GHZ):           2.26401     0.25244     0.23358
 Zero-point vibrational energy     492121.8 (Joules/Mol)
                                  117.61993 (Kcal/Mol)
 Warning -- explicit consideration of  17 degrees of freedom as
           vibrations may cause significant error
 Vibrational temperatures:     42.69    48.85    83.67    92.24   106.42
          (Kelvin)            226.38   272.19   322.12   401.37   450.08
                              500.72   528.55   607.59   619.06   723.17
                              752.11   769.84   930.21   951.52  1023.16
                             1050.53  1092.54  1173.06  1197.11  1233.25
                             1251.50  1264.95  1414.85  1421.39  1432.12
                             1466.78  1484.81  1487.87  1529.46  1626.57
                             1634.37  1719.83  1736.11  1768.15  1785.24
                             1892.36  1913.76  1935.90  1981.21  2010.80
                             2022.07  2057.54  2097.24  2136.61  2172.36
                             2203.82  2209.71  2323.80  2381.74  2400.92
                             2593.52  4264.48  4397.43  4422.70  4471.58
                             4505.80  4586.52  4594.74  4669.11  4669.56
                             5239.45

 Zero-point correction=                           0.187439 (Hartree/Particle)
 Thermal correction to Energy=                    0.200251
 Thermal correction to Enthalpy=                  0.201196
 Thermal correction to Gibbs Free Energy=         0.145538
 Sum of electronic and zero-point Energies=           -683.898697
 Sum of electronic and thermal Energies=              -683.885885
 Sum of electronic and thermal Enthalpies=            -683.884940
 Sum of electronic and thermal Free Energies=         -683.940598

                     E (Thermal)             CV                S
                      KCal/Mol        Cal/Mol-Kelvin    Cal/Mol-Kelvin
 Total                  125.660             46.472            117.141
 Electronic               0.000              0.000              0.000
 Translational            0.889              2.981             41.694
 Rotational               0.889              2.981             32.154
 Vibrational            123.882             40.511             43.292
 Vibration     1          0.593              1.984              5.851
 Vibration     2          0.594              1.983              5.584
 Vibration     3          0.596              1.974              4.519
 Vibration     4          0.597              1.971              4.327
 Vibration     5          0.599              1.966              4.045
 Vibration     6          0.621              1.894              2.582
 Vibration     7          0.633              1.855              2.236
 Vibration     8          0.649              1.805              1.927
 Vibration     9          0.679              1.712              1.540
 Vibration    10          0.701              1.649              1.347
 Vibration    11          0.726              1.579              1.175
 Vibration    12          0.740              1.539              1.091
 Vibration    13          0.785              1.422              0.884
 Vibration    14          0.791              1.404              0.858
 Vibration    15          0.858              1.244              0.652
 Vibration    16          0.878              1.200              0.604
 Vibration    17          0.890              1.172              0.576

 Normal termination of Gaussian 09 at Fri Aug 20 15:59:39 2021.
