 Gaussian 09, Revision E.01,
 Gaussian 09:  ES64L-G09RevE.01 30-Nov-2015

 -------------------------
 #P OPT Freq B3LYP/6-31G**
 -------------------------

 ------
 SORBEG
 ------
 Symbolic Z-matrix:
 Charge =  0 Multiplicity = 1

 SCF Done:  E(RB3LYP) =  -661.657755958     A.U. after   16 cycles
 SCF Done:  E(RB3LYP) =  -661.737428563     A.U. after   14 cycles
 SCF Done:  E(RB3LYP) =  -661.766181163     A.U. after   15 cycles
 SCF Done:  E(RB3LYP) =  -661.751010607     A.U. after   17 cycles
 SCF Done:  E(RB3LYP) =  -661.766656344     A.U. after   12 cycles
 SCF Done:  E(RB3LYP) =  -661.766931314     A.U. after   12 cycles
 SCF Done:  E(RB3LYP) =  -661.766963944     A.U. after   11 cycles
 SCF Done:  E(RB3LYP) =  -661.766968022     A.U. after    9 cycles
 SCF Done:  E(RB3LYP) =  -661.766969725     A.U. after    9 cycles
 SCF Done:  E(RB3LYP) =  -661.766969919     A.U. after    8 cycles
 SCF Done:  E(RB3LYP) =  -661.766972389     A.U. after    8 cycles
 SCF Done:  E(RB3LYP) =  -661.766959305     A.U. after   13 cycles
 SCF Done:  E(RB3LYP) =  -661.766978846     A.U. after   12 cycles
 SCF Done:  E(RB3LYP) =  -661.766942043     A.U. after   13 cycles
 SCF Done:  E(RB3LYP) =  -661.766985091     A.U. after   12 cycles
 SCF Done:  E(RB3LYP) =  -661.766986408     A.U. after   11 cycles
 SCF Done:  E(RB3LYP) =  -661.766986653     A.U. after   10 cycles
 SCF Done:  E(RB3LYP) =  -661.766986694     A.U. after    8 cycles
 SCF Done:  E(RB3LYP) =  -661.766986695     A.U. after    7 cycles
 Optimization completed.
    -- Stationary point found.
 Normal termination of Gaussian 09 at Fri Aug 20 15:47:50 2021.

 ----------------------------------------------------------------------
 #P Geom=AllCheck Guess=TCheck SCRF=Check GenChk RB3LYP/6-31G(d,p) Freq
 ----------------------------------------------------------------------

 Structure from the checkpoint file:  "/public/home/users/caep010/.cache/gau_scr/Gau-116352.chk"
 ------
 SORBEG
 ------
 Charge =  0 Multiplicity = 1

                         Standard orientation:
 ---------------------------------------------------------------------
 Center     Atomic      Atomic             Coordinates (Angstroms)
 Number     Number       Type             X           Y           Z
 ---------------------------------------------------------------------
      1          8           0       -4.056034   -1.116985    0.061785
      2          7           0       -3.498755   -0.020235    0.005342
      3          8           0       -4.086507    1.061415   -0.045979
      4          6           0       -2.033129   -0.000170   -0.000549
      5          6           0       -1.332563   -1.204678    0.055583
      6          6           0       -1.371500    1.224122   -0.065765
      7          6           0        0.017081    1.244023   -0.073205
      8          6           0        0.736643    0.040951   -0.006367
      9          6           0        0.054892   -1.184591    0.054295
     10          7           0        2.147620    0.045213   -0.001257
     11          7           0        2.828593   -1.127708   -0.136771
     12          6           0        4.107764   -0.785701   -0.086406
     13          6           0        4.279226    0.610448    0.085285
     14          6           0        3.000997    1.111028    0.136781
     15          1           0       -1.881142   -2.136710    0.103896
     16          1           0        0.628740   -2.100583    0.098354
     17          1           0        0.529783    2.195397   -0.145736
     18          1           0       -1.948209    2.138657   -0.117542
     19          1           0        4.867185   -1.550692   -0.176009
     20          1           0        5.200931    1.166364    0.165027
     21          1           0        2.644354    2.118640    0.276444
 ---------------------------------------------------------------------

 SCF Done:  E(RB3LYP) =  -661.766986695     A.U. after    1 cycles

 The electronic state is 1-A.
 Alpha  occ. eigenvalues --  -19.17931 -19.17915 -14.57109 -14.44096 -14.36737
 Alpha  occ. eigenvalues --  -10.27193 -10.25434 -10.24447 -10.22802 -10.22664
 Alpha  occ. eigenvalues --  -10.22631 -10.22522 -10.21820 -10.20377  -1.22222
 Alpha  occ. eigenvalues --   -1.07079  -1.04921  -0.90749  -0.86314  -0.81164
 Alpha  occ. eigenvalues --   -0.78929  -0.77927  -0.70573  -0.65440  -0.62878
 Alpha  occ. eigenvalues --   -0.60742  -0.58649  -0.56961  -0.55138  -0.53047
 Alpha  occ. eigenvalues --   -0.51294  -0.48838  -0.48094  -0.47303  -0.46836
 Alpha  occ. eigenvalues --   -0.45492  -0.44542  -0.42308  -0.41516  -0.39516
 Alpha  occ. eigenvalues --   -0.37904  -0.31770  -0.30989  -0.30857  -0.30522
 Alpha  occ. eigenvalues --   -0.28964  -0.28541  -0.26942  -0.24851
 Alpha virt. eigenvalues --   -0.09137  -0.03339  -0.02700   0.03126   0.05321
 Alpha virt. eigenvalues --    0.06934   0.10050   0.12126   0.14076   0.14308
 Alpha virt. eigenvalues --    0.14794   0.16471   0.17659   0.18210   0.19689

 Mulliken charges:
               1
     1  O   -0.398570
     2  N    0.382419
     3  O   -0.401343
     4  C    0.255506
     5  C   -0.102668
     6  C   -0.107337
     7  C   -0.116555
     8  C    0.343973
     9  C   -0.103768
    10  N   -0.397967
    11  N   -0.293148
    12  C    0.122327
    13  C   -0.209623
    14  C    0.143826
    15  H    0.143261
    16  H    0.144175
    17  H    0.105164
    18  H    0.142001
    19  H    0.114354
    20  H    0.104627
    21  H    0.129347
 Sum of Mulliken charges =  -0.00000

 Dipole moment (field-independent basis, Debye):
    X=              5.1565    Y=              1.7951    Z=              0.2348  Tot=              5.4651
 Quadrupole moment (field-independent basis, Debye-Ang):
   XX=            -90.6319   YY=            -73.3808   ZZ=            -80.4738
   XY=              3.8116   XZ=              0.6844   YZ=              0.0270

  Exact polarizability: 217.899  -0.213 119.758   0.081   0.188  42.270
 Approx polarizability: 321.968  -0.992 242.118   0.010  -0.484  67.549

                      1                      2                      3
                      A                      A                      A
 Frequencies --     28.5069                63.1784                68.2592
 Red. masses --      4.5039                 7.1027                 7.1478
 Frc consts  --      0.0022                 0.0167                 0.0196
 IR Inten    --      2.4193                 0.8239                 0.3038

                      4                      5                      6
                      A                      A                      A
 Frequencies --    136.9932               170.4555               264.9859
 Red. masses --      6.3982                 6.5599                 6.5330
 Frc consts  --      0.0707                 0.1123                 0.2703
 IR Inten    --      1.5714                 4.6648                 2.8495

                      7                      8                      9
                      A                      A                      A
 Frequencies --    281.7606               318.5030               421.0874
 Red. masses --     10.2689                 6.1550                 3.1273
 Frc consts  --      0.4803                 0.3679                 0.3267
 IR Inten    --      0.2899                 0.1012                 0.1874

                     10                     11                     12
                      A                      A                      A
 Frequencies --    458.6467               512.1644               520.6539
 Red. masses --      5.7221                 3.2148                 7.3590
 Frc consts  --      0.7092                 0.4969                 1.1753
 IR Inten    --      2.3055                 3.4553                16.6949

                     13                     14                     15
                      A                      A                      A
 Frequencies --    543.8236               618.9738               642.6448
 Red. masses --      6.0414                 3.0581                 7.0657
 Frc consts  --      1.0527                 0.6903                 1.7193
 IR Inten    --      0.6767                 4.2097                 0.2509

                     16                     17                     18
                      A                      A                      A
 Frequencies --    666.1826               695.9559               735.1781
 Red. masses --      6.4236                 3.8525                 7.5085
 Frc consts  --      1.6796                 1.0994                 2.3911
 IR Inten    --      3.6507                 7.1698                 0.0583

                     19                     20                     21
                      A                      A                      A
 Frequencies --    751.8196               756.9939               831.5249
 Red. masses --      1.2952                 5.9339                 1.3270
 Frc consts  --      0.4313                 2.0034                 0.5406
 IR Inten    --     42.5561                24.7111                 9.3653

                     22                     23                     24
                      A                      A                      A
 Frequencies --    845.7625               864.1707               878.7263
 Red. masses --      1.2570                 9.8953                 1.6016
 Frc consts  --      0.5298                 4.3539                 0.7286
 IR Inten    --      0.7031                65.2556                34.4717

                     25                     26                     27
                      A                      A                      A
 Frequencies --    900.9785               927.9984               950.7347
 Red. masses --      1.3305                 6.1474                 4.1927
 Frc consts  --      0.6363                 3.1192                 2.2329
 IR Inten    --      4.1010                 3.8870                61.0287

                     28                     29                     30
                      A                      A                      A
 Frequencies --    975.5788              1001.0655              1026.8355
 Red. masses --      1.3199                 1.3020                 3.1011
 Frc consts  --      0.7401                 0.7687                 1.9265
 IR Inten    --      1.1829                 0.0766                 0.4545

                     31                     32                     33
                      A                      A                      A
 Frequencies --   1052.3783              1069.7018              1132.4905
 Red. masses --      2.1820                 1.4749                 1.3672
 Frc consts  --      1.4238                 0.9943                 1.0331
 IR Inten    --     17.5485                59.4002                 7.3383

                     34                     35                     36
                      A                      A                      A
 Frequencies --   1134.5395              1149.8629              1205.0819
 Red. masses --      2.7253                 1.9168                 1.3523
 Frc consts  --      2.0668                 1.4932                 1.1571
 IR Inten    --     85.6337                14.0179                 2.0061

                     37                     38                     39
                      A                      A                      A
 Frequencies --   1233.5107              1282.8416              1331.3801
 Red. masses --      1.7066                 2.6300                 1.4253
 Frc consts  --      1.5299                 2.5501                 1.4885
 IR Inten    --     26.0820                24.0172                14.1324

                     40                     41                     42
                      A                      A                      A
 Frequencies --   1378.8438              1385.6333              1393.5937
 Red. masses --      6.7615                 4.4598                 8.7629
 Frc consts  --      7.5739                 5.0450                10.0269
 IR Inten    --    108.3194               158.5959               430.6928

                     43                     44                     45
                      A                      A                      A
 Frequencies --   1444.6695              1455.6103              1479.3596
 Red. masses --      3.9854                 3.8958                 3.6850
 Frc consts  --      4.9007                 4.8634                 4.7516
 IR Inten    --     60.6479                27.6271                 2.1229

                     46                     47                     48
                      A                      A                      A
 Frequencies --   1546.1970              1584.5265              1617.8942
 Red. masses --      2.8989                 4.6708                10.2825
 Frc consts  --      4.0833                 6.9093                15.8581
 IR Inten    --    103.8783                57.7860               109.9212

                     49                     50                     51
                      A                      A                      A
 Frequencies --   1655.4073              1669.0290              3224.1626
 Red. masses --      5.9516                 9.3199                 1.0896
 Frc consts  --      9.6094                15.2964                 6.6735
 IR Inten    --    177.1268                94.5671                 5.3264

                     52                     53                     54
                      A                      A                      A
 Frequencies --   3243.5941              3249.1653              3255.3652
 Red. masses --      1.0894                 1.0935                 1.0946
 Frc consts  --      6.7531                 6.8016                 6.8344
 IR Inten    --      1.0362                 1.9946                 1.0645

                     55                     56                     57
                      A                      A                      A
 Frequencies --   3256.5224              3280.4705              3301.2588
 Red. masses --      1.0939                 1.0945                 1.1042
 Frc consts  --      6.8352                 6.9399                 7.0903
 IR Inten    --      4.7373                 0.4589                 0.5174

 - Thermochemistry -
 -------------------
 Temperature   298.150 Kelvin.  Pressure   1.00000 Atm.
 Atom     1 has atomic number  8 and mass  15.99491

 Molecular mass:   189.05383 amu.
 Principal axes and moments of inertia in atomic units:
                           1         2         3
     Eigenvalues --   647.369025626.232966265.46838
           X            1.00000   0.00279   0.00048
           Y           -0.00279   1.00000   0.00030
           Z           -0.00048  -0.00030   1.00000
 This molecule is an asymmetric top.
 Rotational symmetry number  1.
 Warning -- assumption of classical behavior for rotation
           may cause significant error
 Rotational temperatures (Kelvin)      0.13379     0.01539     0.01382
 Rotational constants (GHZ):           2.78781     0.32077     0.28805
 Zero-point vibrational energy     405972.1 (Joules/Mol)
                                   97.02966 (Kcal/Mol)
 Warning -- explicit consideration of  14 degrees of freedom as
           vibrations may cause significant error
 Vibrational temperatures:     41.02    90.90    98.21   197.10   245.25
          (Kelvin)            381.26   405.39   458.25   605.85   659.89
                              736.89   749.10   782.44   890.56   924.62
                              958.49  1001.32  1057.76  1081.70  1089.14
                             1196.38  1216.86  1243.35  1264.29  1296.31
                             1335.18  1367.89  1403.64  1440.31  1477.39
                             1514.14  1539.06  1629.40  1632.35  1654.39
                             1733.84  1774.74  1845.72  1915.56  1983.85
                             1993.61  2005.07  2078.55  2094.30  2128.47
                             2224.63  2279.78  2327.79  2381.76  2401.36
                             4638.85  4666.80  4674.82  4683.74  4685.40
                             4719.86  4749.77

 Zero-point correction=                           0.154627 (Hartree/Particle)
 Thermal correction to Energy=                    0.165249
 Thermal correction to Enthalpy=                  0.166193
 Thermal correction to Gibbs Free Energy=         0.116340
 Sum of electronic and zero-point Energies=           -661.612360
 Sum of electronic and thermal Energies=              -661.601737
 Sum of electronic and thermal Enthalpies=            -661.600793
 Sum of electronic and thermal Free Energies=         -661.650647

                     E (Thermal)             CV                S
                      KCal/Mol        Cal/Mol-Kelvin    Cal/Mol-Kelvin
 Total                  103.695             40.680            104.926
 Electronic               0.000              0.000              0.000
 Translational            0.889              2.981             41.616
 Rotational               0.889              2.981             31.501
 Vibrational            101.918             34.718             31.808
 Vibration     1          0.593              1.984              5.931
 Vibration     2          0.597              1.972              4.355
 Vibration     3          0.598              1.969              4.203
 Vibration     4          0.614              1.916              2.845
 Vibration     5          0.626              1.879              2.430
 Vibration     6          0.671              1.737              1.629
 Vibration     7          0.681              1.707              1.523
 Vibration     8          0.705              1.638              1.318
 Vibration     9          0.784              1.424              0.888
 Vibration    10          0.817              1.342              0.770
 Vibration    11          0.867              1.223              0.628
 Vibration    12          0.876              1.204              0.608
 Vibration    13          0.899              1.153              0.557
 Vibration    14          0.979              0.992              0.418

 Optimization completed.
    -- Stationary point found.
 Normal termination of Gaussian 09 at Fri Aug 20 15:48:27 2021.
