 Gaussian 09, Revision E.01,
 Gaussian 09:  ES64L-G09RevE.01 30-Nov-2015

 -------------------------
 #P OPT Freq B3LYP/6-31G**
 -------------------------

 ------
 HACVAL
 ------
 Symbolic Z-matrix:
 Charge =  0 Multiplicity = 1

 SCF Done:  E(RB3LYP) =  -683.824952955     A.U. after   14 cycles
 SCF Done:  E(RB3LYP) =  -683.948146768     A.U. after   13 cycles
 SCF Done:  E(RB3LYP) =  -684.020087198     A.U. after   13 cycles
 SCF Done:  E(RB3LYP) =  -684.021518305     A.U. after   13 cycles
 SCF Done:  E(RB3LYP) =  -684.019030590     A.U. after   14 cycles
 SCF Done:  E(RB3LYP) =  -684.021587755     A.U. after    9 cycles
 SCF Done:  E(RB3LYP) =  -684.021821871     A.U. after   12 cycles
 SCF Done:  E(RB3LYP) =  -684.021891090     A.U. after   11 cycles
 SCF Done:  E(RB3LYP) =  -684.021940110     A.U. after   11 cycles
 SCF Done:  E(RB3LYP) =  -684.021973249     A.U. after   11 cycles
 SCF Done:  E(RB3LYP) =  -684.021995874     A.U. after   11 cycles
 SCF Done:  E(RB3LYP) =  -684.022001328     A.U. after    9 cycles
 SCF Done:  E(RB3LYP) =  -684.022001644     A.U. after    8 cycles
 Optimization completed.
    -- Stationary point found.
 Normal termination of Gaussian 09 at Fri Aug 20 15:55:58 2021.

 ----------------------------------------------------------------------
 #P Geom=AllCheck Guess=TCheck SCRF=Check GenChk RB3LYP/6-31G(d,p) Freq
 ----------------------------------------------------------------------

 Structure from the checkpoint file:  "/public/home/users/caep010/.cache/gau_scr/Gau-90078.chk"
 ------
 HACVAL
 ------
 Charge =  0 Multiplicity = 1

                         Standard orientation:
 ---------------------------------------------------------------------
 Center     Atomic      Atomic             Coordinates (Angstroms)
 Number     Number       Type             X           Y           Z
 ---------------------------------------------------------------------
      1          7           0        2.921894   -1.547941    0.095049
      2          1           0        3.575508   -2.111915    0.633884
      3          6           0        3.262801   -0.125474    0.157912
      4          6           0        2.127161   -0.676471    0.972832
      5          1           0        4.144159    0.170998    0.726955
      6          1           0        2.325577   -0.721879    2.043919
      7          6           0        3.061990    0.681453   -1.099068
      8          8           0        3.015557    2.050183   -0.713657
      9          1           0        3.900035    0.481314   -1.785996
     10          1           0        2.139592    0.359929   -1.601390
     11          1           0        2.922026    2.582335   -1.513425
     12          6           0        0.686607   -0.471138    0.637743
     13          6           0        0.072751   -1.168927   -0.411791
     14          1           0        0.665289   -1.876143   -0.981277
     15          6           0       -1.272215   -0.966921   -0.707973
     16          1           0       -1.765612   -1.499562   -1.511231
     17          6           0       -1.999460   -0.059503    0.059232
     18          6           0       -1.418329    0.646190    1.112660
     19          1           0       -2.020407    1.340461    1.684808
     20          6           0       -0.074437    0.433580    1.394908
     21          1           0        0.394067    0.978867    2.209155
     22          7           0       -3.420151    0.157207   -0.245822
     23          8           0       -3.907254   -0.470746   -1.186722
     24          8           0       -4.042509    0.954813    0.456790
 ---------------------------------------------------------------------

 SCF Done:  E(RB3LYP) =  -684.022001644     A.U. after    1 cycles

 The electronic state is 1-A.
 Alpha  occ. eigenvalues --  -19.17436 -19.17434 -19.15254 -14.56562 -14.35068
 Alpha  occ. eigenvalues --  -10.24704 -10.24210 -10.24031 -10.23597 -10.22168
 Alpha  occ. eigenvalues --  -10.21541 -10.21477 -10.21068 -10.20618  -1.21709
 Alpha  occ. eigenvalues --   -1.04401  -1.02577  -0.97867  -0.88564  -0.80848
 Alpha  occ. eigenvalues --   -0.76808  -0.73066  -0.71826  -0.64846  -0.62984
 Alpha  occ. eigenvalues --   -0.59993  -0.57612  -0.55313  -0.55097  -0.52499
 Alpha  occ. eigenvalues --   -0.51514  -0.50447  -0.49280  -0.46798  -0.46043
 Alpha  occ. eigenvalues --   -0.44960  -0.44125  -0.42396  -0.39276  -0.38057
 Alpha  occ. eigenvalues --   -0.36952  -0.35478  -0.34381  -0.34335  -0.30360
 Alpha  occ. eigenvalues --   -0.30142  -0.28454  -0.28343  -0.27689  -0.27029
 Alpha  occ. eigenvalues --   -0.25673
 Alpha virt. eigenvalues --   -0.08348  -0.02187   0.00261   0.05749   0.06692
 Alpha virt. eigenvalues --    0.09172   0.11133   0.12116   0.13986   0.14557
 Alpha virt. eigenvalues --    0.15310   0.15930   0.16857   0.17528   0.18374

 Mulliken charges:
               1
     1  N   -0.496971
     2  H    0.258199
     3  C    0.029092
     4  C   -0.056882
     5  H    0.111822
     6  H    0.108206
     7  C    0.063141
     8  O   -0.539386
     9  H    0.089151
    10  H    0.093471
    11  H    0.311962
    12  C    0.150053
    13  C   -0.133229
    14  H    0.124699
    15  C   -0.091979
    16  H    0.135466
    17  C    0.244549
    18  C   -0.094745
    19  H    0.135915
    20  C   -0.125484
    21  H    0.099751
    22  N    0.383905
    23  O   -0.400202
    24  O   -0.400505
 Sum of Mulliken charges =  -0.00000

 Dipole moment (field-independent basis, Debye):
    X=              5.8536    Y=             -0.5000    Z=              0.7109  Tot=              5.9178
 Quadrupole moment (field-independent basis, Debye-Ang):
   XX=            -92.8449   YY=            -78.8389   ZZ=            -73.3506
   XY=             -0.4791   XZ=             -2.0688   YZ=             -4.7865

  Exact polarizability: 167.311 -11.843  90.511   8.442  19.251  96.429
 Approx polarizability: 236.935 -22.905 156.761  17.179  57.245 173.558

                      1                      2                      3
                      A                      A                      A
 Frequencies --     31.1657                42.6862                67.7155
 Red. masses --      6.0103                 7.1859                 6.4346
 Frc consts  --      0.0034                 0.0077                 0.0174
 IR Inten    --      0.0227                 0.2020                 0.3018

                      4                      5                      6
                      A                      A                      A
 Frequencies --     80.9115               141.6836               168.5796
 Red. masses --      5.1433                 4.4901                 4.2180
 Frc consts  --      0.0198                 0.0531                 0.0706
 IR Inten    --      3.1970                 1.4995                 6.1295

                      7                      8                      9
                      A                      A                      A
 Frequencies --    232.1914               248.4613               281.5399
 Red. masses --      3.1317                 1.3113                 4.3150
 Frc consts  --      0.0995                 0.0477                 0.2015
 IR Inten    --     19.4265               111.2808                 9.7216

                     10                     11                     12
                      A                      A                      A
 Frequencies --    305.1007               333.5703               423.7765
 Red. masses --      5.0255                 4.4315                 3.0946
 Frc consts  --      0.2756                 0.2905                 0.3274
 IR Inten    --      5.7697                 6.5852                 0.1448

                     13                     14                     15
                      A                      A                      A
 Frequencies --    442.4111               461.8908               510.6154
 Red. masses --      5.1445                 3.9280                 6.6546
 Frc consts  --      0.5933                 0.4937                 1.0223
 IR Inten    --      3.2718                 8.2500                 6.4563

                     16                     17                     18
                      A                      A                      A
 Frequencies --    535.2356               551.8883               641.2858
 Red. masses --      5.7038                 3.5084                 6.3683
 Frc consts  --      0.9627                 0.6296                 1.5430
 IR Inten    --      2.8215                 1.7182                 0.4690

                     19                     20                     21
                      A                      A                      A
 Frequencies --    659.1994               714.3965               752.8606
 Red. masses --      4.6179                 4.1768                 4.8144
 Frc consts  --      1.1823                 1.2560                 1.6078
 IR Inten    --      2.4421                13.7821                32.5449

                     22                     23                     24
                      A                      A                      A
 Frequencies --    787.9829               810.9748               859.8323
 Red. masses --      4.2333                 3.0125                 1.3056
 Frc consts  --      1.5487                 1.1673                 0.5687
 IR Inten    --     15.6418                 6.0314                 2.9167

                     25                     26                     27
                      A                      A                      A
 Frequencies --    868.0729               886.5085               925.2260
 Red. masses --      8.0335                 1.5609                 3.0075
 Frc consts  --      3.5667                 0.7227                 1.5169
 IR Inten    --     31.1964                29.2758                47.3629

                     28                     29                     30
                      A                      A                      A
 Frequencies --    946.7686               987.7638              1006.6929
 Red. masses --      1.4060                 1.3234                 1.3130
 Frc consts  --      0.7426                 0.7607                 0.7840
 IR Inten    --      6.7510                 0.9131                 2.5682

                     31                     32                     33
                      A                      A                      A
 Frequencies --   1009.6228              1027.4528              1033.8487
 Red. masses --      2.8584                 1.4776                 2.5167
 Frc consts  --      1.7167                 0.9190                 1.5849
 IR Inten    --      8.0953                33.8624                 7.7989

                     34                     35                     36
                      A                      A                      A
 Frequencies --   1087.0952              1108.9819              1127.4333
 Red. masses --      4.9642                 1.4239                 1.4993
 Frc consts  --      3.4565                 1.0318                 1.1229
 IR Inten    --     55.1120                 5.1738                21.5702

                     37                     38                     39
                      A                      A                      A
 Frequencies --   1130.5274              1161.7062              1196.8835
 Red. masses --      2.1737                 1.4062                 1.2626
 Frc consts  --      1.6369                 1.1181                 1.0656
 IR Inten    --     33.5673                12.6252                12.5253

                     40                     41                     42
                      A                      A                      A
 Frequencies --   1202.6571              1214.8520              1252.6333
 Red. masses --      1.4843                 1.5280                 1.3412
 Frc consts  --      1.2649                 1.3287                 1.2399
 IR Inten    --      8.0032                 7.4809                45.8974

                     43                     44                     45
                      A                      A                      A
 Frequencies --   1271.6719              1292.5421              1324.5430
 Red. masses --      1.4376                 1.2889                 1.3249
 Frc consts  --      1.3698                 1.2687                 1.3695
 IR Inten    --     29.7065                 1.4832                 1.5010

                     46                     47                     48
                      A                      A                      A
 Frequencies --   1373.4919              1395.6276              1404.8111
 Red. masses --      6.8195                 7.5233                 1.5517
 Frc consts  --      7.5798                 8.6337                 1.8042
 IR Inten    --      5.7793               399.6754                16.6199

                     49                     50                     51
                      A                      A                      A
 Frequencies --   1436.2356              1465.0109              1503.0425
 Red. masses --      2.4047                 2.0333                 2.1500
 Frc consts  --      2.9225                 2.5712                 2.8617
 IR Inten    --     10.7791                 4.0108                 1.2265

                     52                     53                     54
                      A                      A                      A
 Frequencies --   1533.6391              1536.2461              1612.5343
 Red. masses --      1.1481                 2.2628                10.0603
 Frc consts  --      1.5910                 3.1465                15.4127
 IR Inten    --      5.5887                 9.9159               118.4751

                     55                     56                     57
                      A                      A                      A
 Frequencies --   1655.8868              1666.4477              2988.3908
 Red. masses --      5.8492                 9.4608                 1.0650
 Frc consts  --      9.4495                15.4796                 5.6036
 IR Inten    --     41.7443                90.7359                63.9173

                     58                     59                     60
                      A                      A                      A
 Frequencies --   3042.8744              3120.3714              3133.3615
 Red. masses --      1.0972                 1.0863                 1.0895
 Frc consts  --      5.9854                 6.2319                 6.3021
 IR Inten    --     39.8037                 7.6521                35.2424

                     61                     62                     63
                      A                      A                      A
 Frequencies --   3192.9102              3220.6388              3243.6603
 Red. masses --      1.0904                 1.0896                 1.0933
 Frc consts  --      6.5494                 6.6592                 6.7775
 IR Inten    --      7.7562                 0.4219                 0.4860

                     64                     65                     66
                      A                      A                      A
 Frequencies --   3245.9691              3520.1160              3831.1884
 Red. masses --      1.0929                 1.0774                 1.0666
 Frc consts  --      6.7843                 7.8658                 9.2240
 IR Inten    --      1.0180                 2.3544                20.1168

 - Thermochemistry -
 -------------------
 Temperature   298.150 Kelvin.  Pressure   1.00000 Atm.
 Atom     1 has atomic number  7 and mass  14.00307

 Molecular mass:   194.06914 amu.
 Principal axes and moments of inertia in atomic units:
                           1         2         3
     Eigenvalues --  1162.088645476.520315663.05295
           X            0.99999   0.00067  -0.00417
           Y           -0.00063   0.99996   0.00929
           Z            0.00418  -0.00929   0.99995
 This molecule is an asymmetric top.
 Rotational symmetry number  1.
 Warning -- assumption of classical behavior for rotation
           may cause significant error
 Rotational temperatures (Kelvin)      0.07453     0.01582     0.01529
 Rotational constants (GHZ):           1.55302     0.32954     0.31869
 Zero-point vibrational energy     492095.2 (Joules/Mol)
                                  117.61358 (Kcal/Mol)
 Warning -- explicit consideration of  17 degrees of freedom as
           vibrations may cause significant error
 Vibrational temperatures:     44.84    61.42    97.43   116.41   203.85
          (Kelvin)            242.55   334.07   357.48   405.07   438.97
                              479.93   609.72   636.53   664.56   734.66
                              770.08   794.04   922.67   948.44  1027.86
                             1083.20  1133.73  1166.81  1237.11  1248.96
                             1275.49  1331.19  1362.19  1421.17  1448.40
                             1452.62  1478.27  1487.48  1564.09  1595.58
                             1622.12  1626.57  1671.43  1722.05  1730.35
                             1747.90  1802.26  1829.65  1859.68  1905.72
                             1976.15  2007.99  2021.21  2066.42  2107.82
                             2162.54  2206.56  2210.31  2320.07  2382.45
                             2397.64  4299.62  4378.01  4489.51  4508.20
                             4593.88  4633.78  4666.90  4670.22  5064.66
                             5512.22

 Zero-point correction=                           0.187429 (Hartree/Particle)
 Thermal correction to Energy=                    0.199824
 Thermal correction to Enthalpy=                  0.200769
 Thermal correction to Gibbs Free Energy=         0.146921
 Sum of electronic and zero-point Energies=           -683.834572
 Sum of electronic and thermal Energies=              -683.822177
 Sum of electronic and thermal Enthalpies=            -683.821233
 Sum of electronic and thermal Free Energies=         -683.875081

                     E (Thermal)             CV                S
                      KCal/Mol        Cal/Mol-Kelvin    Cal/Mol-Kelvin
 Total                  125.392             46.272            113.332
 Electronic               0.000              0.000              0.000
 Translational            0.889              2.981             41.694
 Rotational               0.889              2.981             31.955
 Vibrational            123.614             40.310             39.683
 Vibration     1          0.594              1.983              5.754
 Vibration     2          0.595              1.980              5.130
 Vibration     3          0.598              1.970              4.219
 Vibration     4          0.600              1.962              3.869
 Vibration     5          0.615              1.912              2.781
 Vibration     6          0.625              1.881              2.451
 Vibration     7          0.653              1.792              1.862
 Vibration     8          0.662              1.765              1.741
 Vibration     9          0.681              1.708              1.524
 Vibration    10          0.696              1.664              1.389
 Vibration    11          0.715              1.608              1.243
 Vibration    12          0.786              1.419              0.879
 Vibration    13          0.802              1.378              0.819
 Vibration    14          0.820              1.335              0.761
 Vibration    15          0.866              1.226              0.632
 Vibration    16          0.890              1.172              0.576
 Vibration    17          0.907              1.136              0.540

 Normal termination of Gaussian 09 at Fri Aug 20 15:56:42 2021.
