 Gaussian 09, Revision E.01,
 Gaussian 09:  ES64L-G09RevE.01 30-Nov-2015

 -------------------------
 #P OPT Freq B3LYP/6-31G**
 -------------------------

 ------
 TUQHET
 ------
 Symbolic Z-matrix:
 Charge =  0 Multiplicity = 1

 SCF Done:  E(RB3LYP) =  -719.846545846     A.U. after   15 cycles
 SCF Done:  E(RB3LYP) =  -719.957416139     A.U. after   13 cycles
 SCF Done:  E(RB3LYP) =  -720.013174967     A.U. after   14 cycles
 SCF Done:  E(RB3LYP) =  -720.014653188     A.U. after   14 cycles
 SCF Done:  E(RB3LYP) =  -720.010593890     A.U. after   15 cycles
 SCF Done:  E(RB3LYP) =  -720.014863984     A.U. after   10 cycles
 SCF Done:  E(RB3LYP) =  -720.014936942     A.U. after   13 cycles
 SCF Done:  E(RB3LYP) =  -720.015045226     A.U. after   12 cycles
 SCF Done:  E(RB3LYP) =  -720.015073895     A.U. after   11 cycles
 SCF Done:  E(RB3LYP) =  -720.015082495     A.U. after   10 cycles
 SCF Done:  E(RB3LYP) =  -720.015086420     A.U. after    9 cycles
 SCF Done:  E(RB3LYP) =  -720.015086853     A.U. after    8 cycles
 SCF Done:  E(RB3LYP) =  -720.015087104     A.U. after    8 cycles
 SCF Done:  E(RB3LYP) =  -720.015087180     A.U. after    7 cycles
 Optimization completed.
    -- Stationary point found.
 Normal termination of Gaussian 09 at Fri Aug 20 15:42:22 2021.

 ----------------------------------------------------------------------
 #P Geom=AllCheck Guess=TCheck SCRF=Check GenChk RB3LYP/6-31G(d,p) Freq
 ----------------------------------------------------------------------

 Structure from the checkpoint file:  "/public/home/users/caep010/.cache/gau_scr/Gau-130399.chk"
 ------
 TUQHET
 ------
 Charge =  0 Multiplicity = 1

                         Standard orientation:
 ---------------------------------------------------------------------
 Center     Atomic      Atomic             Coordinates (Angstroms)
 Number     Number       Type             X           Y           Z
 ---------------------------------------------------------------------
      1          8           0        2.798354    1.657986    0.000041
      2          6           0        1.572015    1.724950    0.000009
      3          6           0        0.652263    0.575865    0.000138
      4          6           0        1.164476   -0.768714    0.000102
      5          6           0        0.225341   -1.837375   -0.000299
      6          7           0        2.494022   -1.008630    0.000539
      7          1           0        3.083209   -0.181138    0.000024
      8          6           0        3.095354   -2.326118   -0.000127
      9          1           0        2.814539   -2.905810    0.888199
     10          1           0        4.179813   -2.208186    0.001330
     11          6           0       -1.131911   -1.598281   -0.000303
     12          1           0        0.583347   -2.859310   -0.000664
     13          8           0        0.948879    2.923880   -0.000208
     14          1           0        1.654600    3.591193   -0.000025
     15          6           0       -1.607622   -0.279255   -0.000049
     16          7           0       -3.041576   -0.032520    0.000066
     17          8           0       -3.428243    1.139188   -0.000217
     18          6           0       -0.727982    0.792908    0.000087
     19          1           0       -1.845217   -2.413290   -0.000559
     20          1           0       -1.120473    1.800696    0.000121
     21          8           0       -3.792145   -1.013030    0.000411
     22          1           0        2.816691   -2.904176   -0.890229
 ---------------------------------------------------------------------

 SCF Done:  E(RB3LYP) =  -720.015087180     A.U. after    1 cycles

 The electronic state is 1-A.
 Alpha  occ. eigenvalues --  -19.21090 -19.16703 -19.16685 -19.15817 -14.55992
 Alpha  occ. eigenvalues --  -14.37553 -10.34117 -10.27089 -10.24191 -10.24069
 Alpha  occ. eigenvalues --  -10.22461 -10.22404 -10.22385 -10.21222  -1.20960
 Alpha  occ. eigenvalues --   -1.12285  -1.03612  -1.03023  -0.96703  -0.88353
 Alpha  occ. eigenvalues --   -0.80675  -0.78714  -0.73474  -0.68369  -0.67537
 Alpha  occ. eigenvalues --   -0.62760  -0.59010  -0.55698  -0.54076  -0.51949
 Alpha  occ. eigenvalues --   -0.51880  -0.51115  -0.49663  -0.48962  -0.47309
 Alpha  occ. eigenvalues --   -0.46340  -0.45952  -0.44649  -0.43214  -0.41450
 Alpha  occ. eigenvalues --   -0.40759  -0.39412  -0.37856  -0.33805  -0.32569
 Alpha  occ. eigenvalues --   -0.30033  -0.29784  -0.29307  -0.28242  -0.27829
 Alpha  occ. eigenvalues --   -0.22762
 Alpha virt. eigenvalues --   -0.07477  -0.06296   0.00836   0.04951   0.06619
 Alpha virt. eigenvalues --    0.08049   0.10092   0.11540   0.14359   0.14951
 Alpha virt. eigenvalues --    0.15165   0.16728   0.18417   0.19200   0.20696

 Mulliken charges:
               1
     1  O   -0.525006
     2  C    0.591026
     3  C   -0.013954
     4  C    0.345216
     5  C   -0.136520
     6  N   -0.598683
     7  H    0.303401
     8  C   -0.172731
     9  H    0.129468
    10  H    0.129800
    11  C   -0.090990
    12  H    0.100326
    13  O   -0.492279
    14  H    0.330401
    15  C    0.237187
    16  N    0.377638
    17  O   -0.411715
    18  C   -0.119438
    19  H    0.138790
    20  H    0.161188
    21  O   -0.412567
    22  H    0.129441
 Sum of Mulliken charges =  -0.00000

 Dipole moment (field-independent basis, Debye):
    X=              5.8914    Y=             -1.5830    Z=             -0.0011  Tot=              6.1004
 Quadrupole moment (field-independent basis, Debye-Ang):
   XX=            -94.4195   YY=            -66.5524   ZZ=            -79.1992
   XY=             -2.6657   XZ=             -0.0010   YZ=              0.0042

  Exact polarizability: 179.790  -6.306 135.267   0.001   0.004  45.597
 Approx polarizability: 305.249  -5.898 234.014   0.011  -0.001  70.276

                      1                      2                      3
                      A                      A                      A
 Frequencies --     60.4633                74.3843                82.5250
 Red. masses --     11.4537                10.5447                 4.0835
 Frc consts  --      0.0247                 0.0344                 0.0164
 IR Inten    --      0.0514                 1.3071                 0.6760

                      4                      5                      6
                      A                      A                      A
 Frequencies --    131.0568               160.0562               169.2743
 Red. masses --      3.2527                 8.2598                 4.7621
 Frc consts  --      0.0329                 0.1247                 0.0804
 IR Inten    --      2.3530                 1.7355                 3.7515

                      7                      8                      9
                      A                      A                      A
 Frequencies --    190.1499               209.1811               297.5419
 Red. masses --      1.2007                 3.7882                 6.3370
 Frc consts  --      0.0256                 0.0977                 0.3305
 IR Inten    --      0.2356                 2.2657                 0.1554

                     10                     11                     12
                      A                      A                      A
 Frequencies --    313.0210               347.8921               395.4164
 Red. masses --      5.8652                 8.7025                 7.6354
 Frc consts  --      0.3386                 0.6206                 0.7034
 IR Inten    --      1.0526                 3.2323                 2.5472

                     13                     14                     15
                      A                      A                      A
 Frequencies --    410.9653               440.5053               521.4881
 Red. masses --      6.8785                 3.2565                 3.0377
 Frc consts  --      0.6845                 0.3723                 0.4867
 IR Inten    --      9.2799                 4.4580                 5.2764

                     16                     17                     18
                      A                      A                      A
 Frequencies --    526.9808               593.1157               607.6777
 Red. masses --      8.1638                 1.2387                 4.1957
 Frc consts  --      1.3358                 0.2567                 0.9128
 IR Inten    --      6.7066                98.2617                 5.1966

                     19                     20                     21
                      A                      A                      A
 Frequencies --    642.5461               655.7824               670.6981
 Red. masses --      1.0915                 6.4541                 5.3868
 Frc consts  --      0.2655                 1.6353                 1.4277
 IR Inten    --     61.9864                12.9305                60.6321

                     22                     23                     24
                      A                      A                      A
 Frequencies --    710.2606               753.8456               776.0375
 Red. masses --      4.3066                 7.7039                 4.3452
 Frc consts  --      1.2800                 2.5794                 1.5418
 IR Inten    --     26.8599                15.1162                15.4177

                     25                     26                     27
                      A                      A                      A
 Frequencies --    783.9470               818.3941               838.1802
 Red. masses --      5.1477                 7.2246                 1.7110
 Frc consts  --      1.8639                 2.8509                 0.7082
 IR Inten    --     25.7166                12.2377                22.7860

                     28                     29                     30
                      A                      A                      A
 Frequencies --    935.1351               967.8774               991.6030
 Red. masses --      6.8765                 1.3966                 1.3069
 Frc consts  --      3.5430                 0.7709                 0.7571
 IR Inten    --     12.3079                 5.7687                 0.4538

                     31                     32                     33
                      A                      A                      A
 Frequencies --   1070.4388              1105.9876              1148.0418
 Red. masses --      3.5364                 2.2806                 2.6885
 Frc consts  --      2.3874                 1.6436                 2.0878
 IR Inten    --     13.3237                32.6671               163.1170

                     34                     35                     36
                      A                      A                      A
 Frequencies --   1152.8270              1154.0586              1196.3173
 Red. masses --      1.2737                 1.6643                 1.5352
 Frc consts  --      0.9974                 1.3060                 1.2945
 IR Inten    --      0.1345                25.2293               259.3085

                     37                     38                     39
                      A                      A                      A
 Frequencies --   1211.4282              1282.1602              1348.1327
 Red. masses --      1.9184                 1.5648                 2.1540
 Frc consts  --      1.6588                 1.5156                 2.3065
 IR Inten    --    101.3991                11.6825                91.1334

                     40                     41                     42
                      A                      A                      A
 Frequencies --   1372.9085              1387.2602              1429.8857
 Red. masses --      2.7414                 8.5307                 5.6550
 Frc consts  --      3.0445                 9.6728                 6.8122
 IR Inten    --    124.2132               627.3340               109.1150

                     43                     44                     45
                      A                      A                      A
 Frequencies --   1462.3756              1480.7032              1496.4056
 Red. masses --      1.9644                 2.1291                 1.9010
 Frc consts  --      2.4751                 2.7503                 2.5080
 IR Inten    --     11.2372                20.9961                 6.5907

                     46                     47                     48
                      A                      A                      A
 Frequencies --   1499.8287              1531.5559              1579.2324
 Red. masses --      1.0404                 1.1019                 4.6901
 Frc consts  --      1.3789                 1.5228                 6.8917
 IR Inten    --      6.9963                14.0296                97.8760

                     49                     50                     51
                      A                      A                      A
 Frequencies --   1614.6054              1651.4576              1667.4240
 Red. masses --      4.2171                 4.2736                 6.7864
 Frc consts  --      6.4774                 6.8672                11.1169
 IR Inten    --     39.5243               337.0826               216.6547

                     52                     53                     54
                      A                      A                      A
 Frequencies --   1769.2126              3022.5761              3073.4937
 Red. masses --      7.5382                 1.0381                 1.1047
 Frc consts  --     13.9021                 5.5878                 6.1482
 IR Inten    --    381.7585                69.9672                30.5999

                     55                     56                     57
                      A                      A                      A
 Frequencies --   3149.3197              3226.6063              3244.0206
 Red. masses --      1.0983                 1.0881                 1.0943
 Frc consts  --      6.4184                 6.6743                 6.7848
 IR Inten    --     13.1345                 4.2912                 2.4009

                     58                     59                     60
                      A                      A                      A
 Frequencies --   3263.1583              3512.4743              3770.5609
 Red. masses --      1.0910                 1.0794                 1.0645
 Frc consts  --      6.8448                 7.8465                 8.9164
 IR Inten    --      7.7391               198.8235               102.4653

 - Thermochemistry -
 -------------------
 Temperature   298.150 Kelvin.  Pressure   1.00000 Atm.
 Atom     1 has atomic number  8 and mass  15.99491

 Molecular mass:   196.04841 amu.
 Principal axes and moments of inertia in atomic units:
                           1         2         3
     Eigenvalues --  1701.292203735.925455425.83457
           X            0.99940  -0.03465  -0.00000
           Y            0.03465   0.99940   0.00001
           Z            0.00000  -0.00001   1.00000
 This molecule is an asymmetric top.
 Rotational symmetry number  1.
 Warning -- assumption of classical behavior for rotation
           may cause significant error
 Rotational temperatures (Kelvin)      0.05091     0.02318     0.01596
 Rotational constants (GHZ):           1.06081     0.48308     0.33262
 Zero-point vibrational energy     430359.3 (Joules/Mol)
                                  102.85835 (Kcal/Mol)
 Warning -- explicit consideration of  18 degrees of freedom as
           vibrations may cause significant error
 Vibrational temperatures:     86.99   107.02   118.73   188.56   230.28
          (Kelvin)            243.55   273.58   300.96   428.10   450.37
                              500.54   568.92   591.29   633.79   750.30
                              758.21   853.36   874.31   924.48   943.52
                              964.98  1021.91  1084.61  1116.54  1127.92
                             1177.49  1205.95  1345.45  1392.56  1426.69
                             1540.12  1591.27  1651.77  1658.66  1660.43
                             1721.23  1742.97  1844.74  1939.66  1975.31
                             1995.96  2057.28  2104.03  2130.40  2152.99
                             2157.92  2203.56  2272.16  2323.05  2376.08
                             2399.05  2545.50  4348.81  4422.07  4531.16
                             4642.36  4667.42  4694.95  5053.66  5424.99

 Zero-point correction=                           0.163915 (Hartree/Particle)
 Thermal correction to Energy=                    0.176221
 Thermal correction to Enthalpy=                  0.177166
 Thermal correction to Gibbs Free Energy=         0.124778
 Sum of electronic and zero-point Energies=           -719.851172
 Sum of electronic and thermal Energies=              -719.838866
 Sum of electronic and thermal Enthalpies=            -719.837922
 Sum of electronic and thermal Free Energies=         -719.890309

                     E (Thermal)             CV                S
                      KCal/Mol        Cal/Mol-Kelvin    Cal/Mol-Kelvin
 Total                  110.581             45.935            110.259
 Electronic               0.000              0.000              0.000
 Translational            0.889              2.981             41.725
 Rotational               0.889              2.981             31.912
 Vibrational            108.803             39.974             36.623
 Vibration     1          0.597              1.973              4.442
 Vibration     2          0.599              1.966              4.034
 Vibration     3          0.600              1.961              3.830
 Vibration     4          0.612              1.922              2.930
 Vibration     5          0.622              1.891              2.549
 Vibration     6          0.625              1.880              2.444
 Vibration     7          0.633              1.853              2.226
 Vibration     8          0.642              1.827              2.051
 Vibration     9          0.691              1.678              1.431
 Vibration    10          0.701              1.649              1.346
 Vibration    11          0.726              1.580              1.176
 Vibration    12          0.762              1.480              0.980
 Vibration    13          0.775              1.446              0.923
 Vibration    14          0.800              1.382              0.825
 Vibration    15          0.876              1.202              0.607
 Vibration    16          0.882              1.190              0.594
 Vibration    17          0.951              1.046              0.462
 Vibration    18          0.966              1.016              0.437

 Normal termination of Gaussian 09 at Fri Aug 20 15:43:01 2021.
