 Gaussian 09, Revision E.01,
 Gaussian 09:  ES64L-G09RevE.01 30-Nov-2015

 -------------------------
 #P OPT Freq B3LYP/6-31G**
 -------------------------

 ------
 IVEREH
 ------
 Symbolic Z-matrix:
 Charge =  0 Multiplicity = 1

 SCF Done:  E(RB3LYP) =  -683.935562868     A.U. after   18 cycles
 SCF Done:  E(RB3LYP) =  -684.027793899     A.U. after   14 cycles
 SCF Done:  E(RB3LYP) =  -684.073904937     A.U. after   15 cycles
 SCF Done:  E(RB3LYP) =  -684.071675528     A.U. after   15 cycles
 SCF Done:  E(RB3LYP) =  -684.075355346     A.U. after   12 cycles
 SCF Done:  E(RB3LYP) =  -684.072820357     A.U. after   15 cycles
 SCF Done:  E(RB3LYP) =  -684.075860498     A.U. after   12 cycles
 SCF Done:  E(RB3LYP) =  -684.076154135     A.U. after   13 cycles
 SCF Done:  E(RB3LYP) =  -684.076430845     A.U. after   12 cycles
 SCF Done:  E(RB3LYP) =  -684.076457637     A.U. after   12 cycles
 SCF Done:  E(RB3LYP) =  -684.076472916     A.U. after   11 cycles
 SCF Done:  E(RB3LYP) =  -684.076477406     A.U. after   12 cycles
 SCF Done:  E(RB3LYP) =  -684.076480894     A.U. after    9 cycles
 SCF Done:  E(RB3LYP) =  -684.076482881     A.U. after    9 cycles
 SCF Done:  E(RB3LYP) =  -684.076484375     A.U. after   10 cycles
 SCF Done:  E(RB3LYP) =  -684.076485236     A.U. after   10 cycles
 SCF Done:  E(RB3LYP) =  -684.076485414     A.U. after    9 cycles
 Optimization completed.
    -- Stationary point found.
 Normal termination of Gaussian 09 at Fri Aug 20 15:38:53 2021.

 ----------------------------------------------------------------------
 #P Geom=AllCheck Guess=TCheck SCRF=Check GenChk RB3LYP/6-31G(d,p) Freq
 ----------------------------------------------------------------------

 Structure from the checkpoint file:  "/public/home/users/caep010/.cache/gau_scr/Gau-107241.chk"
 ------
 IVEREH
 ------
 Charge =  0 Multiplicity = 1

                         Standard orientation:
 ---------------------------------------------------------------------
 Center     Atomic      Atomic             Coordinates (Angstroms)
 Number     Number       Type             X           Y           Z
 ---------------------------------------------------------------------
      1          8           0        1.470424    2.028177   -0.118682
      2          6           0        0.379354    1.396130   -0.074210
      3          6           0        0.331773   -0.071873   -0.137911
      4          6           0       -0.897818    2.066626    0.042033
      5          6           0       -2.072245    1.371042    0.090106
      6          6           0       -2.072367   -0.052301    0.025683
      7          7           0       -3.333760   -0.769615    0.079362
      8          8           0       -4.369710   -0.104909    0.180314
      9          8           0       -3.305707   -2.004168    0.021547
     10          6           0       -0.899241   -0.760343   -0.085909
     11          6           0        1.534599   -0.798759   -0.253733
     12          1           0        1.509003   -1.888188   -0.301837
     13          7           0        2.711285   -0.214509   -0.310655
     14          6           0        3.992849   -0.899294   -0.416875
     15          1           0        4.491539   -0.554807   -1.330511
     16          6           0        4.883916   -0.640408    0.799523
     17          1           0        2.620719    0.830066   -0.254734
     18          1           0       -0.880342    3.149982    0.089679
     19          1           0       -3.026567    1.876521    0.177849
     20          1           0       -0.937585   -1.843630   -0.132707
     21          1           0        5.846156   -1.144689    0.671196
     22          1           0        4.415660   -1.013068    1.714785
     23          1           0        3.797604   -1.970389   -0.536588
     24          1           0        5.076175    0.429343    0.924249
 ---------------------------------------------------------------------

 SCF Done:  E(RB3LYP) =  -684.076485414     A.U. after    1 cycles

 The electronic state is 1-A.
 Alpha  occ. eigenvalues --  -19.16285 -19.16143 -19.12391 -14.55520 -14.40828
 Alpha  occ. eigenvalues --  -10.28720 -10.26725 -10.26474 -10.23604 -10.22516
 Alpha  occ. eigenvalues --  -10.21422 -10.21326 -10.21314 -10.19326  -1.20437
 Alpha  occ. eigenvalues --   -1.03069  -1.02369  -0.98762  -0.87597  -0.82065
 Alpha  occ. eigenvalues --   -0.77996  -0.77196  -0.69950  -0.66520  -0.65753
 Alpha  occ. eigenvalues --   -0.62815  -0.59152  -0.54766  -0.53824  -0.51470
 Alpha  occ. eigenvalues --   -0.51187  -0.49633  -0.48388  -0.46911  -0.46391
 Alpha  occ. eigenvalues --   -0.45825  -0.44497  -0.43392  -0.41620  -0.41035
 Alpha  occ. eigenvalues --   -0.39478  -0.39073  -0.37479  -0.36084  -0.33833
 Alpha  occ. eigenvalues --   -0.29317  -0.29276  -0.27473  -0.27347  -0.25254
 Alpha  occ. eigenvalues --   -0.22081
 Alpha virt. eigenvalues --   -0.08542  -0.06348   0.01069   0.04364   0.06426
 Alpha virt. eigenvalues --    0.07602   0.10464   0.11462   0.12801   0.13750
 Alpha virt. eigenvalues --    0.14325   0.15158   0.16224   0.16651   0.18129

 Mulliken charges:
               1
     1  O   -0.611074
     2  C    0.411918
     3  C   -0.017470
     4  C   -0.134147
     5  C   -0.077549
     6  C    0.216974
     7  N    0.377218
     8  O   -0.411262
     9  O   -0.423435
    10  C   -0.124481
    11  C    0.162405
    12  H    0.133232
    13  N   -0.468298
    14  C   -0.062471
    15  H    0.138642
    16  C   -0.321849
    17  H    0.338281
    18  H    0.103919
    19  H    0.135078
    20  H    0.131112
    21  H    0.123412
    22  H    0.126927
    23  H    0.120476
    24  H    0.132441
 Sum of Mulliken charges =  -0.00000

 Dipole moment (field-independent basis, Debye):
    X=              7.7649    Y=             -1.6661    Z=             -0.3797  Tot=              7.9507
 Quadrupole moment (field-independent basis, Debye-Ang):
   XX=            -83.5575   YY=            -83.2320   ZZ=            -80.1602
   XY=            -16.4932   XZ=             -0.3447   YZ=              1.0046

  Exact polarizability: 227.907  -5.745 128.888  -7.297   3.321  55.254
 Approx polarizability: 363.543  -1.220 240.962 -18.732   7.193  83.154

                      1                      2                      3
                      A                      A                      A
 Frequencies --     38.8152                56.8789                82.3224
 Red. masses --      3.0373                 5.5065                 5.1297
 Frc consts  --      0.0027                 0.0105                 0.0205
 IR Inten    --      0.0522                 0.2861                 0.0677

                      4                      5                      6
                      A                      A                      A
 Frequencies --    108.9150               125.2041               164.6710
 Red. masses --      7.6338                 2.8654                 4.2388
 Frc consts  --      0.0534                 0.0265                 0.0677
 IR Inten    --      8.0800                 0.6004                 0.8790

                      7                      8                      9
                      A                      A                      A
 Frequencies --    214.0303               260.0797               271.4195
 Red. masses --      2.1503                 1.8470                 5.2109
 Frc consts  --      0.0580                 0.0736                 0.2262
 IR Inten    --      1.4158                 6.1393                 0.1246

                     10                     11                     12
                      A                      A                      A
 Frequencies --    318.2647               361.6186               369.4826
 Red. masses --      5.6138                 8.1815                 3.2658
 Frc consts  --      0.3350                 0.6304                 0.2627
 IR Inten    --      4.3870                 5.8312                 0.3979

                     13                     14                     15
                      A                      A                      A
 Frequencies --    390.4963               452.9618               476.2063
 Red. masses --      3.3660                 3.4435                 3.4855
 Frc consts  --      0.3024                 0.4163                 0.4657
 IR Inten    --     11.6595                 1.9221                 1.4405

                     16                     17                     18
                      A                      A                      A
 Frequencies --    496.8497               527.1611               556.5792
 Red. masses --      8.3258                 3.2425                 5.5386
 Frc consts  --      1.2110                 0.5309                 1.0109
 IR Inten    --      9.5577                 1.6661                 1.8149

                     19                     20                     21
                      A                      A                      A
 Frequencies --    637.2111               688.8769               735.2800
 Red. masses --      7.3892                 6.1324                 4.0305
 Frc consts  --      1.7677                 1.7146                 1.2839
 IR Inten    --      8.8032                18.6298                12.8228

                     22                     23                     24
                      A                      A                      A
 Frequencies --    763.4789               774.3556               810.7985
 Red. masses --      5.0929                 3.6075                 1.2532
 Frc consts  --      1.7491                 1.2745                 0.4854
 IR Inten    --     10.4464                15.6947                 2.0217

                     25                     26                     27
                      A                      A                      A
 Frequencies --    841.5704               857.1844               909.9014
 Red. masses --      8.6645                 1.8434                 1.9060
 Frc consts  --      3.6155                 0.7980                 0.9298
 IR Inten    --      8.8007                22.0201                 1.8921

                     28                     29                     30
                      A                      A                      A
 Frequencies --    921.7849               953.0800               959.1614
 Red. masses --      1.4833                 1.5060                 3.8670
 Frc consts  --      0.7426                 0.8060                 2.0961
 IR Inten    --     20.4971                 4.0307                11.8672

                     31                     32                     33
                      A                      A                      A
 Frequencies --   1006.6648              1043.9158              1049.2230
 Red. masses --      1.2792                 1.5502                 1.5860
 Frc consts  --      0.7638                 0.9954                 1.0287
 IR Inten    --      0.4131                45.0067                28.6722

                     34                     35                     36
                      A                      A                      A
 Frequencies --   1112.7324              1122.7319              1150.3779
 Red. masses --      2.0449                 1.8429                 1.5123
 Frc consts  --      1.4918                 1.3687                 1.1792
 IR Inten    --    111.9254                13.1025                27.5077

                     37                     38                     39
                      A                      A                      A
 Frequencies --   1170.9956              1215.3925              1263.3189
 Red. masses --      1.6672                 2.1155                 1.5807
 Frc consts  --      1.3469                 1.8411                 1.4863
 IR Inten    --     69.1131                15.8918               104.5798

                     40                     41                     42
                      A                      A                      A
 Frequencies --   1303.4441              1325.1002              1379.4880
 Red. masses --      1.2472                 1.5356                 5.0873
 Frc consts  --      1.2485                 1.5887                 5.7039
 IR Inten    --     23.1741                19.6993               780.0488

                     43                     44                     45
                      A                      A                      A
 Frequencies --   1390.8455              1394.2881              1404.5753
 Red. masses --      2.3471                 1.6587                 2.4864
 Frc consts  --      2.6752                 1.8998                 2.8901
 IR Inten    --     92.3801                29.5168                 4.7924

                     46                     47                     48
                      A                      A                      A
 Frequencies --   1430.1286              1443.8772              1491.5268
 Red. masses --      1.2859                 2.8560                 4.2294
 Frc consts  --      1.5495                 3.5081                 5.5436
 IR Inten    --      3.0216                41.2162                16.8998

                     49                     50                     51
                      A                      A                      A
 Frequencies --   1501.9915              1506.0919              1521.9263
 Red. masses --      1.0582                 1.0414                 1.0885
 Frc consts  --      1.4065                 1.3918                 1.4855
 IR Inten    --     15.3045                 8.9278                11.2772

                     52                     53                     54
                      A                      A                      A
 Frequencies --   1565.9956              1612.7854              1633.3940
 Red. masses --      6.6958                 5.8839                 7.1227
 Frc consts  --      9.6747                 9.0172                11.1964
 IR Inten    --     52.8950                10.7171               335.4520

                     55                     56                     57
                      A                      A                      A
 Frequencies --   1686.9991              1712.9424              2980.0347
 Red. masses --      5.9720                 3.6812                 1.0891
 Frc consts  --     10.0138                 6.3640                 5.6983
 IR Inten    --    274.5652               756.0189               200.2734

                     58                     59                     60
                      A                      A                      A
 Frequencies --   3049.3191              3056.6447              3094.5412
 Red. masses --      1.0606                 1.0353                 1.1046
 Frc consts  --      5.8103                 5.6990                 6.2323
 IR Inten    --     25.9859                17.6337                 4.5349

                     61                     62                     63
                      A                      A                      A
 Frequencies --   3134.1056              3139.2355              3154.0779
 Red. masses --      1.1029                 1.1046                 1.0908
 Frc consts  --      6.3827                 6.4134                 6.3934
 IR Inten    --     23.6959                22.9699                 2.0744

                     64                     65                     66
                      A                      A                      A
 Frequencies --   3214.8273              3216.2948              3237.2398
 Red. masses --      1.0899                 1.0907                 1.0941
 Frc consts  --      6.6367                 6.6473                 6.7554
 IR Inten    --      1.6100                 1.6485                 1.9785

 - Thermochemistry -
 -------------------
 Temperature   298.150 Kelvin.  Pressure   1.00000 Atm.
 Atom     1 has atomic number  8 and mass  15.99491

 Molecular mass:   194.06914 amu.
 Principal axes and moments of inertia in atomic units:
                           1         2         3
     Eigenvalues --  1117.307165561.532636537.69763
           X            0.99977  -0.02120   0.00432
           Y            0.02118   0.99977   0.00282
           Z           -0.00438  -0.00273   0.99999
 This molecule is an asymmetric top.
 Rotational symmetry number  1.
 Warning -- assumption of classical behavior for rotation
           may cause significant error
 Rotational temperatures (Kelvin)      0.07752     0.01557     0.01325
 Rotational constants (GHZ):           1.61526     0.32450     0.27605
 Zero-point vibrational energy     489522.1 (Joules/Mol)
                                  116.99860 (Kcal/Mol)
 Warning -- explicit consideration of  18 degrees of freedom as
           vibrations may cause significant error
 Vibrational temperatures:     55.85    81.84   118.44   156.70   180.14
          (Kelvin)            236.92   307.94   374.20   390.51   457.91
                              520.29   531.60   561.84   651.71   685.15
                              714.85   758.47   800.79   916.80   991.14
                             1057.90  1098.47  1114.12  1166.56  1210.83
                             1233.30  1309.14  1326.24  1371.27  1380.02
                             1448.36  1501.96  1509.60  1600.97  1615.36
                             1655.14  1684.80  1748.68  1817.63  1875.36
                             1906.52  1984.77  2001.11  2006.07  2020.87
                             2057.63  2077.41  2145.97  2161.03  2166.93
                             2189.71  2253.12  2320.44  2350.09  2427.21
                             2464.54  4287.60  4387.28  4397.82  4452.35
                             4509.27  4516.65  4538.01  4625.41  4627.53
                             4657.66

 Zero-point correction=                           0.186449 (Hartree/Particle)
 Thermal correction to Energy=                    0.198985
 Thermal correction to Enthalpy=                  0.199929
 Thermal correction to Gibbs Free Energy=         0.146433
 Sum of electronic and zero-point Energies=           -683.890036
 Sum of electronic and thermal Energies=              -683.877500
 Sum of electronic and thermal Enthalpies=            -683.876556
 Sum of electronic and thermal Free Energies=         -683.930052

                     E (Thermal)             CV                S
                      KCal/Mol        Cal/Mol-Kelvin    Cal/Mol-Kelvin
 Total                  124.865             46.751            112.592
 Electronic               0.000              0.000              0.000
 Translational            0.889              2.981             41.694
 Rotational               0.889              2.981             32.074
 Vibrational            123.088             40.789             38.823
 Vibration     1          0.594              1.981              5.319
 Vibration     2          0.596              1.975              4.563
 Vibration     3          0.600              1.961              3.835
 Vibration     4          0.606              1.942              3.288
 Vibration     5          0.610              1.928              3.018
 Vibration     6          0.623              1.886              2.495
 Vibration     7          0.644              1.820              2.009
 Vibration     8          0.668              1.746              1.661
 Vibration     9          0.675              1.726              1.587
 Vibration    10          0.705              1.639              1.319
 Vibration    11          0.736              1.551              1.115
 Vibration    12          0.742              1.535              1.082
 Vibration    13          0.758              1.490              0.998
 Vibration    14          0.812              1.354              0.787
 Vibration    15          0.833              1.303              0.720
 Vibration    16          0.852              1.257              0.666
 Vibration    17          0.882              1.190              0.594
 Vibration    18          0.912              1.125              0.531

 Normal termination of Gaussian 09 at Fri Aug 20 15:39:34 2021.
