 Gaussian 09, Revision E.01,
 Gaussian 09:  ES64L-G09RevE.01 30-Nov-2015

 -------------------------
 #P OPT Freq B3LYP/6-31G**
 -------------------------

 --------
 KAVFUI01
 --------
 Symbolic Z-matrix:
 Charge =  0 Multiplicity = 1

 SCF Done:  E(RB3LYP) =  -635.131798517     A.U. after   16 cycles
 SCF Done:  E(RB3LYP) =  -635.172907606     A.U. after   15 cycles
 SCF Done:  E(RB3LYP) =  -635.176225589     A.U. after   16 cycles
 SCF Done:  E(RB3LYP) =  -635.171213104     A.U. after   15 cycles
 SCF Done:  E(RB3LYP) =  -635.176292653     A.U. after   10 cycles
 SCF Done:  E(RB3LYP) =  -635.176307143     A.U. after   13 cycles
 SCF Done:  E(RB3LYP) =  -635.176291328     A.U. after   13 cycles
 SCF Done:  E(RB3LYP) =  -635.176356272     A.U. after   13 cycles
 SCF Done:  E(RB3LYP) =  -635.176368767     A.U. after   11 cycles
 SCF Done:  E(RB3LYP) =  -635.176369539     A.U. after    9 cycles
 SCF Done:  E(RB3LYP) =  -635.176369863     A.U. after    9 cycles
 Optimization completed.
    -- Stationary point found.
 Normal termination of Gaussian 09 at Fri Aug 20 15:34:47 2021.

 ----------------------------------------------------------------------
 #P Geom=AllCheck Guess=TCheck SCRF=Check GenChk RB3LYP/6-31G(d,p) Freq
 ----------------------------------------------------------------------

 Structure from the checkpoint file:  "/public/home/users/caep010/.cache/gau_scr/Gau-24922.chk"
 --------
 KAVFUI01
 --------
 Charge =  0 Multiplicity = 1

                         Standard orientation:
 ---------------------------------------------------------------------
 Center     Atomic      Atomic             Coordinates (Angstroms)
 Number     Number       Type             X           Y           Z
 ---------------------------------------------------------------------
      1          7           0       -2.468641    0.241699    0.000004
      2          8           0       -3.315576   -0.640886    0.000122
      3          8           0       -2.679551    1.457375   -0.000289
      4          6           0       -1.073220   -0.154031    0.000073
      5          7           0       -0.687740   -1.471821    0.000236
      6          6           0        0.615096   -1.445161   -0.000186
      7          7           0        1.068286   -0.131616   -0.000220
      8          1           0        1.294183   -2.283280   -0.000313
      9          7           0        2.440175    0.279977   -0.000037
     10          8           0        2.625309    1.479749    0.000208
     11          8           0        3.249958   -0.626053   -0.000087
     12          6           0       -0.018865    0.716665    0.000236
     13          1           0        0.062070    1.789299    0.000071
 ---------------------------------------------------------------------

 SCF Done:  E(RB3LYP) =  -635.176369863     A.U. after    2 cycles

 The electronic state is 1-A.
 Alpha  occ. eigenvalues --  -19.25177 -19.25110 -19.19657 -19.19301 -14.67141
 Alpha  occ. eigenvalues --  -14.58973 -14.49725 -14.38622 -10.31175 -10.30069
 Alpha  occ. eigenvalues --  -10.29268  -1.31383  -1.24056  -1.13856  -1.09627
 Alpha  occ. eigenvalues --   -1.06801  -0.96845  -0.84453  -0.79973  -0.73304
 Alpha  occ. eigenvalues --   -0.63873  -0.63594  -0.61704  -0.61189  -0.57276
 Alpha  occ. eigenvalues --   -0.55768  -0.55134  -0.52824  -0.50453  -0.49938
 Alpha  occ. eigenvalues --   -0.48728  -0.39506  -0.37622  -0.36428  -0.35609
 Alpha  occ. eigenvalues --   -0.33387  -0.32172  -0.32079  -0.30552  -0.30093
 Alpha virt. eigenvalues --   -0.13183  -0.09151  -0.02079   0.03139   0.03743
 Alpha virt. eigenvalues --    0.09497   0.11498   0.13112   0.16071   0.18398
 Alpha virt. eigenvalues --    0.21959   0.24214   0.27526   0.28776   0.32790

 Mulliken charges:
               1
     1  N    0.368827
     2  O   -0.363518
     3  O   -0.399099
     4  C    0.369963
     5  N   -0.439123
     6  C    0.327406
     7  N   -0.371453
     8  H    0.180738
     9  N    0.674323
    10  O   -0.351226
    11  O   -0.355719
    12  C    0.159773
    13  H    0.199108
 Sum of Mulliken charges =  -0.00000

 Dipole moment (field-independent basis, Debye):
    X=              3.4834    Y=             -0.1553    Z=             -0.0004  Tot=              3.4869
 Quadrupole moment (field-independent basis, Debye-Ang):
   XX=            -78.0295   YY=            -61.9401   ZZ=            -57.3408
   XY=             -3.0292   XZ=             -0.0012   YZ=              0.0016

  Exact polarizability: 105.981   1.277  79.354  -0.001   0.001  28.284
 Approx polarizability: 165.144  10.087 177.312  -0.005   0.003  44.324

                      1                      2                      3
                      A                      A                      A
 Frequencies --     59.8921                82.2457               131.2360
 Red. masses --     14.6767                13.2115                 6.7915
 Frc consts  --      0.0310                 0.0527                 0.0689
 IR Inten    --      0.1740                 1.3313                 6.7453

                      4                      5                      6
                      A                      A                      A
 Frequencies --    149.4614               249.0024               283.6648
 Red. masses --     13.4704                 8.7097                 8.7752
 Frc consts  --      0.1773                 0.3182                 0.4160
 IR Inten    --      3.6272                 0.0509                 2.6892

                      7                      8                      9
                      A                      A                      A
 Frequencies --    337.6608               495.3056               533.7162
 Red. masses --     14.8007                10.1392                12.3225
 Frc consts  --      0.9942                 1.4655                 2.0681
 IR Inten    --      4.3146                 1.0353                 0.4294

                     10                     11                     12
                      A                      A                      A
 Frequencies --    582.3769               608.8974               653.2059
 Red. masses --      3.5695                 5.9425                 5.5917
 Frc consts  --      0.7133                 1.2981                 1.4057
 IR Inten    --      4.7829                 3.9288                14.2198

                     13                     14                     15
                      A                      A                      A
 Frequencies --    749.0226               755.1320               803.2391
 Red. masses --      8.0324                 3.2245                 1.9639
 Frc consts  --      2.6551                 1.0833                 0.7466
 IR Inten    --      1.1521                30.6938                 0.0564

                     16                     17                     18
                      A                      A                      A
 Frequencies --    827.8023               830.0091               856.0258
 Red. masses --     12.8747                12.1585                 1.4448
 Frc consts  --      5.1980                 4.9351                 0.6238
 IR Inten    --     59.7394               114.6386                27.3831

                     19                     20                     21
                      A                      A                      A
 Frequencies --    979.7621              1019.7061              1062.5284
 Red. masses --      4.8213                 6.5961                 1.9453
 Frc consts  --      2.7268                 4.0410                 1.2940
 IR Inten    --      7.7465                 7.1526               253.6142

                     22                     23                     24
                      A                      A                      A
 Frequencies --   1214.3835              1269.4835              1339.6689
 Red. masses --      1.6056                 3.5789                 8.7692
 Frc consts  --      1.3951                 3.3982                 9.2727
 IR Inten    --     91.2795               177.0420               175.9541

                     25                     26                     27
                      A                      A                      A
 Frequencies --   1361.6995              1391.0379              1416.0586
 Red. masses --     10.0138                 5.5461                 9.0733
 Frc consts  --     10.9399                 6.3228                10.7196
 IR Inten    --    199.0670                15.0552               129.6435

                     28                     29                     30
                      A                      A                      A
 Frequencies --   1534.3692              1578.5166              1659.7408
 Red. masses --      5.9879                 7.6748                14.0702
 Frc consts  --      8.3058                11.2672                22.8365
 IR Inten    --     34.3906                16.7459               197.2686

                     31                     32                     33
                      A                      A                      A
 Frequencies --   1738.6510              3305.6743              3341.5572
 Red. masses --     14.3479                 1.0989                 1.1008
 Frc consts  --     25.5543                 7.0749                 7.2422
 IR Inten    --    262.6056                12.3710                31.6773

 - Thermochemistry -
 -------------------
 Temperature   298.150 Kelvin.  Pressure   1.00000 Atm.
 Atom     1 has atomic number  7 and mass  14.00307

 Molecular mass:   158.00760 amu.
 Principal axes and moments of inertia in atomic units:
                           1         2         3
     Eigenvalues --   551.027542789.859753340.88725
           X            0.99999  -0.00451  -0.00000
           Y            0.00451   0.99999   0.00001
           Z            0.00000  -0.00001   1.00000
 This molecule is an asymmetric top.
 Rotational symmetry number  1.
 Warning -- assumption of classical behavior for rotation
           may cause significant error
 Rotational temperatures (Kelvin)      0.15719     0.03105     0.02593
 Rotational constants (GHZ):           3.27523     0.64689     0.54020
 Zero-point vibrational energy     198584.5 (Joules/Mol)
                                   47.46283 (Kcal/Mol)
 Warning -- explicit consideration of  11 degrees of freedom as
           vibrations may cause significant error
 Vibrational temperatures:     86.17   118.33   188.82   215.04   358.26
          (Kelvin)            408.13   485.82   712.63   767.90   837.91
                              876.07   939.82  1077.68  1086.47  1155.68
                             1191.02  1194.20  1231.63  1409.66  1467.13
                             1528.74  1747.22  1826.50  1927.48  1959.18
                             2001.39  2037.39  2207.61  2271.13  2387.99
                             2501.53  4756.12  4807.75

 Zero-point correction=                           0.075637 (Hartree/Particle)
 Thermal correction to Energy=                    0.084209
 Thermal correction to Enthalpy=                  0.085153
 Thermal correction to Gibbs Free Energy=         0.040638
 Sum of electronic and zero-point Energies=           -635.100733
 Sum of electronic and thermal Energies=              -635.092161
 Sum of electronic and thermal Enthalpies=            -635.091217
 Sum of electronic and thermal Free Energies=         -635.135731

                     E (Thermal)             CV                S
                      KCal/Mol        Cal/Mol-Kelvin    Cal/Mol-Kelvin
 Total                   52.842             30.199             93.689
 Electronic               0.000              0.000              0.000
 Translational            0.889              2.981             41.082
 Rotational               0.889              2.981             30.019
 Vibrational             51.064             24.237             22.588
 Vibration     1          0.597              1.973              4.461
 Vibration     2          0.600              1.961              3.837
 Vibration     3          0.612              1.922              2.928
 Vibration     4          0.618              1.903              2.679
 Vibration     5          0.662              1.764              1.738
 Vibration     6          0.682              1.704              1.511
 Vibration     7          0.718              1.600              1.223
 Vibration     8          0.851              1.260              0.670
 Vibration     9          0.889              1.175              0.579
 Vibration    10          0.939              1.069              0.481
 Vibration    11          0.968              1.013              0.435

 Optimization completed.
    -- Stationary point found.
 Normal termination of Gaussian 09 at Fri Aug 20 15:35:04 2021.
