 Gaussian 09, Revision E.01,
 Gaussian 09:  ES64L-G09RevE.01 30-Nov-2015

 -------------------------
 #P OPT Freq B3LYP/6-31G**
 -------------------------

 ------
 ARIFUD
 ------
 Symbolic Z-matrix:
 Charge =  0 Multiplicity = 1

 SCF Done:  E(RB3LYP) =  -663.059552292     A.U. after   16 cycles
 SCF Done:  E(RB3LYP) =  -663.153528411     A.U. after   13 cycles
 SCF Done:  E(RB3LYP) =  -663.204336418     A.U. after   14 cycles
 SCF Done:  E(RB3LYP) =  -663.205760267     A.U. after   13 cycles
 SCF Done:  E(RB3LYP) =  -663.203965021     A.U. after   15 cycles
 SCF Done:  E(RB3LYP) =  -663.206104207     A.U. after   11 cycles
 SCF Done:  E(RB3LYP) =  -663.205799745     A.U. after   14 cycles
 SCF Done:  E(RB3LYP) =  -663.206318190     A.U. after    9 cycles
 SCF Done:  E(RB3LYP) =  -663.206407015     A.U. after   14 cycles
 SCF Done:  E(RB3LYP) =  -663.206627958     A.U. after   12 cycles
 SCF Done:  E(RB3LYP) =  -663.206656616     A.U. after   11 cycles
 SCF Done:  E(RB3LYP) =  -663.206670083     A.U. after   10 cycles
 SCF Done:  E(RB3LYP) =  -663.206673516     A.U. after   10 cycles
 SCF Done:  E(RB3LYP) =  -663.206674634     A.U. after   10 cycles
 SCF Done:  E(RB3LYP) =  -663.206675036     A.U. after    9 cycles
 SCF Done:  E(RB3LYP) =  -663.206675170     A.U. after    8 cycles
 Optimization completed.
    -- Stationary point found.
 Normal termination of Gaussian 09 at Fri Aug 20 15:41:58 2021.

 ----------------------------------------------------------------------
 #P Geom=AllCheck Guess=TCheck SCRF=Check GenChk RB3LYP/6-31G(d,p) Freq
 ----------------------------------------------------------------------

 Structure from the checkpoint file:  "/public/home/users/caep010/.cache/gau_scr/Gau-93991.chk"
 ------
 ARIFUD
 ------
 Charge =  0 Multiplicity = 1

                         Standard orientation:
 ---------------------------------------------------------------------
 Center     Atomic      Atomic             Coordinates (Angstroms)
 Number     Number       Type             X           Y           Z
 ---------------------------------------------------------------------
      1          7           0       -0.051386    0.366645    0.445810
      2          6           0       -1.349886    0.332339   -0.056857
      3          7           0       -2.240413   -0.768568    0.015629
      4          8           0       -1.867041   -1.807955    0.583523
      5          8           0       -3.353805   -0.616916   -0.495449
      6          6           0        0.726528   -0.714322    1.075197
      7          1           0        1.576336   -0.239686    1.565970
      8          6           0        1.218021   -1.779830    0.085690
      9          6           0        2.143039   -1.262438   -1.006347
     10          8           0        3.299232   -0.695054   -0.386625
     11          1           0        2.421469   -2.099321   -1.662804
     12          1           0        3.905085   -0.410053   -1.082471
     13          1           0        1.622304   -0.516768   -1.626514
     14          6           0        0.395213    1.634716    0.193470
     15          7           0       -0.522424    2.380848   -0.424740
     16          6           0        1.743428    2.140675    0.588323
     17          1           0        1.823578    2.254155    1.676227
     18          1           0        1.876869    3.123351    0.134719
     19          6           0       -1.606151    1.583289   -0.582291
     20          1           0       -2.521663    1.914040   -1.049561
     21          1           0        2.542641    1.468375    0.262924
     22          1           0        1.751076   -2.539733    0.668827
     23          1           0        0.354999   -2.271831   -0.371353
     24          1           0        0.098613   -1.182181    1.832437
 ---------------------------------------------------------------------

 SCF Done:  E(RB3LYP) =  -663.206675170     A.U. after    1 cycles

 The electronic state is 1-A.
 Alpha  occ. eigenvalues --  -19.17510 -19.17359 -19.16795 -14.57287 -14.41913
 Alpha  occ. eigenvalues --  -14.33174 -10.27188 -10.26904 -10.25053 -10.24553
 Alpha  occ. eigenvalues --  -10.23077 -10.20284 -10.20183  -1.21875  -1.04611
 Alpha  occ. eigenvalues --   -1.04042  -1.03655  -0.90901  -0.83019  -0.79416
 Alpha  occ. eigenvalues --   -0.75805  -0.71334  -0.67372  -0.62541  -0.60596
 Alpha  occ. eigenvalues --   -0.56580  -0.55190  -0.53446  -0.53254  -0.50491
 Alpha  occ. eigenvalues --   -0.49919  -0.49665  -0.45993  -0.45581  -0.43808
 Alpha  occ. eigenvalues --   -0.42484  -0.41912  -0.40532  -0.39957  -0.38326
 Alpha  occ. eigenvalues --   -0.37362  -0.34950  -0.31006  -0.30374  -0.29401
 Alpha  occ. eigenvalues --   -0.29076  -0.28979  -0.27993  -0.24986
 Alpha virt. eigenvalues --   -0.08175   0.01992   0.05074   0.06354   0.09915
 Alpha virt. eigenvalues --    0.10444   0.12086   0.12383   0.13823   0.14528
 Alpha virt. eigenvalues --    0.15649   0.16216   0.17264   0.17482   0.18022

 Mulliken charges:
               1
     1  N   -0.490211
     2  C    0.468303
     3  N    0.334795
     4  O   -0.431233
     5  O   -0.405109
     6  C   -0.062201
     7  H    0.137584
     8  C   -0.197685
     9  C    0.037847
    10  O   -0.533763
    11  H    0.098950
    12  H    0.314763
    13  H    0.097813
    14  C    0.462647
    15  N   -0.479828
    16  C   -0.400207
    17  H    0.135298
    18  H    0.147837
    19  C    0.075981
    20  H    0.133269
    21  H    0.149331
    22  H    0.121481
    23  H    0.133039
    24  H    0.151299
 Sum of Mulliken charges =  -0.00000

 Dipole moment (field-independent basis, Debye):
    X=              4.9740    Y=              0.1482    Z=             -0.2759  Tot=              4.9839
 Quadrupole moment (field-independent basis, Debye-Ang):
   XX=            -79.2315   YY=            -82.0362   ZZ=            -71.1670
   XY=             -3.9182   XZ=             -4.6124   YZ=              3.3314

  Exact polarizability: 123.759  10.455 116.567  11.934  -8.178  72.953
 Approx polarizability: 189.799  19.541 199.429  29.309 -27.701 118.395

                      1                      2                      3
                      A                      A                      A
 Frequencies --     39.5456                78.4520                87.9806
 Red. masses --      5.5298                 5.1029                 5.7047
 Frc consts  --      0.0051                 0.0185                 0.0260
 IR Inten    --      0.7449                 1.0472                 0.0272

                      4                      5                      6
                      A                      A                      A
 Frequencies --    133.6304               139.0090               158.0831
 Red. masses --      4.5980                 3.2916                 5.1866
 Frc consts  --      0.0484                 0.0375                 0.0764
 IR Inten    --      4.6929                 7.1503                 1.5464

                      7                      8                      9
                      A                      A                      A
 Frequencies --    193.7931               223.5081               254.7903
 Red. masses --      1.0851                 4.8929                 3.5256
 Frc consts  --      0.0240                 0.1440                 0.1348
 IR Inten    --      2.3314                 5.3943                 4.9375

                     10                     11                     12
                      A                      A                      A
 Frequencies --    296.6095               327.2299               342.0855
 Red. masses --      3.3866                 1.2055                 2.3196
 Frc consts  --      0.1755                 0.0761                 0.1599
 IR Inten    --     25.9476                99.2115                 3.4735

                     13                     14                     15
                      A                      A                      A
 Frequencies --    375.9400               401.6889               440.6655
 Red. masses --      2.9714                 4.7228                 3.0103
 Frc consts  --      0.2474                 0.4490                 0.3444
 IR Inten    --      5.1676                 9.3334                 3.5634

                     16                     17                     18
                      A                      A                      A
 Frequencies --    523.1214               562.0495               616.3014
 Red. masses --      2.9142                 3.9000                 4.5423
 Frc consts  --      0.4699                 0.7259                 1.0165
 IR Inten    --      6.3624                 4.4732                 0.5608

                     19                     20                     21
                      A                      A                      A
 Frequencies --    651.7815               695.2250               749.5052
 Red. masses --      3.7442                 4.6498                 4.2172
 Frc consts  --      0.9372                 1.3241                 1.3958
 IR Inten    --      2.7745                 6.7901                 2.5503

                     22                     23                     24
                      A                      A                      A
 Frequencies --    750.3645               809.4031               834.3197
 Red. masses --      9.1954                 1.8516                 9.3135
 Frc consts  --      3.0505                 0.7147                 3.8197
 IR Inten    --     10.9506                 4.9473                26.0569

                     25                     26                     27
                      A                      A                      A
 Frequencies --    869.4859               893.3656               946.9367
 Red. masses --      2.5182                 1.3991                 2.4885
 Frc consts  --      1.1217                 0.6579                 1.3147
 IR Inten    --      3.8091                 6.8876                14.2420

                     28                     29                     30
                      A                      A                      A
 Frequencies --    996.6591              1027.3116              1055.4081
 Red. masses --      2.5258                 1.6660                 2.0049
 Frc consts  --      1.4782                 1.0359                 1.3158
 IR Inten    --     17.7484                 2.2723                32.3669

                     31                     32                     33
                      A                      A                      A
 Frequencies --   1075.2045              1096.6400              1114.9038
 Red. masses --      1.4992                 2.0218                 2.8628
 Frc consts  --      1.0212                 1.4326                 2.0966
 IR Inten    --      5.9429                 1.4176                28.7125

                     34                     35                     36
                      A                      A                      A
 Frequencies --   1181.7923              1211.2985              1222.6934
 Red. masses --      1.9668                 1.4323                 2.7180
 Frc consts  --      1.6184                 1.2382                 2.3940
 IR Inten    --     27.1848                33.0919                61.5960

                     37                     38                     39
                      A                      A                      A
 Frequencies --   1252.0253              1281.4080              1306.3607
 Red. masses --      1.1732                 1.4991                 4.2363
 Frc consts  --      1.0835                 1.4503                 4.2595
 IR Inten    --     19.1010                22.9536               169.2905

                     40                     41                     42
                      A                      A                      A
 Frequencies --   1330.4248              1378.2880              1393.0747
 Red. masses --      1.2752                 2.1402                 1.3524
 Frc consts  --      1.3299                 2.3954                 1.5464
 IR Inten    --      3.9700                24.9571                17.4330

                     43                     44                     45
                      A                      A                      A
 Frequencies --   1410.6261              1413.1587              1433.4635
 Red. masses --      1.8455                 2.0814                 1.8956
 Frc consts  --      2.1637                 2.4490                 2.2949
 IR Inten    --     31.0509               138.9982                61.4856

                     46                     47                     48
                      A                      A                      A
 Frequencies --   1465.0477              1467.4134              1490.3692
 Red. masses --      1.5560                 2.2934                 1.1255
 Frc consts  --      1.9678                 2.9096                 1.4730
 IR Inten    --     34.6856               138.5087                 7.1761

                     49                     50                     51
                      A                      A                      A
 Frequencies --   1495.2442              1504.2205              1510.9237
 Red. masses --      1.1222                 1.2168                 3.1360
 Frc consts  --      1.4782                 1.6221                 4.2181
 IR Inten    --     30.2619                 9.1596                63.7184

                     52                     53                     54
                      A                      A                      A
 Frequencies --   1522.9834              1537.0161              1560.1241
 Red. masses --      1.7424                 1.0920                 3.7933
 Frc consts  --      2.3812                 1.5200                 5.4399
 IR Inten    --    100.5395                 3.7261                22.1843

                     55                     56                     57
                      A                      A                      A
 Frequencies --   1607.0610              2998.8206              3032.8546
 Red. masses --     10.5879                 1.0580                 1.1037
 Frc consts  --     16.1111                 5.6056                 5.9813
 IR Inten    --    202.3737                44.3379                45.9296

                     58                     59                     60
                      A                      A                      A
 Frequencies --   3045.2867              3067.5782              3110.1324
 Red. masses --      1.0420                 1.0671                 1.0962
 Frc consts  --      5.6934                 5.9161                 6.2476
 IR Inten    --     12.3805                30.2871                 4.8474

                     61                     62                     63
                      A                      A                      A
 Frequencies --   3115.8085              3127.3098              3165.3622
 Red. masses --      1.0734                 1.0852                 1.1013
 Frc consts  --      6.1399                 6.2531                 6.5012
 IR Inten    --      0.6367                18.6852                 2.5770

                     64                     65                     66
                      A                      A                      A
 Frequencies --   3174.2379              3283.2323              3826.7422
 Red. masses --      1.1077                 1.0979                 1.0666
 Frc consts  --      6.5760                 6.9732                 9.2030
 IR Inten    --      1.9413                 0.4247                26.8554

 - Thermochemistry -
 -------------------
 Temperature   298.150 Kelvin.  Pressure   1.00000 Atm.
 Atom     1 has atomic number  7 and mass  14.00307

 Molecular mass:   185.08004 amu.
 Principal axes and moments of inertia in atomic units:
                           1         2         3
     Eigenvalues --  1589.719662755.334063852.55059
           X            0.99991  -0.01341  -0.00096
           Y            0.01343   0.99983   0.01278
           Z            0.00078  -0.01279   0.99992
 This molecule is an asymmetric top.
 Rotational symmetry number  1.
 Warning -- assumption of classical behavior for rotation
           may cause significant error
 Rotational temperatures (Kelvin)      0.05448     0.03143     0.02248
 Rotational constants (GHZ):           1.13526     0.65500     0.46845
 Zero-point vibrational energy     506519.1 (Joules/Mol)
                                  121.06097 (Kcal/Mol)
 Warning -- explicit consideration of  18 degrees of freedom as
           vibrations may cause significant error
 Vibrational temperatures:     56.90   112.87   126.58   192.26   200.00
          (Kelvin)            227.45   278.82   321.58   366.59   426.75
                              470.81   492.18   540.89   577.94   634.02
                              752.65   808.66   886.72   937.77  1000.27
                             1078.37  1079.61  1164.55  1200.40  1250.99
                             1285.35  1362.43  1433.97  1478.07  1518.49
                             1546.98  1577.82  1604.10  1700.33  1742.79
                             1759.18  1801.38  1843.66  1879.56  1914.18
                             1983.05  2004.32  2029.57  2033.22  2062.43
                             2107.87  2111.28  2144.31  2151.32  2164.24
                             2173.88  2191.23  2211.42  2244.67  2312.20
                             4314.63  4363.60  4381.48  4413.56  4474.78
                             4482.95  4499.50  4554.24  4567.01  4723.83
                             5505.82

 Zero-point correction=                           0.192923 (Hartree/Particle)
 Thermal correction to Energy=                    0.205420
 Thermal correction to Enthalpy=                  0.206364
 Thermal correction to Gibbs Free Energy=         0.153659
 Sum of electronic and zero-point Energies=           -663.013752
 Sum of electronic and thermal Energies=              -663.001255
 Sum of electronic and thermal Enthalpies=            -663.000311
 Sum of electronic and thermal Free Energies=         -663.053016

                     E (Thermal)             CV                S
                      KCal/Mol        Cal/Mol-Kelvin    Cal/Mol-Kelvin
 Total                  128.903             45.883            110.927
 Electronic               0.000              0.000              0.000
 Translational            0.889              2.981             41.553
 Rotational               0.889              2.981             31.201
 Vibrational            127.125             39.921             38.172
 Vibration     1          0.594              1.981              5.282
 Vibration     2          0.600              1.964              3.929
 Vibration     3          0.601              1.958              3.704
 Vibration     4          0.613              1.920              2.893
 Vibration     5          0.615              1.914              2.817
 Vibration     6          0.621              1.894              2.573
 Vibration     7          0.635              1.848              2.191
 Vibration     8          0.649              1.805              1.930
 Vibration     9          0.665              1.755              1.697
 Vibration    10          0.690              1.680              1.436
 Vibration    11          0.711              1.621              1.274
 Vibration    12          0.721              1.591              1.202
 Vibration    13          0.747              1.521              1.055
 Vibration    14          0.767              1.466              0.956
 Vibration    15          0.801              1.381              0.825
 Vibration    16          0.878              1.199              0.603
 Vibration    17          0.918              1.113              0.520
 Vibration    18          0.976              0.997              0.422

 Normal termination of Gaussian 09 at Fri Aug 20 15:42:44 2021.
