 Gaussian 09, Revision E.01,
 Gaussian 09:  ES64L-G09RevE.01 30-Nov-2015

 -------------------------
 #P OPT Freq B3LYP/6-31G**
 -------------------------

 ------
 GADFID
 ------
 Symbolic Z-matrix:
 Charge =  0 Multiplicity = 1

 SCF Done:  E(RB3LYP) =  -681.239239635     A.U. after   16 cycles
 SCF Done:  E(RB3LYP) =  -681.352878274     A.U. after   14 cycles
 SCF Done:  E(RB3LYP) =  -681.429885651     A.U. after   14 cycles
 SCF Done:  E(RB3LYP) =  -681.430848369     A.U. after   13 cycles
 SCF Done:  E(RB3LYP) =  -681.429573131     A.U. after   14 cycles
 SCF Done:  E(RB3LYP) =  -681.431073052     A.U. after   10 cycles
 SCF Done:  E(RB3LYP) =  -681.431233713     A.U. after   13 cycles
 SCF Done:  E(RB3LYP) =  -681.431319327     A.U. after   12 cycles
 SCF Done:  E(RB3LYP) =  -681.431403233     A.U. after   12 cycles
 SCF Done:  E(RB3LYP) =  -681.431450997     A.U. after   12 cycles
 SCF Done:  E(RB3LYP) =  -681.431568262     A.U. after   12 cycles
 SCF Done:  E(RB3LYP) =  -681.431588576     A.U. after   12 cycles
 SCF Done:  E(RB3LYP) =  -681.431591620     A.U. after   10 cycles
 SCF Done:  E(RB3LYP) =  -681.431592623     A.U. after    9 cycles
 SCF Done:  E(RB3LYP) =  -681.431593405     A.U. after    8 cycles
 SCF Done:  E(RB3LYP) =  -681.431593816     A.U. after    8 cycles
 SCF Done:  E(RB3LYP) =  -681.431593999     A.U. after    8 cycles
 SCF Done:  E(RB3LYP) =  -681.431594090     A.U. after    8 cycles
 SCF Done:  E(RB3LYP) =  -681.431594129     A.U. after    7 cycles
 Optimization completed.
    -- Stationary point found.
 Normal termination of Gaussian 09 at Fri Aug 20 15:57:28 2021.

 ----------------------------------------------------------------------
 #P Geom=AllCheck Guess=TCheck SCRF=Check GenChk RB3LYP/6-31G(d,p) Freq
 ----------------------------------------------------------------------

 Structure from the checkpoint file:  "/public/home/users/caep010/.cache/gau_scr/Gau-75213.chk"
 ------
 GADFID
 ------
 Charge =  0 Multiplicity = 1

                         Standard orientation:
 ---------------------------------------------------------------------
 Center     Atomic      Atomic             Coordinates (Angstroms)
 Number     Number       Type             X           Y           Z
 ---------------------------------------------------------------------
      1          7           0       -2.409870   -0.942075   -0.002995
      2          6           0       -3.869120   -0.922417    0.019942
      3          1           0       -4.261879   -0.394522   -0.849164
      4          1           0       -4.208949   -1.960135    0.008791
      5          6           0       -1.644238   -2.058040   -0.036272
      6          1           0       -4.234178   -0.422466    0.917136
      7          7           0       -0.347932   -1.822503   -0.054845
      8          6           0       -0.210752   -0.451081   -0.031119
      9          6           0        1.066259    0.203314   -0.032697
     10          6           0       -1.497247    0.117604    0.000843
     11          7           0       -1.887289    1.463979    0.030780
     12          8           0       -0.995848    2.330247    0.032450
     13          8           0       -3.105124    1.730690    0.053896
     14          6           0        2.218121   -0.526460   -0.052146
     15          7           0        3.487797   -0.039458   -0.117060
     16          6           0        4.615155   -0.902084    0.195063
     17          1           0        4.334387   -1.944586    0.031280
     18          1           0        4.946021   -0.795228    1.238951
     19          1           0        5.462786   -0.666899   -0.457294
     20          6           0        3.721733    1.394323   -0.094499
     21          1           0        3.071405    1.890432   -0.820289
     22          1           0        4.760295    1.594070   -0.367596
     23          1           0        3.527985    1.831623    0.895794
     24          1           0       -2.093946   -3.042914   -0.046800
     25          1           0        2.145411   -1.610448   -0.036624
     26          1           0        1.060024    1.283022   -0.010803
 ---------------------------------------------------------------------

 SCF Done:  E(RB3LYP) =  -681.431594129     A.U. after    1 cycles

 The electronic state is 1-A.
 Alpha  occ. eigenvalues --  -19.14938 -19.14860 -14.54780 -14.40779 -14.37551
 Alpha  occ. eigenvalues --  -14.32060 -10.25758 -10.25262 -10.23674 -10.23189
 Alpha  occ. eigenvalues --  -10.23074 -10.22777 -10.22532 -10.16976  -1.19169
 Alpha  occ. eigenvalues --   -1.03139  -1.01476  -0.96195  -0.89956  -0.81318
 Alpha  occ. eigenvalues --   -0.77582  -0.73707  -0.72521  -0.70373  -0.66353
 Alpha  occ. eigenvalues --   -0.60679  -0.56717  -0.55866  -0.53094  -0.51378
 Alpha  occ. eigenvalues --   -0.50748  -0.49809  -0.48234  -0.47660  -0.47435
 Alpha  occ. eigenvalues --   -0.46756  -0.44442  -0.42150  -0.41660  -0.41157
 Alpha  occ. eigenvalues --   -0.40581  -0.40243  -0.39666  -0.37074  -0.32911
 Alpha  occ. eigenvalues --   -0.29317  -0.28504  -0.28092  -0.27530  -0.26150
 Alpha  occ. eigenvalues --   -0.25766  -0.18508
 Alpha virt. eigenvalues --   -0.06473   0.01605   0.03716   0.08098   0.09759
 Alpha virt. eigenvalues --    0.11321   0.12266   0.12323   0.12597   0.13169
 Alpha virt. eigenvalues --    0.13814   0.14871   0.15515   0.16092   0.16927

 Mulliken charges:
               1
     1  N   -0.467374
     2  C   -0.159664
     3  H    0.154837
     4  H    0.111483
     5  C    0.289501
     6  H    0.154819
     7  N   -0.538614
     8  C    0.265902
     9  C   -0.187496
    10  C    0.450693
    11  N    0.315597
    12  O   -0.437670
    13  O   -0.456427
    14  C    0.154601
    15  N   -0.414671
    16  C   -0.172937
    17  H    0.127770
    18  H    0.119566
    19  H    0.119598
    20  C   -0.172734
    21  H    0.140899
    22  H    0.113353
    23  H    0.125269
    24  H    0.120522
    25  H    0.127350
    26  H    0.115827
 Sum of Mulliken charges =  -0.00000

 Dipole moment (field-independent basis, Debye):
    X=              2.7226    Y=             -3.6583    Z=              0.1687  Tot=              4.5634
 Quadrupole moment (field-independent basis, Debye-Ang):
   XX=            -56.9036   YY=            -86.7913   ZZ=            -82.2520
   XY=             14.0768   XZ=              0.9310   YZ=             -0.6783

  Exact polarizability: 246.498  -7.596 129.923   0.734   0.473  61.150
 Approx polarizability: 390.704 -39.842 224.035  -3.108   2.092  92.344

                      1                      2                      3
                      A                      A                      A
 Frequencies --     44.5608                61.5539                75.1464
 Red. masses --      3.6370                 3.7335                 5.1056
 Frc consts  --      0.0043                 0.0083                 0.0170
 IR Inten    --      0.5858                 3.8709                 5.0057

                      4                      5                      6
                      A                      A                      A
 Frequencies --     80.8836               116.0298               142.6108
 Red. masses --      4.2272                 2.0634                 1.4931
 Frc consts  --      0.0163                 0.0164                 0.0179
 IR Inten    --      2.1903                10.1313                 3.7477

                      7                      8                      9
                      A                      A                      A
 Frequencies --    166.3459               193.0195               204.5736
 Red. masses --      1.6185                 1.2839                 1.9541
 Frc consts  --      0.0264                 0.0282                 0.0482
 IR Inten    --      0.3806                 0.1978                 3.4604

                     10                     11                     12
                      A                      A                      A
 Frequencies --    216.2642               232.5906               263.6470
 Red. masses --      5.5021                 3.2462                 2.6480
 Frc consts  --      0.1516                 0.1035                 0.1084
 IR Inten    --      1.7876                 1.7542                 4.2940

                     13                     14                     15
                      A                      A                      A
 Frequencies --    302.0752               344.4271               367.2636
 Red. masses --      3.9766                 2.2170                 5.0596
 Frc consts  --      0.2138                 0.1550                 0.4021
 IR Inten    --      5.2293                 2.5120                 3.1149

                     16                     17                     18
                      A                      A                      A
 Frequencies --    376.8249               443.5462               462.8079
 Red. masses --      5.2504                 7.0403                 2.6890
 Frc consts  --      0.4393                 0.8161                 0.3393
 IR Inten    --      6.6013                 0.0195                 2.5586

                     19                     20                     21
                      A                      A                      A
 Frequencies --    537.4317               595.1681               603.6065
 Red. masses --      4.4594                 4.2694                 3.9165
 Frc consts  --      0.7589                 0.8910                 0.8407
 IR Inten    --      4.6387                 3.3497                12.9443

                     22                     23                     24
                      A                      A                      A
 Frequencies --    723.3452               730.2868               750.9436
 Red. masses --      8.4769                 6.6731                 9.9244
 Frc consts  --      2.6132                 2.0968                 3.2974
 IR Inten    --      0.9494                 0.8490                10.8259

                     25                     26                     27
                      A                      A                      A
 Frequencies --    806.1018               843.6826               849.6153
 Red. masses --      7.4919                 4.6287                 2.0005
 Frc consts  --      2.8683                 1.9412                 0.8508
 IR Inten    --      2.4506                14.1675                21.6828

                     28                     29                     30
                      A                      A                      A
 Frequencies --    859.1740               901.6016               997.6525
 Red. masses --      1.4109                 3.7362                 1.1790
 Frc consts  --      0.6136                 1.7894                 0.6914
 IR Inten    --     10.2071                17.4831                31.9910

                     31                     32                     33
                      A                      A                      A
 Frequencies --   1053.9960              1086.0796              1089.9642
 Red. masses --      4.0462                 1.6845                 1.5046
 Frc consts  --      2.6484                 1.1707                 1.0532
 IR Inten    --     31.5761                 8.7663                10.3318

                     34                     35                     36
                      A                      A                      A
 Frequencies --   1126.1375              1133.1834              1153.0490
 Red. masses --      1.2971                 1.6112                 1.2939
 Frc consts  --      0.9692                 1.2190                 1.0135
 IR Inten    --     53.4870               182.2870                 0.0427

                     37                     38                     39
                      A                      A                      A
 Frequencies --   1163.4896              1170.6990              1250.1822
 Red. masses --      1.3732                 3.7857                 2.1911
 Frc consts  --      1.0952                 3.0569                 2.0177
 IR Inten    --     75.2856                21.9503                10.1538

                     40                     41                     42
                      A                      A                      A
 Frequencies --   1271.5618              1312.6469              1347.1455
 Red. masses --      1.5392                 1.6688                 3.9063
 Frc consts  --      1.4663                 1.6942                 4.1768
 IR Inten    --     25.4847               310.3746               125.8922

                     43                     44                     45
                      A                      A                      A
 Frequencies --   1357.4463              1381.1764              1405.7192
 Red. masses --      6.0449                 2.1964                 4.0271
 Frc consts  --      6.5628                 2.4686                 4.6886
 IR Inten    --    191.8233                97.3891               509.9549

                     46                     47                     48
                      A                      A                      A
 Frequencies --   1431.3232              1437.7965              1461.1509
 Red. masses --      4.8347                 4.4433                 1.1642
 Frc consts  --      5.8357                 5.4119                 1.4644
 IR Inten    --     17.3539               281.8472                 7.7823

                     49                     50                     51
                      A                      A                      A
 Frequencies --   1471.1173              1484.3934              1485.5806
 Red. masses --      1.3057                 1.2508                 1.0424
 Frc consts  --      1.6649                 1.6238                 1.3554
 IR Inten    --     51.4683                35.0305                 7.0863

                     52                     53                     54
                      A                      A                      A
 Frequencies --   1493.5282              1499.0691              1518.8313
 Red. masses --      1.0498                 1.0468                 1.1729
 Frc consts  --      1.3797                 1.3860                 1.5942
 IR Inten    --     12.0780                16.1019                16.4048

                     55                     56                     57
                      A                      A                      A
 Frequencies --   1524.5564              1529.9231              1550.5732
 Red. masses --      1.1860                 1.2033                 3.6104
 Frc consts  --      1.6242                 1.6594                 5.1143
 IR Inten    --     57.6827                 3.9689               247.0093

                     58                     59                     60
                      A                      A                      A
 Frequencies --   1569.5665              1596.5133              1688.8178
 Red. masses --      3.6277                 7.8176                 4.5549
 Frc consts  --      5.2655                11.7400                 7.6540
 IR Inten    --    109.2923               145.6218               842.8366

                     61                     62                     63
                      A                      A                      A
 Frequencies --   3002.3674              3012.8974              3077.0602
 Red. masses --      1.0482                 1.0492                 1.0328
 Frc consts  --      5.5670                 5.6116                 5.7616
 IR Inten    --     92.4704               100.1327                40.3484

                     64                     65                     66
                      A                      A                      A
 Frequencies --   3078.9725              3095.2927              3138.6029
 Red. masses --      1.0893                 1.0873                 1.1031
 Frc consts  --      6.0844                 6.1374                 6.4021
 IR Inten    --     38.3519                24.6197                 7.8083

                     67                     68                     69
                      A                      A                      A
 Frequencies --   3141.3760              3162.2318              3168.0004
 Red. masses --      1.1015                 1.1046                 1.1062
 Frc consts  --      6.4044                 6.5077                 6.5414
 IR Inten    --     21.5609                 8.0491                 6.7132

                     70                     71                     72
                      A                      A                      A
 Frequencies --   3197.9068              3245.7350              3266.8008
 Red. masses --      1.0904                 1.0963                 1.0890
 Frc consts  --      6.5701                 6.8044                 6.8471
 IR Inten    --      2.0244                 5.7910                13.1733

 - Thermochemistry -
 -------------------
 Temperature   298.150 Kelvin.  Pressure   1.00000 Atm.
 Atom     1 has atomic number  7 and mass  14.00307

 Molecular mass:   196.09603 amu.
 Principal axes and moments of inertia in atomic units:
                           1         2         3
     Eigenvalues --  1292.745344983.490966234.07376
           X            0.99982   0.01873   0.00168
           Y           -0.01873   0.99982  -0.00310
           Z           -0.00174   0.00307   0.99999
 This molecule is an asymmetric top.
 Rotational symmetry number  1.
 Warning -- assumption of classical behavior for rotation
           may cause significant error
 Rotational temperatures (Kelvin)      0.06700     0.01738     0.01389
 Rotational constants (GHZ):           1.39605     0.36214     0.28950
 Zero-point vibrational energy     549835.0 (Joules/Mol)
                                  131.41373 (Kcal/Mol)
 Warning -- explicit consideration of  21 degrees of freedom as
           vibrations may cause significant error
 Vibrational temperatures:     64.11    88.56   108.12   116.37   166.94
          (Kelvin)            205.18   239.33   277.71   294.34   311.16
                              334.65   379.33   434.62   495.55   528.41
                              542.17   638.16   665.88   773.24   856.31
                              868.45  1040.73  1050.72  1080.44  1159.80
                             1213.87  1222.41  1236.16  1297.20  1435.40
                             1516.46  1562.62  1568.21  1620.26  1630.40
                             1658.98  1674.00  1684.37  1798.73  1829.49
                             1888.60  1938.24  1953.06  1987.20  2022.51
                             2059.35  2068.67  2102.27  2116.61  2135.71
                             2137.42  2148.85  2156.82  2185.26  2193.49
                             2201.22  2230.93  2258.25  2297.02  2429.83
                             4319.73  4334.88  4427.20  4429.95  4453.43
                             4515.74  4519.73  4549.74  4558.04  4601.07
                             4669.88  4700.19

 Zero-point correction=                           0.209421 (Hartree/Particle)
 Thermal correction to Energy=                    0.223571
 Thermal correction to Enthalpy=                  0.224515
 Thermal correction to Gibbs Free Energy=         0.167666
 Sum of electronic and zero-point Energies=           -681.222173
 Sum of electronic and thermal Energies=              -681.208024
 Sum of electronic and thermal Enthalpies=            -681.207079
 Sum of electronic and thermal Free Energies=         -681.263928

                     E (Thermal)             CV                S
                      KCal/Mol        Cal/Mol-Kelvin    Cal/Mol-Kelvin
 Total                  140.293             50.519            119.647
 Electronic               0.000              0.000              0.000
 Translational            0.889              2.981             41.725
 Rotational               0.889              2.981             32.063
 Vibrational            138.515             44.557             45.859
 Vibration     1          0.595              1.980              5.045
 Vibration     2          0.597              1.973              4.407
 Vibration     3          0.599              1.966              4.014
 Vibration     4          0.600              1.962              3.869
 Vibration     5          0.608              1.936              3.165
 Vibration     6          0.616              1.911              2.769
 Vibration     7          0.624              1.884              2.476
 Vibration     8          0.635              1.850              2.199
 Vibration     9          0.640              1.833              2.092
 Vibration    10          0.645              1.816              1.990
 Vibration    11          0.653              1.791              1.859
 Vibration    12          0.670              1.740              1.638
 Vibration    13          0.694              1.670              1.405
 Vibration    14          0.723              1.587              1.192
 Vibration    15          0.740              1.540              1.091
 Vibration    16          0.747              1.520              1.052
 Vibration    17          0.803              1.375              0.816
 Vibration    18          0.820              1.333              0.758
 Vibration    19          0.892              1.167              0.571
 Vibration    20          0.953              1.042              0.458
 Vibration    21          0.962              1.024              0.443

 Optimization completed.
    -- Stationary point found.
 Normal termination of Gaussian 09 at Fri Aug 20 15:58:16 2021.
