 Gaussian 09, Revision E.01,
 Gaussian 09:  ES64L-G09RevE.01 30-Nov-2015

 -------------------------
 #P OPT Freq B3LYP/6-31G**
 -------------------------

 ------
 YOVJUP
 ------
 Symbolic Z-matrix:
 Charge =  0 Multiplicity = 1

 SCF Done:  E(RB3LYP) =  -547.340940130     A.U. after   16 cycles
 SCF Done:  E(RB3LYP) =  -547.439320625     A.U. after   13 cycles
 SCF Done:  E(RB3LYP) =  -547.476312477     A.U. after   16 cycles
 SCF Done:  E(RB3LYP) =  -547.464175883     A.U. after   17 cycles
 SCF Done:  E(RB3LYP) =  -547.481319465     A.U. after   13 cycles
 SCF Done:  E(RB3LYP) =  -547.482457675     A.U. after   13 cycles
 SCF Done:  E(RB3LYP) =  -547.482440762     A.U. after   13 cycles
 SCF Done:  E(RB3LYP) =  -547.482558465     A.U. after    8 cycles
 SCF Done:  E(RB3LYP) =  -547.482520633     A.U. after   12 cycles
 SCF Done:  E(RB3LYP) =  -547.482591398     A.U. after    6 cycles
 SCF Done:  E(RB3LYP) =  -547.482609128     A.U. after   12 cycles
 SCF Done:  E(RB3LYP) =  -547.482614756     A.U. after   10 cycles
 SCF Done:  E(RB3LYP) =  -547.482624419     A.U. after   12 cycles
 SCF Done:  E(RB3LYP) =  -547.482630958     A.U. after   12 cycles
 SCF Done:  E(RB3LYP) =  -547.482636375     A.U. after   12 cycles
 SCF Done:  E(RB3LYP) =  -547.482638336     A.U. after   12 cycles
 SCF Done:  E(RB3LYP) =  -547.482638562     A.U. after   10 cycles
 SCF Done:  E(RB3LYP) =  -547.482638584     A.U. after    8 cycles
 Optimization completed.
    -- Stationary point found.
 Normal termination of Gaussian 09 at Fri Aug 20 16:05:09 2021.

 ----------------------------------------------------------------------
 #P Geom=AllCheck Guess=TCheck SCRF=Check GenChk RB3LYP/6-31G(d,p) Freq
 ----------------------------------------------------------------------

 Structure from the checkpoint file:  "/public/home/users/caep010/.cache/gau_scr/Gau-63520.chk"
 ------
 YOVJUP
 ------
 Charge =  0 Multiplicity = 1

                         Standard orientation:
 ---------------------------------------------------------------------
 Center     Atomic      Atomic             Coordinates (Angstroms)
 Number     Number       Type             X           Y           Z
 ---------------------------------------------------------------------
      1          8           0       -2.167478   -1.273811    0.089002
      2          7           0       -1.654742   -0.142094   -0.008810
      3          6           0       -0.212476   -0.019572    0.003069
      4          6           0        0.608340   -1.199674   -0.005690
      5          6           0        0.403900    1.258937    0.016586
      6          6           0        1.796949    1.283652    0.008861
      7          6           0        2.513223    0.086279   -0.017955
      8          6           0       -0.323060    2.580097    0.048491
      9          1           0       -1.017444    2.639389    0.889311
     10          1           0       -0.926328    2.725247   -0.850381
     11          8           0       -2.345375    0.873949   -0.117584
     12          7           0        1.959131   -1.116038   -0.023976
     13          1           0        2.322016    2.231876    0.023263
     14          1           0        3.602135    0.105172   -0.031480
     15          7           0        0.130497   -2.458583   -0.006819
     16          1           0       -0.863741   -2.617354    0.044318
     17          1           0        0.815485   -3.197508   -0.015547
     18          1           0        0.405236    3.390767    0.126246
 ---------------------------------------------------------------------

 SCF Done:  E(RB3LYP) =  -547.482638584     A.U. after    1 cycles

 The electronic state is 1-A.
 Alpha  occ. eigenvalues --  -19.17622 -19.17449 -14.57038 -14.36255 -14.33926
 Alpha  occ. eigenvalues --  -10.29325 -10.25384 -10.24374 -10.24208 -10.20048
 Alpha  occ. eigenvalues --  -10.19494  -1.21839  -1.04237  -0.98617  -0.90925
 Alpha  occ. eigenvalues --   -0.85326  -0.79305  -0.73149  -0.69637  -0.62980
 Alpha  occ. eigenvalues --   -0.62293  -0.54926  -0.54805  -0.53131  -0.52912
 Alpha  occ. eigenvalues --   -0.51090  -0.47889  -0.46541  -0.43661  -0.41694
 Alpha  occ. eigenvalues --   -0.41535  -0.40360  -0.38709  -0.33499  -0.30980
 Alpha  occ. eigenvalues --   -0.30592  -0.29568  -0.29055  -0.27190  -0.23334
 Alpha virt. eigenvalues --   -0.08566  -0.02137   0.00366   0.09503   0.09959
 Alpha virt. eigenvalues --    0.12242   0.13161   0.13825   0.14960   0.16691
 Alpha virt. eigenvalues --    0.18923   0.19076   0.21391   0.24477   0.27860

 Mulliken charges:
               1
     1  O   -0.446170
     2  N    0.349426
     3  C    0.219606
     4  C    0.488335
     5  C    0.140614
     6  C   -0.159713
     7  C    0.121598
     8  C   -0.340590
     9  H    0.145016
    10  H    0.150005
    11  O   -0.414459
    12  N   -0.527389
    13  H    0.091512
    14  H    0.109177
    15  N   -0.620836
    16  H    0.310212
    17  H    0.282630
    18  H    0.101027
 Sum of Mulliken charges =  -0.00000

 Dipole moment (field-independent basis, Debye):
    X=              2.7842    Y=              0.3435    Z=              0.1021  Tot=              2.8071
 Quadrupole moment (field-independent basis, Debye-Ang):
   XX=            -69.8842   YY=            -53.2704   ZZ=            -63.1437
   XY=              2.9103   XZ=             -0.1537   YZ=              0.2211

  Exact polarizability: 117.427  -0.106 118.548  -0.196  -0.457  38.102
 Approx polarizability: 203.560  -4.763 215.682  -0.116  -3.028  59.114

                      1                      2                      3
                      A                      A                      A
 Frequencies --     17.4219                90.7857               196.5246
 Red. masses --      7.6618                 6.0897                 4.0706
 Frc consts  --      0.0014                 0.0296                 0.0926
 IR Inten    --      1.1443                 0.0498                 2.4570

                      4                      5                      6
                      A                      A                      A
 Frequencies --    258.6297               267.7568               313.7181
 Red. masses --      3.7615                 1.0657                 7.1825
 Frc consts  --      0.1482                 0.0450                 0.4165
 IR Inten    --     10.1901                 0.0200                 5.4304

                      7                      8                      9
                      A                      A                      A
 Frequencies --    329.9830               374.5489               397.3419
 Red. masses --      1.2340                 4.1988                 5.4840
 Frc consts  --      0.0792                 0.3471                 0.5101
 IR Inten    --    204.5081                 2.6353                 0.9484

                     10                     11                     12
                      A                      A                      A
 Frequencies --    404.7198               491.1047               539.3960
 Red. masses --      4.0791                 3.7882                 7.2797
 Frc consts  --      0.3937                 0.5383                 1.2479
 IR Inten    --      7.5197                19.6245                 0.2327

                     13                     14                     15
                      A                      A                      A
 Frequencies --    567.9164               599.1726               610.8909
 Red. masses --      3.7397                 3.2295                 5.6142
 Frc consts  --      0.7107                 0.6831                 1.2344
 IR Inten    --      3.9990                 3.1401                 1.2343

                     16                     17                     18
                      A                      A                      A
 Frequencies --    659.4260               742.9542               784.4745
 Red. masses --      1.0963                 9.5566                 8.1495
 Frc consts  --      0.2809                 3.1080                 2.9549
 IR Inten    --      0.4736                 0.0251                18.7978

                     19                     20                     21
                      A                      A                      A
 Frequencies --    803.3555               826.1376               874.6312
 Red. masses --      7.1600                 1.2179                 8.2485
 Frc consts  --      2.7226                 0.4897                 3.7177
 IR Inten    --      7.5111                 9.1418                23.2262

                     22                     23                     24
                      A                      A                      A
 Frequencies --    991.0187               999.4917              1021.0260
 Red. masses --      1.4071                 2.2881                 1.8027
 Frc consts  --      0.8142                 1.3467                 1.1072
 IR Inten    --      0.0813                 2.5454                 3.1739

                     25                     26                     27
                      A                      A                      A
 Frequencies --   1061.0569              1092.6696              1124.1123
 Red. masses --      1.5541                 3.0387                 3.0450
 Frc consts  --      1.0309                 2.1375                 2.2670
 IR Inten    --      4.6574                26.0144                12.6165

                     28                     29                     30
                      A                      A                      A
 Frequencies --   1178.0522              1286.9899              1304.2992
 Red. masses --      1.7097                 2.3164                 4.3778
 Frc consts  --      1.3980                 2.2606                 4.3879
 IR Inten    --      1.5729                16.6532               232.4822

                     31                     32                     33
                      A                      A                      A
 Frequencies --   1361.9548              1390.8491              1426.5775
 Red. masses --      5.4416                 2.2090                 1.2011
 Frc consts  --      5.9470                 2.5177                 1.4401
 IR Inten    --    118.1584                76.2554                 5.6962

                     34                     35                     36
                      A                      A                      A
 Frequencies --   1461.8799              1481.8535              1488.0313
 Red. masses --      2.2016                 2.5132                 1.0718
 Frc consts  --      2.7721                 3.2516                 1.3983
 IR Inten    --      8.7079                85.3751                 8.3176

                     37                     38                     39
                      A                      A                      A
 Frequencies --   1499.0929              1588.0490              1611.1469
 Red. masses --      1.2113                 4.8540                 3.1910
 Frc consts  --      1.6038                 7.2123                 4.8803
 IR Inten    --     52.3966               106.1070                54.6064

                     40                     41                     42
                      A                      A                      A
 Frequencies --   1620.0482              1657.6527              3066.5899
 Red. masses --      3.5425                 6.5157                 1.0358
 Frc consts  --      5.4779                10.5487                 5.7391
 IR Inten    --     83.9153               624.9546                11.8222

                     43                     44                     45
                      A                      A                      A
 Frequencies --   3140.5174              3145.5808              3162.4718
 Red. masses --      1.0998                 1.1044                 1.0901
 Frc consts  --      6.3908                 6.4381                 6.4233
 IR Inten    --      3.9266                19.2162                24.4577

                     46                     47                     48
                      A                      A                      A
 Frequencies --   3215.6933              3584.5305              3740.7277
 Red. masses --      1.0932                 1.0436                 1.1069
 Frc consts  --      6.6604                 7.9005                 9.1260
 IR Inten    --      8.6885                90.1424               103.8138

 - Thermochemistry -
 -------------------
 Temperature   298.150 Kelvin.  Pressure   1.00000 Atm.
 Atom     1 has atomic number  8 and mass  15.99491

 Molecular mass:   153.05383 amu.
 Principal axes and moments of inertia in atomic units:
                           1         2         3
     Eigenvalues --  1166.449631435.745032588.34413
           X            0.99980   0.02023  -0.00042
           Y           -0.02023   0.99979   0.00137
           Z            0.00045  -0.00136   1.00000
 This molecule is an asymmetric top.
 Rotational symmetry number  1.
 Warning -- assumption of classical behavior for rotation
           may cause significant error
 Rotational temperatures (Kelvin)      0.07425     0.06033     0.03346
 Rotational constants (GHZ):           1.54721     1.25701     0.69726
 Zero-point vibrational energy     357999.6 (Joules/Mol)
                                   85.56395 (Kcal/Mol)
 Warning -- explicit consideration of  15 degrees of freedom as
           vibrations may cause significant error
 Vibrational temperatures:     25.07   130.62   282.75   372.11   385.24
          (Kelvin)            451.37   474.77   538.89   571.69   582.30
                              706.59   776.07   817.10   862.07   878.93
                              948.77  1068.94  1128.68  1155.85  1188.63
                             1258.40  1425.85  1438.04  1469.03  1526.62
                             1572.11  1617.34  1694.95  1851.69  1876.59
                             1959.55  2001.12  2052.52  2103.32  2132.05
                             2140.94  2156.86  2284.85  2318.08  2330.89
                             2384.99  4412.13  4518.50  4525.78  4550.09
                             4626.66  5157.33  5382.07

 Zero-point correction=                           0.136355 (Hartree/Particle)
 Thermal correction to Energy=                    0.145808
 Thermal correction to Enthalpy=                  0.146752
 Thermal correction to Gibbs Free Energy=         0.100595
 Sum of electronic and zero-point Energies=           -547.346284
 Sum of electronic and thermal Energies=              -547.336830
 Sum of electronic and thermal Enthalpies=            -547.335886
 Sum of electronic and thermal Free Energies=         -547.382043

                     E (Thermal)             CV                S
                      KCal/Mol        Cal/Mol-Kelvin    Cal/Mol-Kelvin
 Total                   91.496             35.995             97.146
 Electronic               0.000              0.000              0.000
 Translational            0.889              2.981             40.987
 Rotational               0.889              2.981             29.851
 Vibrational             89.719             30.034             26.308
 Vibration     1          0.593              1.986              6.908
 Vibration     2          0.602              1.956              3.643
 Vibration     3          0.636              1.845              2.165
 Vibration     4          0.667              1.748              1.671
 Vibration     5          0.673              1.732              1.611
 Vibration     6          0.702              1.647              1.343
 Vibration     7          0.713              1.616              1.260
 Vibration     8          0.746              1.524              1.061
 Vibration     9          0.764              1.476              0.972
 Vibration    10          0.770              1.460              0.945
 Vibration    11          0.847              1.270              0.681
 Vibration    12          0.894              1.163              0.567
 Vibration    13          0.924              1.101              0.508
 Vibration    14          0.957              1.034              0.451
 Vibration    15          0.970              1.009              0.431

 Normal termination of Gaussian 09 at Fri Aug 20 16:05:33 2021.
