 Gaussian 09, Revision E.01,
 Gaussian 09:  ES64L-G09RevE.01 30-Nov-2015

 -------------------------
 #P OPT Freq B3LYP/6-31G**
 -------------------------

 ------
 JOWWIB
 ------
 Symbolic Z-matrix:
 Charge =  0 Multiplicity = 1

 SCF Done:  E(RB3LYP) =  -502.029640011     A.U. after   15 cycles
 SCF Done:  E(RB3LYP) =  -502.097282502     A.U. after   14 cycles
 SCF Done:  E(RB3LYP) =  -502.105401642     A.U. after   15 cycles
 SCF Done:  E(RB3LYP) =  -502.096609916     A.U. after   17 cycles
 SCF Done:  E(RB3LYP) =  -502.105831859     A.U. after   11 cycles
 SCF Done:  E(RB3LYP) =  -502.106196028     A.U. after   13 cycles
 SCF Done:  E(RB3LYP) =  -502.106471644     A.U. after   13 cycles
 SCF Done:  E(RB3LYP) =  -502.106666680     A.U. after   13 cycles
 SCF Done:  E(RB3LYP) =  -502.106791050     A.U. after   13 cycles
 SCF Done:  E(RB3LYP) =  -502.106857856     A.U. after   13 cycles
 SCF Done:  E(RB3LYP) =  -502.106888262     A.U. after   12 cycles
 SCF Done:  E(RB3LYP) =  -502.106903906     A.U. after   11 cycles
 SCF Done:  E(RB3LYP) =  -502.106914069     A.U. after   10 cycles
 SCF Done:  E(RB3LYP) =  -502.106916898     A.U. after    9 cycles
 Optimization completed.
    -- Stationary point found.
 Normal termination of Gaussian 09 at Fri Aug 20 15:44:15 2021.

 ----------------------------------------------------------------------
 #P Geom=AllCheck Guess=TCheck SCRF=Check GenChk RB3LYP/6-31G(d,p) Freq
 ----------------------------------------------------------------------

 Structure from the checkpoint file:  "/public/home/users/caep010/.cache/gau_scr/Gau-139028.chk"
 ------
 JOWWIB
 ------
 Charge =  0 Multiplicity = 1

                         Standard orientation:
 ---------------------------------------------------------------------
 Center     Atomic      Atomic             Coordinates (Angstroms)
 Number     Number       Type             X           Y           Z
 ---------------------------------------------------------------------
      1          6           0       -0.389733    0.105511    0.002225
      2          7           0        0.034983    1.352190    0.009128
      3          7           0        1.382177    1.154379    0.013349
      4          6           0        1.668782   -0.178403    0.002039
      5          7           0        0.543777   -0.875942   -0.008402
      6          7           0       -1.821633   -0.189364   -0.003523
      7          7           0        2.938431   -0.694924    0.065176
      8          8           0       -2.588408    0.768896   -0.024852
      9          8           0       -2.140195   -1.373584    0.014153
     10          1           0        2.001859    1.948890    0.069918
     11          1           0        2.954396   -1.694806   -0.086879
     12          1           0        3.654135   -0.203603   -0.453114
 ---------------------------------------------------------------------

 SCF Done:  E(RB3LYP) =  -502.106916898     A.U. after    1 cycles

 The electronic state is 1-A.
 Alpha  occ. eigenvalues --  -19.17713 -19.17582 -14.57125 -14.44805 -14.39284
 Alpha  occ. eigenvalues --  -14.39171 -14.35147 -10.32697 -10.29654  -1.22315
 Alpha  occ. eigenvalues --   -1.11237  -1.05007  -0.97112  -0.92721  -0.85354
 Alpha  occ. eigenvalues --   -0.75580  -0.66832  -0.61943  -0.58349  -0.54166
 Alpha  occ. eigenvalues --   -0.53672  -0.53099  -0.51492  -0.49233  -0.48496
 Alpha  occ. eigenvalues --   -0.37142  -0.36376  -0.32582  -0.31241  -0.30282
 Alpha  occ. eigenvalues --   -0.30251  -0.28354  -0.26017
 Alpha virt. eigenvalues --   -0.08056   0.00426   0.03580   0.06112   0.07009
 Alpha virt. eigenvalues --    0.09947   0.14614   0.19189   0.23081   0.25455
 Alpha virt. eigenvalues --    0.27206   0.31396   0.35380   0.39246   0.48602

 Mulliken charges:
               1
     1  C    0.627391
     2  N   -0.280754
     3  N   -0.371603
     4  C    0.712852
     5  N   -0.500013
     6  N    0.361920
     7  N   -0.665171
     8  O   -0.379183
     9  O   -0.372117
    10  H    0.291781
    11  H    0.299052
    12  H    0.275845
 Sum of Mulliken charges =  -0.00000

 Dipole moment (field-independent basis, Debye):
    X=              7.9492    Y=              1.1824    Z=             -0.9655  Tot=              8.0945
 Quadrupole moment (field-independent basis, Debye-Ang):
   XX=            -41.8022   YY=            -50.9292   ZZ=            -48.9923
   XY=              1.8910   XZ=             -3.9275   YZ=              0.7921

  Exact polarizability:  84.715  -0.823  63.615  -0.586  -0.364  24.921
 Approx polarizability: 122.134  -2.817 137.695   0.173  -1.405  38.295

                      1                      2                      3
                      A                      A                      A
 Frequencies --     43.5643               169.6421               205.6907
 Red. masses --     10.0714                 6.4883                 7.3712
 Frc consts  --      0.0113                 0.1100                 0.1837
 IR Inten    --      0.3118                 4.1436                 0.8578

                      4                      5                      6
                      A                      A                      A
 Frequencies --    269.8172               342.3185               389.7641
 Red. masses --      1.0706                 6.9353                 4.8142
 Frc consts  --      0.0459                 0.4788                 0.4309
 IR Inten    --     51.0549                 8.5002                 2.3678

                      7                      8                      9
                      A                      A                      A
 Frequencies --    431.3781               495.1032               561.2903
 Red. masses --      7.7040                 1.4141                 7.3753
 Frc consts  --      0.8447                 0.2042                 1.3690
 IR Inten    --      1.8473                52.9503                 8.1247

                     10                     11                     12
                      A                      A                      A
 Frequencies --    606.3012               658.8787               736.0924
 Red. masses --      1.3398                 6.4736                 5.8711
 Frc consts  --      0.2902                 1.6558                 1.8743
 IR Inten    --    340.8142                33.5321                20.2237

                     13                     14                     15
                      A                      A                      A
 Frequencies --    751.7698               779.5802               850.7869
 Red. masses --      5.0297                13.2203                13.5194
 Frc consts  --      1.6748                 4.7338                 5.7656
 IR Inten    --     14.2591                 0.1926                57.6362

                     16                     17                     18
                      A                      A                      A
 Frequencies --   1021.2888              1049.8651              1120.2877
 Red. masses --      9.0903                 2.4429                 2.2014
 Frc consts  --      5.5863                 1.5864                 1.6278
 IR Inten    --      4.5030                 5.1908                20.4830

                     19                     20                     21
                      A                      A                      A
 Frequencies --   1169.3542              1350.8787              1360.4279
 Red. masses --      5.7640                 2.5353                 4.1622
 Frc consts  --      4.6437                 2.7259                 4.5386
 IR Inten    --     19.1130                34.7541                76.2072

                     22                     23                     24
                      A                      A                      A
 Frequencies --   1423.1589              1470.8549              1554.3708
 Red. masses --      9.8586                 4.1696                 8.9104
 Frc consts  --     11.7645                 5.3148                12.6839
 IR Inten    --    112.4774                24.1176               123.4716

                     25                     26                     27
                      A                      A                      A
 Frequencies --   1615.9237              1665.0212              1682.3300
 Red. masses --      1.5911                12.4511                 2.3958
 Frc consts  --      2.4478                20.3375                 3.9950
 IR Inten    --     48.7066               172.5537               334.6964

                     28                     29                     30
                      A                      A                      A
 Frequencies --   3575.7798              3661.2194              3685.0053
 Red. masses --      1.0477                 1.0819                 1.0995
 Frc consts  --      7.8927                 8.5448                 8.7967
 IR Inten    --     49.2704                81.1444                41.1287

 - Thermochemistry -
 -------------------
 Temperature   298.150 Kelvin.  Pressure   1.00000 Atm.
 Atom     1 has atomic number  6 and mass  12.00000

 Molecular mass:   129.02867 amu.
 Principal axes and moments of inertia in atomic units:
                           1         2         3
     Eigenvalues --   390.905951571.224811960.08348
           X            0.99998  -0.00551  -0.00409
           Y            0.00552   0.99998   0.00349
           Z            0.00407  -0.00351   0.99999
 This molecule is an asymmetric top.
 Rotational symmetry number  1.
 Rotational temperatures (Kelvin)      0.22157     0.05513     0.04419
 Rotational constants (GHZ):           4.61682     1.14862     0.92075
 Zero-point vibrational energy     207538.6 (Joules/Mol)
                                   49.60292 (Kcal/Mol)
 Warning -- explicit consideration of  10 degrees of freedom as
           vibrations may cause significant error
 Vibrational temperatures:     62.68   244.08   295.94   388.21   492.52
          (Kelvin)            560.78   620.66   712.34   807.57   872.33
                              947.98  1059.07  1081.63  1121.64  1224.09
                             1469.40  1510.52  1611.84  1682.44  1943.61
                             1957.35  2047.61  2116.23  2236.39  2324.95
                             2395.59  2420.49  5144.74  5267.67  5301.89

 Zero-point correction=                           0.079047 (Hartree/Particle)
 Thermal correction to Energy=                    0.086506
 Thermal correction to Enthalpy=                  0.087450
 Thermal correction to Gibbs Free Energy=         0.046309
 Sum of electronic and zero-point Energies=           -502.027870
 Sum of electronic and thermal Energies=              -502.020411
 Sum of electronic and thermal Enthalpies=            -502.019467
 Sum of electronic and thermal Free Energies=         -502.060608

                     E (Thermal)             CV                S
                      KCal/Mol        Cal/Mol-Kelvin    Cal/Mol-Kelvin
 Total                   54.283             26.710             86.588
 Electronic               0.000              0.000              0.000
 Translational            0.889              2.981             40.478
 Rotational               0.889              2.981             28.578
 Vibrational             52.506             20.748             17.532
 Vibration     1          0.595              1.980              5.090
 Vibration     2          0.625              1.880              2.439
 Vibration     3          0.640              1.832              2.082
 Vibration     4          0.674              1.729              1.597
 Vibration     5          0.721              1.591              1.201
 Vibration     6          0.758              1.492              1.001
 Vibration     7          0.792              1.402              0.854
 Vibration     8          0.851              1.261              0.670
 Vibration     9          0.917              1.115              0.521
 Vibration    10          0.965              1.018              0.439

 Optimization completed.
    -- Stationary point found.
 Normal termination of Gaussian 09 at Fri Aug 20 15:44:27 2021.
