 Gaussian 09, Revision E.01,
 Gaussian 09:  ES64L-G09RevE.01 30-Nov-2015

 -------------------------
 #P OPT Freq B3LYP/6-31G**
 -------------------------

 ------
 DAFBOB
 ------
 Symbolic Z-matrix:
 Charge =  0 Multiplicity = 1

 SCF Done:  E(RB3LYP) =  -494.301970583     A.U. after   16 cycles
 SCF Done:  E(RB3LYP) =  -494.428355257     A.U. after   13 cycles
 SCF Done:  E(RB3LYP) =  -494.509610000     A.U. after   14 cycles
 SCF Done:  E(RB3LYP) =  -494.517093345     A.U. after   13 cycles
 SCF Done:  E(RB3LYP) =  -494.517030263     A.U. after   14 cycles
 SCF Done:  E(RB3LYP) =  -494.517722479     A.U. after    9 cycles
 SCF Done:  E(RB3LYP) =  -494.517608106     A.U. after   13 cycles
 SCF Done:  E(RB3LYP) =  -494.518224002     A.U. after    9 cycles
 SCF Done:  E(RB3LYP) =  -494.518326555     A.U. after   12 cycles
 SCF Done:  E(RB3LYP) =  -494.518364586     A.U. after   12 cycles
 SCF Done:  E(RB3LYP) =  -494.518398196     A.U. after   11 cycles
 SCF Done:  E(RB3LYP) =  -494.518436573     A.U. after   11 cycles
 SCF Done:  E(RB3LYP) =  -494.518456848     A.U. after   11 cycles
 SCF Done:  E(RB3LYP) =  -494.518474082     A.U. after   11 cycles
 SCF Done:  E(RB3LYP) =  -494.518485116     A.U. after   11 cycles
 SCF Done:  E(RB3LYP) =  -494.518487694     A.U. after   10 cycles
 SCF Done:  E(RB3LYP) =  -494.518488032     A.U. after    8 cycles
 SCF Done:  E(RB3LYP) =  -494.518488167     A.U. after    8 cycles
 Optimization completed.
    -- Stationary point found.
 Normal termination of Gaussian 09 at Fri Aug 20 15:53:11 2021.

 ----------------------------------------------------------------------
 #P Geom=AllCheck Guess=TCheck SCRF=Check GenChk RB3LYP/6-31G(d,p) Freq
 ----------------------------------------------------------------------

 Structure from the checkpoint file:  "/public/home/users/caep010/.cache/gau_scr/Gau-132911.chk"
 ------
 DAFBOB
 ------
 Charge =  0 Multiplicity = 1

                         Standard orientation:
 ---------------------------------------------------------------------
 Center     Atomic      Atomic             Coordinates (Angstroms)
 Number     Number       Type             X           Y           Z
 ---------------------------------------------------------------------
      1          7           0        1.415699    0.692794   -0.076385
      2          6           0        0.224086    0.035652   -0.024473
      3          6           0        0.496917   -1.451044    0.062771
      4          6           0        2.559585   -0.189268    0.176392
      5          1           0        2.858773   -0.145383    1.235321
      6          1           0        3.418009    0.122794   -0.427110
      7          6           0        1.541377    2.134112    0.001054
      8          1           0        2.578785    2.412951   -0.193101
      9          1           0        1.250679    2.522327    0.987299
     10          1           0        0.911815    2.611013   -0.756536
     11          6           0       -0.981383    0.679923   -0.024229
     12          1           0       -1.092071    1.752150   -0.057609
     13          6           0        2.010981   -1.568467   -0.208421
     14          7           0       -2.229407    0.008114    0.003276
     15          8           0       -2.271127   -1.232944    0.091368
     16          8           0       -3.242083    0.722337   -0.052883
     17          1           0        0.223127   -1.800563    1.064339
     18          1           0       -0.127022   -2.014116   -0.630032
     19          1           0        2.481600   -2.376637    0.355256
     20          1           0        2.188562   -1.751484   -1.272506
 ---------------------------------------------------------------------

 SCF Done:  E(RB3LYP) =  -494.518488167     A.U. after    1 cycles

 The electronic state is 1-A.
 Alpha  occ. eigenvalues --  -19.13833 -19.13778 -14.53680 -14.39002 -10.26113
 Alpha  occ. eigenvalues --  -10.24642 -10.24281 -10.21124 -10.20983 -10.20657
 Alpha  occ. eigenvalues --   -1.17990  -1.00479  -0.99158  -0.82111  -0.81274
 Alpha  occ. eigenvalues --   -0.74173  -0.71755  -0.63183  -0.61608  -0.55217
 Alpha  occ. eigenvalues --   -0.52373  -0.52020  -0.49660  -0.49183  -0.47824
 Alpha  occ. eigenvalues --   -0.46021  -0.45445  -0.42710  -0.42368  -0.40571
 Alpha  occ. eigenvalues --   -0.38323  -0.37439  -0.36992  -0.31652  -0.27313
 Alpha  occ. eigenvalues --   -0.27062  -0.25076  -0.22311
 Alpha virt. eigenvalues --   -0.04842   0.04751   0.06772   0.08824   0.10190
 Alpha virt. eigenvalues --    0.10554   0.12845   0.13536   0.14457   0.15319
 Alpha virt. eigenvalues --    0.16277   0.17635   0.18696   0.20067   0.21125

 Mulliken charges:
               1
     1  N   -0.470585
     2  C    0.390127
     3  C   -0.240211
     4  C   -0.031046
     5  H    0.115075
     6  H    0.114976
     7  C   -0.178770
     8  H    0.123497
     9  H    0.130895
    10  H    0.139996
    11  C   -0.047527
    12  H    0.107482
    13  C   -0.227395
    14  N    0.411091
    15  O   -0.456553
    16  O   -0.424836
    17  H    0.144960
    18  H    0.158208
    19  H    0.115385
    20  H    0.125234
 Sum of Mulliken charges =  -0.00000

 Dipole moment (field-independent basis, Debye):
    X=              7.5524    Y=              1.1845    Z=              0.1301  Tot=              7.6458
 Quadrupole moment (field-independent basis, Debye-Ang):
   XX=            -70.1711   YY=            -55.2926   ZZ=            -57.9784
   XY=             -0.0524   XZ=              0.4050   YZ=              0.1366

  Exact polarizability: 127.522  -0.884  88.013   1.266  -0.973  52.935
 Approx polarizability: 198.131  -6.045 139.250   1.311  -3.860  79.917

                      1                      2                      3
                      A                      A                      A
 Frequencies --     64.5126               113.4391               130.1971
 Red. masses --      6.7918                 3.4774                 1.3182
 Frc consts  --      0.0167                 0.0264                 0.0132
 IR Inten    --      0.0327                 1.4449                 1.3060

                      4                      5                      6
                      A                      A                      A
 Frequencies --    158.2856               180.0771               186.8959
 Red. masses --      2.1833                 2.7122                 2.4358
 Frc consts  --      0.0322                 0.0518                 0.0501
 IR Inten    --      0.9494                 1.3729                 1.3340

                      7                      8                      9
                      A                      A                      A
 Frequencies --    240.4088               289.1760               391.0953
 Red. masses --      3.3199                 3.5588                 5.9257
 Frc consts  --      0.1131                 0.1753                 0.5340
 IR Inten    --     12.7499                 0.8220                 1.3335

                     10                     11                     12
                      A                      A                      A
 Frequencies --    460.3614               538.6367               598.8467
 Red. masses --      4.0938                 2.3576                 3.2463
 Frc consts  --      0.5112                 0.4030                 0.6859
 IR Inten    --      1.3573                 2.4743                 1.4593

                     13                     14                     15
                      A                      A                      A
 Frequencies --    663.2179               737.5760               751.9101
 Red. masses --      2.7079                 1.6297                 7.3993
 Frc consts  --      0.7018                 0.5224                 2.4648
 IR Inten    --      1.0762                 9.1779                14.4243

                     16                     17                     18
                      A                      A                      A
 Frequencies --    772.7405               807.5130               876.4730
 Red. masses --      4.1995                 2.8487                 1.9226
 Frc consts  --      1.4775                 1.0944                 0.8702
 IR Inten    --     36.3850                 2.0861                10.6024

                     19                     20                     21
                      A                      A                      A
 Frequencies --    898.7625               942.3651               968.3929
 Red. masses --      1.8261                 2.4209                 2.8745
 Frc consts  --      0.8691                 1.2667                 1.5882
 IR Inten    --     17.6304                 8.8835                13.2622

                     22                     23                     24
                      A                      A                      A
 Frequencies --   1033.5412              1068.4537              1096.3361
 Red. masses --      2.1285                 2.9308                 1.6373
 Frc consts  --      1.3396                 1.9713                 1.1595
 IR Inten    --      1.8949                 0.1974                 1.6486

                     25                     26                     27
                      A                      A                      A
 Frequencies --   1130.9314              1143.9869              1192.5623
 Red. masses --      1.9011                 1.2904                 1.2896
 Frc consts  --      1.4326                 0.9950                 1.0806
 IR Inten    --     30.0610                13.7844                22.4337

                     28                     29                     30
                      A                      A                      A
 Frequencies --   1227.6184              1247.5252              1276.0054
 Red. masses --      1.4544                 1.2187                 2.1307
 Frc consts  --      1.2914                 1.1175                 2.0439
 IR Inten    --      8.5682                 3.9406                26.9752

                     31                     32                     33
                      A                      A                      A
 Frequencies --   1299.8827              1325.0556              1341.5521
 Red. masses --      1.5823                 1.8666                 1.3732
 Frc consts  --      1.5753                 1.9310                 1.4561
 IR Inten    --     94.2909               290.8770                24.4806

                     34                     35                     36
                      A                      A                      A
 Frequencies --   1375.4250              1407.7539              1449.4836
 Red. masses --      1.6985                 5.6660                 1.8663
 Frc consts  --      1.8932                 6.6158                 2.3103
 IR Inten    --     13.0665               394.7504                25.4692

                     37                     38                     39
                      A                      A                      A
 Frequencies --   1475.1350              1487.6867              1500.9349
 Red. masses --      1.1986                 1.3959                 1.0863
 Frc consts  --      1.5367                 1.8203                 1.4419
 IR Inten    --     12.2667                 1.2047                 8.5850

                     40                     41                     42
                      A                      A                      A
 Frequencies --   1511.5852              1524.3422              1540.4922
 Red. masses --      1.1046                 1.1272                 1.1722
 Frc consts  --      1.4870                 1.5431                 1.6390
 IR Inten    --      2.9946                 7.1423                 6.1329

                     43                     44                     45
                      A                      A                      A
 Frequencies --   1584.1165              1665.8513              2996.8239
 Red. masses --      6.5089                 6.1793                 1.0706
 Frc consts  --      9.6235                10.1032                 5.6650
 IR Inten    --    181.5558               451.1892                63.6785

                     46                     47                     48
                      A                      A                      A
 Frequencies --   3019.2560              3073.3177              3077.8332
 Red. masses --      1.0457                 1.0740                 1.0714
 Frc consts  --      5.6163                 5.9771                 5.9798
 IR Inten    --     52.1029                11.1512                 6.1432

                     49                     50                     51
                      A                      A                      A
 Frequencies --   3087.5066              3092.9230              3133.8491
 Red. masses --      1.0852                 1.0932                 1.1029
 Frc consts  --      6.0948                 6.1615                 6.3819
 IR Inten    --     44.7684                21.1285                19.7439

                     52                     53                     54
                      A                      A                      A
 Frequencies --   3143.2756              3159.9997              3277.9878
 Red. masses --      1.1017                 1.0935                 1.0909
 Frc consts  --      6.4134                 6.4332                 6.9065
 IR Inten    --     11.1732                 1.8189                 4.5647

 - Thermochemistry -
 -------------------
 Temperature   298.150 Kelvin.  Pressure   1.00000 Atm.
 Atom     1 has atomic number  7 and mass  14.00307

 Molecular mass:   142.07423 amu.
 Principal axes and moments of inertia in atomic units:
                           1         2         3
     Eigenvalues --   718.006142024.243382686.27926
           X            1.00000   0.00029   0.00113
           Y           -0.00029   1.00000   0.00244
           Z           -0.00113  -0.00244   1.00000
 This molecule is an asymmetric top.
 Rotational symmetry number  1.
 Warning -- assumption of classical behavior for rotation
           may cause significant error
 Rotational temperatures (Kelvin)      0.12063     0.04279     0.03224
 Rotational constants (GHZ):           2.51355     0.89156     0.67184
 Zero-point vibrational energy     435081.3 (Joules/Mol)
                                  103.98693 (Kcal/Mol)
 Warning -- explicit consideration of  12 degrees of freedom as
           vibrations may cause significant error
 Vibrational temperatures:     92.82   163.21   187.32   227.74   259.09
          (Kelvin)            268.90   345.89   416.06   562.70   662.36
                              774.98   861.61   954.22  1061.21  1081.83
                             1111.80  1161.83  1261.05  1293.12  1355.85
                             1393.30  1487.03  1537.26  1577.38  1627.16
                             1645.94  1715.83  1766.27  1794.91  1835.88
                             1870.24  1906.46  1930.19  1978.93  2025.44
                             2085.48  2122.39  2140.45  2159.51  2174.83
                             2193.19  2216.42  2279.19  2396.79  4311.76
                             4344.03  4421.81  4428.31  4442.23  4450.02
                             4508.90  4522.47  4546.53  4716.29

 Zero-point correction=                           0.165714 (Hartree/Particle)
 Thermal correction to Energy=                    0.175365
 Thermal correction to Enthalpy=                  0.176309
 Thermal correction to Gibbs Free Energy=         0.130370
 Sum of electronic and zero-point Energies=           -494.352774
 Sum of electronic and thermal Energies=              -494.343123
 Sum of electronic and thermal Enthalpies=            -494.342179
 Sum of electronic and thermal Free Energies=         -494.388118

                     E (Thermal)             CV                S
                      KCal/Mol        Cal/Mol-Kelvin    Cal/Mol-Kelvin
 Total                  110.043             34.957             96.688
 Electronic               0.000              0.000              0.000
 Translational            0.889              2.981             40.765
 Rotational               0.889              2.981             29.747
 Vibrational            108.266             28.995             26.176
 Vibration     1          0.597              1.971              4.314
 Vibration     2          0.607              1.938              3.209
 Vibration     3          0.612              1.923              2.943
 Vibration     4          0.621              1.893              2.570
 Vibration     5          0.629              1.867              2.328
 Vibration     6          0.632              1.858              2.258
 Vibration     7          0.657              1.779              1.800
 Vibration     8          0.686              1.694              1.479
 Vibration     9          0.759              1.489              0.996
 Vibration    10          0.818              1.338              0.765
 Vibration    11          0.894              1.165              0.568
 Vibration    12          0.957              1.034              0.452

 Normal termination of Gaussian 09 at Fri Aug 20 15:53:37 2021.
