 Gaussian 09, Revision E.01,
 Gaussian 09:  ES64L-G09RevE.01 30-Nov-2015

 -------------------------
 #P OPT Freq B3LYP/6-31G**
 -------------------------

 ------
 SAWNAH
 ------
 Symbolic Z-matrix:
 Charge =  0 Multiplicity = 1

 SCF Done:  E(RB3LYP) =  -678.329498665     A.U. after   16 cycles
 SCF Done:  E(RB3LYP) =  -678.385823466     A.U. after   15 cycles
 SCF Done:  E(RB3LYP) =  -678.395496095     A.U. after   16 cycles
 SCF Done:  E(RB3LYP) =  -678.386806476     A.U. after   17 cycles
 SCF Done:  E(RB3LYP) =  -678.396956156     A.U. after   13 cycles
 SCF Done:  E(RB3LYP) =  -678.396628250     A.U. after   14 cycles
 SCF Done:  E(RB3LYP) =  -678.397449701     A.U. after   10 cycles
 SCF Done:  E(RB3LYP) =  -678.397577710     A.U. after   13 cycles
 SCF Done:  E(RB3LYP) =  -678.397686581     A.U. after   12 cycles
 SCF Done:  E(RB3LYP) =  -678.397704529     A.U. after   12 cycles
 SCF Done:  E(RB3LYP) =  -678.397709517     A.U. after   12 cycles
 SCF Done:  E(RB3LYP) =  -678.397710965     A.U. after    9 cycles
 SCF Done:  E(RB3LYP) =  -678.397711421     A.U. after    8 cycles
 SCF Done:  E(RB3LYP) =  -678.397711681     A.U. after    8 cycles
 SCF Done:  E(RB3LYP) =  -678.397711770     A.U. after    7 cycles
 SCF Done:  E(RB3LYP) =  -678.397711839     A.U. after    8 cycles
 Optimization completed.
    -- Stationary point found.
 Normal termination of Gaussian 09 at Fri Aug 20 15:49:56 2021.

 ----------------------------------------------------------------------
 #P Geom=AllCheck Guess=TCheck SCRF=Check GenChk RB3LYP/6-31G(d,p) Freq
 ----------------------------------------------------------------------

 Structure from the checkpoint file:  "/public/home/users/caep010/.cache/gau_scr/Gau-4643.chk"
 ------
 SAWNAH
 ------
 Charge =  0 Multiplicity = 1

                         Standard orientation:
 ---------------------------------------------------------------------
 Center     Atomic      Atomic             Coordinates (Angstroms)
 Number     Number       Type             X           Y           Z
 ---------------------------------------------------------------------
      1          8           0       -1.129150   -1.324831    0.000002
      2          7           0        0.254824   -1.321885   -0.000046
      3          6           0        0.609574   -0.048467   -0.000051
      4          6           0       -0.512590    0.824621    0.000033
      5          1           0       -0.528310    1.901425    0.000111
      6          6           0       -1.550464   -0.049604    0.000088
      7          7           0       -2.978287    0.182529    0.000061
      8          8           0       -3.712121   -0.798288   -0.000537
      9          8           0       -3.320321    1.364001    0.000626
     10          6           0        2.034097    0.397281   -0.000171
     11          8           0        2.890388   -0.627379    0.000352
     12          6           0        4.286350   -0.264468    0.000251
     13          8           0        2.334992    1.571977   -0.000668
     14          1           0        4.525991    0.320209   -0.890488
     15          1           0        4.828810   -1.208268    0.001335
     16          1           0        4.525647    0.322105    0.889829
 ---------------------------------------------------------------------

 SCF Done:  E(RB3LYP) =  -678.397711839     A.U. after    1 cycles

 The electronic state is 1-A.
 Alpha  occ. eigenvalues --  -19.29252 -19.22410 -19.21108 -19.20954 -19.16990
 Alpha  occ. eigenvalues --  -14.60754 -14.43822 -10.35489 -10.33633 -10.27973
 Alpha  occ. eigenvalues --  -10.26290 -10.25507  -1.25899  -1.20144  -1.13566
 Alpha  occ. eigenvalues --   -1.08489  -1.04813  -0.92559  -0.87189  -0.77046
 Alpha  occ. eigenvalues --   -0.76245  -0.68408  -0.64193  -0.59397  -0.58227
 Alpha  occ. eigenvalues --   -0.57136  -0.53670  -0.52388  -0.51805  -0.51409
 Alpha  occ. eigenvalues --   -0.50100  -0.48874  -0.45370  -0.43992  -0.42843
 Alpha  occ. eigenvalues --   -0.38569  -0.35894  -0.34438  -0.33427  -0.33239
 Alpha  occ. eigenvalues --   -0.33111  -0.32048  -0.31705  -0.30992
 Alpha virt. eigenvalues --   -0.12136  -0.07322   0.00584   0.05607   0.07574
 Alpha virt. eigenvalues --    0.08606   0.10005   0.11442   0.13976   0.15539
 Alpha virt. eigenvalues --    0.16291   0.16680   0.22478   0.23316   0.25141

 Mulliken charges:
               1
     1  O   -0.334146
     2  N   -0.173236
     3  C    0.229042
     4  C   -0.136000
     5  H    0.172007
     6  C    0.590675
     7  N    0.350784
     8  O   -0.357827
     9  O   -0.375413
    10  C    0.632234
    11  O   -0.452525
    12  C   -0.092311
    13  O   -0.472303
    14  H    0.140827
    15  H    0.137350
    16  H    0.140842
 Sum of Mulliken charges =  -0.00000

 Dipole moment (field-independent basis, Debye):
    X=              4.0479    Y=              0.4480    Z=              0.0009  Tot=              4.0726
 Quadrupole moment (field-independent basis, Debye-Ang):
   XX=            -65.4795   YY=            -74.0179   ZZ=            -63.1293
   XY=             -3.3964   XZ=              0.0020   YZ=              0.0004

  Exact polarizability: 121.950   0.633  81.146  -0.000   0.003  38.195
 Approx polarizability: 163.004  10.349 180.217  -0.000   0.014  57.747

                      1                      2                      3
                      A                      A                      A
 Frequencies --     43.0430                61.4793                96.9570
 Red. masses --      6.1330                 9.9274                 1.5899
 Frc consts  --      0.0067                 0.0221                 0.0088
 IR Inten    --      1.7090                 0.0445                 0.3668

                      4                      5                      6
                      A                      A                      A
 Frequencies --    105.7010               114.3269               172.2476
 Red. masses --      6.4920                 2.1028                 5.1070
 Frc consts  --      0.0427                 0.0162                 0.0893
 IR Inten    --      0.8048                 2.2119                13.1861

                      7                      8                      9
                      A                      A                      A
 Frequencies --    215.9631               296.0938               299.4658
 Red. masses --      7.5695                10.4072                10.3296
 Frc consts  --      0.2080                 0.5376                 0.5458
 IR Inten    --      4.6793                 0.2264                 4.6668

                     10                     11                     12
                      A                      A                      A
 Frequencies --    322.8430               479.6587               496.0625
 Red. masses --      4.4748                 9.9057                13.2101
 Frc consts  --      0.2748                 1.3428                 1.9153
 IR Inten    --     22.6656                 0.0086                 0.7665

                     13                     14                     15
                      A                      A                      A
 Frequencies --    556.9650               604.3754               635.8571
 Red. masses --      6.5726                 7.7214                 8.7061
 Frc consts  --      1.2013                 1.6617                 2.0739
 IR Inten    --      0.9101                 7.1152                 3.2822

                     16                     17                     18
                      A                      A                      A
 Frequencies --    757.5556               779.2135               817.2835
 Red. masses --      7.3421                 7.0631                 6.6041
 Frc consts  --      2.4825                 2.5267                 2.5990
 IR Inten    --     14.7418                 9.1293                 4.5234

                     19                     20                     21
                      A                      A                      A
 Frequencies --    832.3572               882.1771               961.2830
 Red. masses --      9.4467                 1.4664                11.2139
 Frc consts  --      3.8561                 0.6724                 6.1053
 IR Inten    --     89.9121                15.3345                26.5903

                     22                     23                     24
                      A                      A                      A
 Frequencies --    972.2783              1007.9440              1032.4493
 Red. masses --      8.0490                 3.9736                 7.0485
 Frc consts  --      4.4831                 2.3785                 4.4268
 IR Inten    --      1.5259                22.2221                54.2823

                     25                     26                     27
                      A                      A                      A
 Frequencies --   1097.5766              1177.1437              1207.2286
 Red. masses --      1.9189                 1.2737                 1.6046
 Frc consts  --      1.3620                 1.0399                 1.3778
 IR Inten    --      3.7783                 0.9047                20.0592

                     28                     29                     30
                      A                      A                      A
 Frequencies --   1251.4779              1321.2459              1396.6399
 Red. masses --      7.0088                 5.4215                14.3604
 Frc consts  --      6.4675                 5.5762                16.5038
 IR Inten    --    256.9022               319.4711               233.9465

                     31                     32                     33
                      A                      A                      A
 Frequencies --   1467.5364              1469.0420              1496.2384
 Red. masses --      2.1900                 3.6795                 1.0464
 Frc consts  --      2.7789                 4.6785                 1.3802
 IR Inten    --      2.8734                 0.0375                 8.0582

                     34                     35                     36
                      A                      A                      A
 Frequencies --   1502.1611              1509.7995              1624.1200
 Red. masses --      1.4989                 1.6712                 9.3373
 Frc consts  --      1.9927                 2.2444                14.5113
 IR Inten    --     36.4470                13.4302                56.0627

                     37                     38                     39
                      A                      A                      A
 Frequencies --   1663.9263              1817.6739              3071.7488
 Red. masses --     13.4547                11.8445                 1.0299
 Frc consts  --     21.9479                23.0569                 5.7255
 IR Inten    --    167.6406               203.9731                25.3066

                     40                     41                     42
                      A                      A                      A
 Frequencies --   3152.5606              3189.9954              3324.7475
 Red. masses --      1.1076                 1.1073                 1.1010
 Frc consts  --      6.4857                 6.6388                 7.1707
 IR Inten    --     15.2463                10.1390                16.1303

 - Thermochemistry -
 -------------------
 Temperature   298.150 Kelvin.  Pressure   1.00000 Atm.
 Atom     1 has atomic number  8 and mass  15.99491

 Molecular mass:   172.01202 amu.
 Principal axes and moments of inertia in atomic units:
                           1         2         3
     Eigenvalues --   559.327794054.352364602.27282
           X            0.99999  -0.00387   0.00000
           Y            0.00387   0.99999   0.00000
           Z           -0.00000  -0.00000   1.00000
 This molecule is an asymmetric top.
 Rotational symmetry number  1.
 Warning -- assumption of classical behavior for rotation
           may cause significant error
 Rotational temperatures (Kelvin)      0.15485     0.02136     0.01882
 Rotational constants (GHZ):           3.22663     0.44514     0.39214
 Zero-point vibrational energy     270861.1 (Joules/Mol)
                                   64.73736 (Kcal/Mol)
 Warning -- explicit consideration of  14 degrees of freedom as
           vibrations may cause significant error
 Vibrational temperatures:     61.93    88.45   139.50   152.08   164.49
          (Kelvin)            247.83   310.72   426.01   430.86   464.50
                              690.12   713.72   801.35   869.56   914.86
                             1089.95  1121.11  1175.89  1197.57  1269.25
                             1383.07  1398.89  1450.20  1485.46  1579.17
                             1693.65  1736.93  1800.60  1900.98  2009.45
                             2111.45  2113.62  2152.75  2161.27  2172.26
                             2336.74  2394.02  2615.22  4419.56  4535.83
                             4589.69  4783.56

 Zero-point correction=                           0.103166 (Hartree/Particle)
 Thermal correction to Energy=                    0.113814
 Thermal correction to Enthalpy=                  0.114758
 Thermal correction to Gibbs Free Energy=         0.065048
 Sum of electronic and zero-point Energies=           -678.294546
 Sum of electronic and thermal Energies=              -678.283898
 Sum of electronic and thermal Enthalpies=            -678.282954
 Sum of electronic and thermal Free Energies=         -678.332664

                     E (Thermal)             CV                S
                      KCal/Mol        Cal/Mol-Kelvin    Cal/Mol-Kelvin
 Total                   71.419             36.407            104.623
 Electronic               0.000              0.000              0.000
 Translational            0.889              2.981             41.335
 Rotational               0.889              2.981             30.724
 Vibrational             69.642             30.445             32.564
 Vibration     1          0.595              1.980              5.114
 Vibration     2          0.597              1.973              4.409
 Vibration     3          0.603              1.951              3.515
 Vibration     4          0.605              1.945              3.346
 Vibration     5          0.607              1.938              3.194
 Vibration     6          0.626              1.877              2.411
 Vibration     7          0.645              1.817              1.993
 Vibration     8          0.690              1.681              1.439
 Vibration     9          0.692              1.675              1.420
 Vibration    10          0.708              1.630              1.296
 Vibration    11          0.836              1.295              0.711
 Vibration    12          0.852              1.259              0.668
 Vibration    13          0.912              1.124              0.530
 Vibration    14          0.963              1.023              0.442

 Optimization completed.
    -- Stationary point found.
 Normal termination of Gaussian 09 at Fri Aug 20 15:50:16 2021.
