 Gaussian 09, Revision E.01,
 Gaussian 09:  ES64L-G09RevE.01 30-Nov-2015

 -------------------------
 #P OPT Freq B3LYP/6-31G**
 -------------------------

 ------
 RIKNOO
 ------
 Symbolic Z-matrix:
 Charge =  0 Multiplicity = 1

 SCF Done:  E(RB3LYP) =  -430.596345577     A.U. after   16 cycles
 SCF Done:  E(RB3LYP) =  -430.683670730     A.U. after   15 cycles
 SCF Done:  E(RB3LYP) =  -430.688655930     A.U. after   17 cycles
 SCF Done:  E(RB3LYP) =  -430.688136464     A.U. after   18 cycles
 SCF Done:  E(RB3LYP) =  -430.696368573     A.U. after   13 cycles
 SCF Done:  E(RB3LYP) =  -430.700266272     A.U. after   13 cycles
 SCF Done:  E(RB3LYP) =  -430.700596352     A.U. after   14 cycles
 SCF Done:  E(RB3LYP) =  -430.700744525     A.U. after   13 cycles
 SCF Done:  E(RB3LYP) =  -430.700774709     A.U. after   12 cycles
 SCF Done:  E(RB3LYP) =  -430.700780601     A.U. after   11 cycles
 SCF Done:  E(RB3LYP) =  -430.700781510     A.U. after   10 cycles
 Optimization completed.
    -- Stationary point found.
 Normal termination of Gaussian 09 at Fri Aug 20 15:35:03 2021.

 ----------------------------------------------------------------------
 #P Geom=AllCheck Guess=TCheck SCRF=Check GenChk RB3LYP/6-31G(d,p) Freq
 ----------------------------------------------------------------------

 Structure from the checkpoint file:  "/public/home/users/caep010/.cache/gau_scr/Gau-162176.chk"
 ------
 RIKNOO
 ------
 Charge =  0 Multiplicity = 1

                         Standard orientation:
 ---------------------------------------------------------------------
 Center     Atomic      Atomic             Coordinates (Angstroms)
 Number     Number       Type             X           Y           Z
 ---------------------------------------------------------------------
      1          7           0        1.962522   -0.701766   -0.000627
      2          7           0        0.693304   -1.124774   -0.000829
      3          6           0        2.091421    0.656600    0.000985
      4          6           0        0.002622    0.010361    0.000124
      5          6           0        0.811076    1.165778    0.000162
      6          7           0       -1.448024   -0.012539    0.000062
      7          8           0       -2.000541    1.090579   -0.001073
      8          8           0       -2.015959   -1.098496    0.001159
      9          1           0        2.699687   -1.391451   -0.000807
     10          1           0        3.057656    1.138234    0.001058
     11          1           0        0.489318    2.193678    0.001188
 ---------------------------------------------------------------------

 SCF Done:  E(RB3LYP) =  -430.700781510     A.U. after    1 cycles

 The electronic state is 1-A.
 Alpha  occ. eigenvalues --  -19.17793 -19.17692 -14.57200 -14.45157 -14.39130
 Alpha  occ. eigenvalues --  -10.27232 -10.26015 -10.22034  -1.22263  -1.08950
 Alpha  occ. eigenvalues --   -1.04934  -0.86996  -0.82175  -0.74644  -0.64461
 Alpha  occ. eigenvalues --   -0.58210  -0.58008  -0.53364  -0.52993  -0.50314
 Alpha  occ. eigenvalues --   -0.47004  -0.46336  -0.45200  -0.33208  -0.30572
 Alpha  occ. eigenvalues --   -0.30436  -0.29709  -0.28780  -0.28417
 Alpha virt. eigenvalues --   -0.08048  -0.00712   0.04995   0.06585   0.10919
 Alpha virt. eigenvalues --    0.14042   0.15437   0.19432   0.23099   0.27043
 Alpha virt. eigenvalues --    0.28352   0.35169   0.36809   0.45399   0.49755

 Mulliken charges:
               1
     1  N   -0.303283
     2  N   -0.308246
     3  C    0.134735
     4  C    0.475567
     5  C   -0.158372
     6  N    0.368598
     7  O   -0.399089
     8  O   -0.378788
     9  H    0.296485
    10  H    0.136759
    11  H    0.135632
 Sum of Mulliken charges =   0.00000

 Dipole moment (field-independent basis, Debye):
    X=              6.3945    Y=              0.9560    Z=              0.0016  Tot=              6.4656
 Quadrupole moment (field-independent basis, Debye-Ang):
   XX=            -38.6614   YY=            -44.8959   ZZ=            -44.2804
   XY=             -1.8636   XZ=              0.0000   YZ=              0.0068

  Exact polarizability:  75.525   0.097  61.786   0.004  -0.000  22.473
 Approx polarizability: 117.073  -2.212 131.727   0.012  -0.018  34.493

                      1                      2                      3
                      A                      A                      A
 Frequencies --     69.8296               221.0962               239.4505
 Red. masses --      7.8201                 6.1389                 7.2170
 Frc consts  --      0.0225                 0.1768                 0.2438
 IR Inten    --      0.4816                 0.3197                 0.7501

                      4                      5                      6
                      A                      A                      A
 Frequencies --    441.2718               541.0397               573.2098
 Red. masses --     10.3803                 8.7957                 2.1452
 Frc consts  --      1.1909                 1.5170                 0.4153
 IR Inten    --      1.7317                 0.5152                47.2744

                      7                      8                      9
                      A                      A                      A
 Frequencies --    630.9900               688.3516               763.5305
 Red. masses --      4.0141                 1.9715                 2.0705
 Frc consts  --      0.9416                 0.5504                 0.7112
 IR Inten    --      0.2603                42.2094                52.4434

                     10                     11                     12
                      A                      A                      A
 Frequencies --    787.2097               833.7865               879.8857
 Red. masses --      2.2595                12.7387                 1.3291
 Frc consts  --      0.8250                 5.2178                 0.6063
 IR Inten    --     13.4263                52.9181                 4.4382

                     13                     14                     15
                      A                      A                      A
 Frequencies --    941.5644               995.7250              1069.3532
 Red. masses --      5.0317                 4.4341                 1.2790
 Frc consts  --      2.6282                 2.5902                 0.8617
 IR Inten    --      1.0947                10.3561                21.1613

                     16                     17                     18
                      A                      A                      A
 Frequencies --   1100.7510              1232.6114              1281.6954
 Red. masses --      2.0977                 2.5840                 3.3865
 Frc consts  --      1.4975                 2.3131                 3.2777
 IR Inten    --     22.3823                19.8280                10.6791

                     19                     20                     21
                      A                      A                      A
 Frequencies --   1410.7217              1426.7037              1459.2533
 Red. masses --      5.0145                 7.2719                 3.6496
 Frc consts  --      5.8797                 8.7209                 4.5788
 IR Inten    --     83.9837               159.6464                18.6821

                     22                     23                     24
                      A                      A                      A
 Frequencies --   1502.3396              1573.8653              1653.8386
 Red. masses --      3.4025                 3.4397                13.4464
 Frc consts  --      4.5246                 5.0200                21.6691
 IR Inten    --     14.7663                 9.8314               206.7049

                     25                     26                     27
                      A                      A                      A
 Frequencies --   3281.7168              3316.2963              3660.4252
 Red. masses --      1.0958                 1.1028                 1.0821
 Frc consts  --      6.9535                 7.1458                 8.5427
 IR Inten    --      0.1301                 4.9775               102.2419

 - Thermochemistry -
 -------------------
 Temperature   298.150 Kelvin.  Pressure   1.00000 Atm.
 Atom     1 has atomic number  7 and mass  14.00307

 Molecular mass:   113.02253 amu.
 Principal axes and moments of inertia in atomic units:
                           1         2         3
     Eigenvalues --   330.294181057.401201387.69488
           X            0.99999   0.00444   0.00001
           Y           -0.00444   0.99999   0.00005
           Z           -0.00001  -0.00005   1.00000
 This molecule is an asymmetric top.
 Rotational symmetry number  1.
 Rotational temperatures (Kelvin)      0.26223     0.08191     0.06242
 Rotational constants (GHZ):           5.46404     1.70677     1.30053
 Zero-point vibrational energy     194850.8 (Joules/Mol)
                                   46.57046 (Kcal/Mol)
 Warning -- explicit consideration of   6 degrees of freedom as
           vibrations may cause significant error
 Vibrational temperatures:    100.47   318.11   344.52   634.89   778.43
          (Kelvin)            824.72   907.85   990.38  1098.55  1132.62
                             1199.63  1265.96  1354.70  1432.62  1538.56
                             1583.73  1773.45  1844.07  2029.71  2052.71
                             2099.54  2161.53  2264.44  2379.50  4721.65
                             4771.40  5266.53

 Zero-point correction=                           0.074215 (Hartree/Particle)
 Thermal correction to Energy=                    0.080268
 Thermal correction to Enthalpy=                  0.081212
 Thermal correction to Gibbs Free Energy=         0.043415
 Sum of electronic and zero-point Energies=           -430.626567
 Sum of electronic and thermal Energies=              -430.620514
 Sum of electronic and thermal Enthalpies=            -430.619570
 Sum of electronic and thermal Free Energies=         -430.657367

                     E (Thermal)             CV                S
                      KCal/Mol        Cal/Mol-Kelvin    Cal/Mol-Kelvin
 Total                   50.369             21.692             79.551
 Electronic               0.000              0.000              0.000
 Translational            0.889              2.981             40.083
 Rotational               0.889              2.981             27.674
 Vibrational             48.591             15.731             11.794
 Vibration     1          0.598              1.969              4.158
 Vibration     2          0.648              1.809              1.950
 Vibration     3          0.657              1.780              1.807
 Vibration     4          0.801              1.380              0.823
 Vibration     5          0.896              1.159              0.563
 Vibration     6          0.929              1.089              0.498

 Normal termination of Gaussian 09 at Fri Aug 20 15:35:14 2021.
