 Gaussian 09, Revision E.01,
 Gaussian 09:  ES64L-G09RevE.01 30-Nov-2015

 -------------------------
 #P OPT Freq B3LYP/6-31G**
 -------------------------

 ------
 DELPEQ
 ------
 Symbolic Z-matrix:
 Charge =  0 Multiplicity = 1

 SCF Done:  E(RB3LYP) =  -663.983281768     A.U. after   16 cycles
 SCF Done:  E(RB3LYP) =  -664.103094936     A.U. after   14 cycles
 SCF Done:  E(RB3LYP) =  -664.183227918     A.U. after   14 cycles
 SCF Done:  E(RB3LYP) =  -664.183748459     A.U. after   14 cycles
 SCF Done:  E(RB3LYP) =  -664.182443538     A.U. after   14 cycles
 SCF Done:  E(RB3LYP) =  -664.184459494     A.U. after   11 cycles
 SCF Done:  E(RB3LYP) =  -664.183460059     A.U. after   15 cycles
 SCF Done:  E(RB3LYP) =  -664.185070988     A.U. after   11 cycles
 SCF Done:  E(RB3LYP) =  -664.185338937     A.U. after   13 cycles
 SCF Done:  E(RB3LYP) =  -664.185426025     A.U. after   12 cycles
 SCF Done:  E(RB3LYP) =  -664.185496457     A.U. after   12 cycles
 SCF Done:  E(RB3LYP) =  -664.185531551     A.U. after   11 cycles
 SCF Done:  E(RB3LYP) =  -664.185556527     A.U. after   10 cycles
 SCF Done:  E(RB3LYP) =  -664.185579428     A.U. after   12 cycles
 SCF Done:  E(RB3LYP) =  -664.185584476     A.U. after   11 cycles
 SCF Done:  E(RB3LYP) =  -664.185585628     A.U. after    9 cycles
 SCF Done:  E(RB3LYP) =  -664.185586013     A.U. after    8 cycles
 SCF Done:  E(RB3LYP) =  -664.185586103     A.U. after    7 cycles
 Optimization completed.
    -- Stationary point found.
 Normal termination of Gaussian 09 at Fri Aug 20 16:03:02 2021.

 ----------------------------------------------------------------------
 #P Geom=AllCheck Guess=TCheck SCRF=Check GenChk RB3LYP/6-31G(d,p) Freq
 ----------------------------------------------------------------------

 Structure from the checkpoint file:  "/public/home/users/caep010/.cache/gau_scr/Gau-186082.chk"
 ------
 DELPEQ
 ------
 Charge =  0 Multiplicity = 1

                         Standard orientation:
 ---------------------------------------------------------------------
 Center     Atomic      Atomic             Coordinates (Angstroms)
 Number     Number       Type             X           Y           Z
 ---------------------------------------------------------------------
      1          8           0       -2.691668    2.296478    0.000578
      2          7           0       -1.615660    1.697392   -0.000101
      3          8           0       -0.519895    2.301056   -0.000941
      4          6           0       -1.620467    0.251327    0.000045
      5          6           0       -0.418952   -0.516539    0.000050
      6          7           0        0.820522    0.061440    0.000417
      7          1           0        0.837778    1.078196   -0.000641
      8          7           0        1.945790   -0.711760    0.000100
      9          6           0       -0.556973   -1.926519   -0.000005
     10          6           0        3.080793   -0.101629    0.000044
     11          1           0        0.349724   -2.516157    0.000016
     12          6           0       -1.803150   -2.521280   -0.000067
     13          1           0       -1.867582   -3.605645   -0.000137
     14          6           0       -2.980683   -1.751636   -0.000059
     15          1           0       -3.954564   -2.228305   -0.000178
     16          6           0       -2.879074   -0.375522   -0.000012
     17          1           0       -3.754493    0.260588   -0.000025
     18          6           0        3.241019    1.400856    0.000316
     19          1           0        4.294951    1.684475    0.000289
     20          1           0        2.770550    1.853101    0.882917
     21          1           0        2.770445    1.853495   -0.882041
     22          6           0        4.316001   -0.956474   -0.000202
     23          1           0        4.936269   -0.745313    0.880127
     24          1           0        4.935719   -0.745571   -0.881003
     25          1           0        4.048049   -2.014139    0.000005
 ---------------------------------------------------------------------

 SCF Done:  E(RB3LYP) =  -664.185586103     A.U. after    1 cycles

 The electronic state is 1-A.
 Alpha  occ. eigenvalues --  -19.17444 -19.17193 -14.56509 -14.39594 -14.37032
 Alpha  occ. eigenvalues --  -10.26217 -10.24550 -10.24117 -10.20949 -10.20849
 Alpha  occ. eigenvalues --  -10.20275 -10.19769 -10.19713 -10.19420  -1.21347
 Alpha  occ. eigenvalues --   -1.04009  -1.02356  -0.89724  -0.85021  -0.80345
 Alpha  occ. eigenvalues --   -0.76602  -0.73857  -0.71493  -0.68837  -0.63098
 Alpha  occ. eigenvalues --   -0.61527  -0.57263  -0.55022  -0.53060  -0.52394
 Alpha  occ. eigenvalues --   -0.50782  -0.49873  -0.47543  -0.46195  -0.45379
 Alpha  occ. eigenvalues --   -0.44515  -0.43086  -0.41757  -0.40829  -0.40429
 Alpha  occ. eigenvalues --   -0.38747  -0.37840  -0.36661  -0.36352  -0.31129
 Alpha  occ. eigenvalues --   -0.30519  -0.29263  -0.28729  -0.27334  -0.27107
 Alpha  occ. eigenvalues --   -0.20964
 Alpha virt. eigenvalues --   -0.08274  -0.02074   0.01059   0.02588   0.08658
 Alpha virt. eigenvalues --    0.09027   0.11993   0.13567   0.13605   0.14448
 Alpha virt. eigenvalues --    0.15037   0.15940   0.15944   0.18435   0.18521

 Mulliken charges:
               1
     1  O   -0.405265
     2  N    0.366178
     3  O   -0.457587
     4  C    0.232946
     5  C    0.354777
     6  N   -0.502585
     7  H    0.304968
     8  N   -0.264429
     9  C   -0.107622
    10  C    0.288917
    11  H    0.124183
    12  C   -0.081353
    13  H    0.098562
    14  C   -0.102256
    15  H    0.094836
    16  C   -0.101628
    17  H    0.135799
    18  C   -0.400420
    19  H    0.121939
    20  H    0.144183
    21  H    0.144158
    22  C   -0.364636
    23  H    0.121772
    24  H    0.121780
    25  H    0.132784
 Sum of Mulliken charges =  -0.00000

 Dipole moment (field-independent basis, Debye):
    X=              2.7399    Y=             -2.5429    Z=             -0.0010  Tot=              3.7381
 Quadrupole moment (field-independent basis, Debye-Ang):
   XX=            -69.3635   YY=            -85.2506   ZZ=            -82.1912
   XY=             10.9579   XZ=              0.0016   YZ=              0.0008

  Exact polarizability: 217.232   6.599 146.868  -0.005   0.001  54.765
 Approx polarizability: 338.426   4.033 249.723  -0.023  -0.002  84.433

                      1                      2                      3
                      A                      A                      A
 Frequencies --     46.1993                56.7436                87.9163
 Red. masses --      3.4614                 4.1696                 6.4970
 Frc consts  --      0.0044                 0.0079                 0.0296
 IR Inten    --      1.0668                 1.0000                 1.4264

                      4                      5                      6
                      A                      A                      A
 Frequencies --     94.4853               128.1156               144.2573
 Red. masses --      4.3995                 1.5485                 2.0101
 Frc consts  --      0.0231                 0.0150                 0.0246
 IR Inten    --      2.0514                 1.7088                 0.6149

                      7                      8                      9
                      A                      A                      A
 Frequencies --    196.9942               247.8936               248.0920
 Red. masses --      1.1427                 4.6348                 4.1211
 Frc consts  --      0.0261                 0.1678                 0.1494
 IR Inten    --      0.5044                 0.6219                 1.7684

                     10                     11                     12
                      A                      A                      A
 Frequencies --    265.2999               332.7084               343.3447
 Red. masses --      4.2888                 3.6173                 4.9564
 Frc consts  --      0.1779                 0.2359                 0.3443
 IR Inten    --      8.6921                 0.0032                 1.3692

                     13                     14                     15
                      A                      A                      A
 Frequencies --    404.5113               435.8123               438.3186
 Red. masses --      6.1886                 3.9078                 3.7503
 Frc consts  --      0.5966                 0.4373                 0.4245
 IR Inten    --      0.0401                 3.7644                 0.2163

                     16                     17                     18
                      A                      A                      A
 Frequencies --    513.7028               532.9490               535.8080
 Red. masses --      3.0047                 5.9119                 3.4831
 Frc consts  --      0.4672                 0.9894                 0.5892
 IR Inten    --      5.4215                12.0399                 2.9051

                     19                     20                     21
                      A                      A                      A
 Frequencies --    601.7583               607.9471               636.0091
 Red. masses --      4.7691                 1.1285                 5.9277
 Frc consts  --      1.0175                 0.2458                 1.4127
 IR Inten    --      4.4161                76.2870                 4.7866

                     22                     23                     24
                      A                      A                      A
 Frequencies --    700.3779               703.6324               749.6967
 Red. masses --      6.8737                 4.6111                 2.8758
 Frc consts  --      1.9866                 1.3451                 0.9523
 IR Inten    --      3.4049                 5.7883                31.0055

                     25                     26                     27
                      A                      A                      A
 Frequencies --    788.0999               820.8479               867.2714
 Red. masses --      1.7482                 4.2091                 6.6596
 Frc consts  --      0.6397                 1.6710                 2.9513
 IR Inten    --     15.3810                 2.7669                10.6843

                     28                     29                     30
                      A                      A                      A
 Frequencies --    882.1435               896.2145               971.0002
 Red. masses --      1.4275                 4.6897                 1.2632
 Frc consts  --      0.6545                 2.2193                 0.7017
 IR Inten    --      2.1876                 8.4636                 0.0237

                     31                     32                     33
                      A                      A                      A
 Frequencies --    976.1079               982.3138              1002.1723
 Red. masses --      1.3062                 1.4097                 1.2840
 Frc consts  --      0.7333                 0.8015                 0.7598
 IR Inten    --      1.2198                 7.7430                 0.6903

                     34                     35                     36
                      A                      A                      A
 Frequencies --   1055.1469              1065.2984              1099.5579
 Red. masses --      2.5252                 2.1156                 1.6643
 Frc consts  --      1.6564                 1.4146                 1.1855
 IR Inten    --     42.7031                 3.0628                 1.7466

                     37                     38                     39
                      A                      A                      A
 Frequencies --   1106.7304              1160.1674              1169.7029
 Red. masses --      3.0156                 2.9885                 1.5464
 Frc consts  --      2.1762                 2.3700                 1.2466
 IR Inten    --     38.2742                36.1451               126.7815

                     40                     41                     42
                      A                      A                      A
 Frequencies --   1189.4485              1248.4601              1277.3269
 Red. masses --      1.2332                 1.7187                 2.9931
 Frc consts  --      1.0280                 1.5783                 2.8772
 IR Inten    --     11.0883                56.1125                26.8483

                     43                     44                     45
                      A                      A                      A
 Frequencies --   1319.5886              1370.3435              1388.9029
 Red. masses --      3.3613                 3.4637                 3.1209
 Frc consts  --      3.4485                 3.8322                 3.5471
 IR Inten    --    244.0174                87.9061               142.3659

                     46                     47                     48
                      A                      A                      A
 Frequencies --   1415.7665              1426.5841              1470.3215
 Red. masses --      1.3082                 1.3485                 1.8784
 Frc consts  --      1.5449                 1.6170                 2.3925
 IR Inten    --     12.3760                 0.9768                46.7038

                     49                     50                     51
                      A                      A                      A
 Frequencies --   1491.0063              1493.0133              1493.0515
 Red. masses --      1.5417                 1.0545                 1.6281
 Frc consts  --      2.0193                 1.3849                 2.1384
 IR Inten    --     13.5660                 8.2167                47.3897

                     52                     53                     54
                      A                      A                      A
 Frequencies --   1501.2880              1505.5354              1558.1296
 Red. masses --      1.0429                 1.2424                 3.3711
 Frc consts  --      1.3849                 1.6591                 4.8220
 IR Inten    --      7.1728                54.7816               310.0771

                     55                     56                     57
                      A                      A                      A
 Frequencies --   1609.0702              1629.5143              1673.8296
 Red. masses --      6.0218                 3.3917                 6.4491
 Frc consts  --      9.1860                 5.3062                10.6456
 IR Inten    --    130.0110               115.0876               289.2483

                     58                     59                     60
                      A                      A                      A
 Frequencies --   1703.3278              3028.2994              3031.9486
 Red. masses --      8.2395                 1.0396                 1.0401
 Frc consts  --     14.0847                 5.6173                 5.6335
 IR Inten    --      6.6253                 8.4433                36.0589

                     61                     62                     63
                      A                      A                      A
 Frequencies --   3080.5619              3082.4259              3143.6139
 Red. masses --      1.1000                 1.1002                 1.0986
 Frc consts  --      6.1506                 6.1588                 6.3964
 IR Inten    --     18.0454                 9.6081                13.8119

                     64                     65                     66
                      A                      A                      A
 Frequencies --   3154.9005              3191.4419              3215.4544
 Red. masses --      1.0994                 1.0886                 1.0927
 Frc consts  --      6.4471                 6.5329                 6.6560
 IR Inten    --     10.7676                10.2619                11.4825

                     67                     68                     69
                      A                      A                      A
 Frequencies --   3248.3638              3250.8915              3500.2845
 Red. masses --      1.0924                 1.0923                 1.0773
 Frc consts  --      6.7914                 6.8015                 7.7765
 IR Inten    --      1.9095                 1.2473                58.8718

 - Thermochemistry -
 -------------------
 Temperature   298.150 Kelvin.  Pressure   1.00000 Atm.
 Atom     1 has atomic number  8 and mass  15.99491

 Molecular mass:   193.08513 amu.
 Principal axes and moments of inertia in atomic units:
                           1         2         3
     Eigenvalues --  1634.823243933.368365545.81762
           X            0.99969   0.02491   0.00000
           Y           -0.02491   0.99969   0.00001
           Z           -0.00000  -0.00001   1.00000
 This molecule is an asymmetric top.
 Rotational symmetry number  1.
 Warning -- assumption of classical behavior for rotation
           may cause significant error
 Rotational temperatures (Kelvin)      0.05298     0.02202     0.01562
 Rotational constants (GHZ):           1.10394     0.45883     0.32542
 Zero-point vibrational energy     517911.5 (Joules/Mol)
                                  123.78382 (Kcal/Mol)
 Warning -- explicit consideration of  20 degrees of freedom as
           vibrations may cause significant error
 Vibrational temperatures:     66.47    81.64   126.49   135.94   184.33
          (Kelvin)            207.55   283.43   356.66   356.95   381.71
                              478.69   494.00   582.00   627.04   630.64
                              739.10   766.79   770.91   865.79   874.70
                              915.07  1007.69  1012.37  1078.65  1133.90
                             1181.02  1247.81  1269.21  1289.45  1397.05
                             1404.40  1413.33  1441.90  1518.12  1532.72
                             1582.02  1592.34  1669.22  1682.94  1711.35
                             1796.25  1837.79  1898.59  1971.62  1998.32
                             2036.97  2052.53  2115.46  2145.22  2148.11
                             2148.17  2160.02  2166.13  2241.80  2315.09
                             2344.50  2408.26  2450.71  4357.04  4362.29
                             4432.24  4434.92  4522.95  4539.19  4591.77
                             4626.32  4673.67  4677.30  5036.12

 Zero-point correction=                           0.197262 (Hartree/Particle)
 Thermal correction to Energy=                    0.210359
 Thermal correction to Enthalpy=                  0.211303
 Thermal correction to Gibbs Free Energy=         0.156974
 Sum of electronic and zero-point Energies=           -663.988324
 Sum of electronic and thermal Energies=              -663.975227
 Sum of electronic and thermal Enthalpies=            -663.974283
 Sum of electronic and thermal Free Energies=         -664.028613

                     E (Thermal)             CV                S
                      KCal/Mol        Cal/Mol-Kelvin    Cal/Mol-Kelvin
 Total                  132.002             49.069            114.347
 Electronic               0.000              0.000              0.000
 Translational            0.889              2.981             41.679
 Rotational               0.889              2.981             31.945
 Vibrational            130.225             43.107             40.722
 Vibration     1          0.595              1.979              4.974
 Vibration     2          0.596              1.975              4.567
 Vibration     3          0.601              1.958              3.706
 Vibration     4          0.603              1.953              3.565
 Vibration     5          0.611              1.925              2.974
 Vibration     6          0.616              1.909              2.747
 Vibration     7          0.636              1.844              2.161
 Vibration     8          0.662              1.766              1.746
 Vibration     9          0.662              1.766              1.744
 Vibration    10          0.671              1.737              1.627
 Vibration    11          0.715              1.610              1.247
 Vibration    12          0.722              1.589              1.197
 Vibration    13          0.770              1.460              0.946
 Vibration    14          0.796              1.392              0.840
 Vibration    15          0.798              1.387              0.832
 Vibration    16          0.869              1.220              0.625
 Vibration    17          0.888              1.177              0.581
 Vibration    18          0.891              1.171              0.574
 Vibration    19          0.960              1.028              0.447
 Vibration    20          0.967              1.015              0.436

 Optimization completed.
    -- Stationary point found.
 Normal termination of Gaussian 09 at Fri Aug 20 16:03:48 2021.
