 Gaussian 09, Revision E.01,
 Gaussian 09:  ES64L-G09RevE.01 30-Nov-2015

 -------------------------
 #P OPT Freq B3LYP/6-31G**
 -------------------------

 ------
 MNIMET
 ------
 Symbolic Z-matrix:
 Charge =  0 Multiplicity = 1

 SCF Done:  E(RB3LYP) =  -623.767709535     A.U. after   16 cycles
 SCF Done:  E(RB3LYP) =  -623.851218693     A.U. after   14 cycles
 SCF Done:  E(RB3LYP) =  -623.885159528     A.U. after   15 cycles
 SCF Done:  E(RB3LYP) =  -623.882773061     A.U. after   15 cycles
 SCF Done:  E(RB3LYP) =  -623.885762930     A.U. after   10 cycles
 SCF Done:  E(RB3LYP) =  -623.885940362     A.U. after   14 cycles
 SCF Done:  E(RB3LYP) =  -623.886357680     A.U. after   14 cycles
 SCF Done:  E(RB3LYP) =  -623.886480122     A.U. after   12 cycles
 SCF Done:  E(RB3LYP) =  -623.886524342     A.U. after   11 cycles
 SCF Done:  E(RB3LYP) =  -623.886578867     A.U. after   12 cycles
 SCF Done:  E(RB3LYP) =  -623.886595846     A.U. after    9 cycles
 SCF Done:  E(RB3LYP) =  -623.886599662     A.U. after    9 cycles
 SCF Done:  E(RB3LYP) =  -623.886600098     A.U. after    8 cycles
 SCF Done:  E(RB3LYP) =  -623.886600272     A.U. after    7 cycles
 SCF Done:  E(RB3LYP) =  -623.886600391     A.U. after    8 cycles
 SCF Done:  E(RB3LYP) =  -623.886600414     A.U. after    7 cycles
 SCF Done:  E(RB3LYP) =  -623.886600439     A.U. after    7 cycles
 Optimization completed.
    -- Stationary point found.
 Normal termination of Gaussian 09 at Fri Aug 20 15:57:42 2021.

 ----------------------------------------------------------------------
 #P Geom=AllCheck Guess=TCheck SCRF=Check GenChk RB3LYP/6-31G(d,p) Freq
 ----------------------------------------------------------------------

 Structure from the checkpoint file:  "/public/home/users/caep010/.cache/gau_scr/Gau-47023.chk"
 ------
 MNIMET
 ------
 Charge =  0 Multiplicity = 1

                         Standard orientation:
 ---------------------------------------------------------------------
 Center     Atomic      Atomic             Coordinates (Angstroms)
 Number     Number       Type             X           Y           Z
 ---------------------------------------------------------------------
      1          7           0        0.282956    0.213094    0.369848
      2          6           0        0.942490    1.388549    0.145426
      3          7           0        0.135408    2.339603   -0.324658
      4          6           0       -1.092906    1.774074   -0.416904
      5          6           0       -1.037102    0.459486    0.000057
      6          7           0       -2.096236   -0.481741    0.036953
      7          8           0       -1.846184   -1.654747    0.363538
      8          8           0       -3.217767   -0.069664   -0.269206
      9          6           0        2.400179    1.587080    0.394249
     10          6           0        0.873477   -1.028109    0.884822
     11          6           0        1.283204   -1.998596   -0.227469
     12          8           0        2.333066   -1.498083   -1.046008
     13          1           0       -1.962826    2.303805   -0.775138
     14          1           0        0.143875   -1.506899    1.536375
     15          1           0        2.991394    0.874735   -0.187101
     16          1           0        2.657703    1.467167    1.453362
     17          1           0        0.424972   -2.174898   -0.879378
     18          1           0        1.548606   -2.959928    0.234699
     19          1           0        1.743671   -0.745786    1.483620
     20          1           0        3.171648   -1.671958   -0.599936
     21          1           0        2.657096    2.602115    0.090819
 ---------------------------------------------------------------------

 SCF Done:  E(RB3LYP) =  -623.886600439     A.U. after    1 cycles

 The electronic state is 1-A.
 Alpha  occ. eigenvalues --  -19.17746 -19.17635 -19.17056 -14.57539 -14.42236
 Alpha  occ. eigenvalues --  -14.33366 -10.27440 -10.27158 -10.25629 -10.25305
 Alpha  occ. eigenvalues --  -10.23248 -10.20866  -1.22121  -1.05075  -1.04455
 Alpha  occ. eigenvalues --   -1.03843  -0.91174  -0.83228  -0.77672  -0.75929
 Alpha  occ. eigenvalues --   -0.67754  -0.66809  -0.61163  -0.57941  -0.55873
 Alpha  occ. eigenvalues --   -0.53663  -0.52344  -0.50814  -0.50052  -0.49064
 Alpha  occ. eigenvalues --   -0.46639  -0.45172  -0.44083  -0.42467  -0.40981
 Alpha  occ. eigenvalues --   -0.40884  -0.40227  -0.35440  -0.31355  -0.31079
 Alpha  occ. eigenvalues --   -0.30613  -0.29345  -0.28699  -0.28039  -0.25185
 Alpha virt. eigenvalues --   -0.08400   0.01558   0.04820   0.06323   0.08643
 Alpha virt. eigenvalues --    0.10981   0.11309   0.13051   0.13713   0.15295
 Alpha virt. eigenvalues --    0.15897   0.16606   0.17516   0.18902   0.19734

 Mulliken charges:
               1
     1  N   -0.483866
     2  C    0.481451
     3  N   -0.478373
     4  C    0.078985
     5  C    0.474803
     6  N    0.335017
     7  O   -0.435993
     8  O   -0.401490
     9  C   -0.395317
    10  C   -0.073389
    11  C    0.043755
    12  O   -0.523639
    13  H    0.135049
    14  H    0.154749
    15  H    0.140630
    16  H    0.128100
    17  H    0.144002
    18  H    0.100784
    19  H    0.109806
    20  H    0.309225
    21  H    0.155712
 Sum of Mulliken charges =  -0.00000

 Dipole moment (field-independent basis, Debye):
    X=              5.1191    Y=             -1.1168    Z=              2.3110  Tot=              5.7266
 Quadrupole moment (field-independent basis, Debye-Ang):
   XX=            -69.2904   YY=            -72.4525   ZZ=            -69.5619
   XY=             -7.0826   XZ=              4.8453   YZ=             -0.7568

  Exact polarizability: 119.516   7.595 105.380   8.880  -9.859  57.385
 Approx polarizability: 188.602  14.202 183.952  16.723 -26.337  91.386

                      1                      2                      3
                      A                      A                      A
 Frequencies --     48.9347                89.8927                94.2088
 Red. masses --      8.0938                 6.1057                 6.0696
 Frc consts  --      0.0114                 0.0291                 0.0317
 IR Inten    --      0.6831                 2.6223                 0.3754

                      4                      5                      6
                      A                      A                      A
 Frequencies --    125.2788               161.8219               166.0331
 Red. masses --      2.7445                 1.1518                 3.1142
 Frc consts  --      0.0254                 0.0178                 0.0506
 IR Inten    --      0.8668                 3.3557                 4.0677

                      7                      8                      9
                      A                      A                      A
 Frequencies --    224.3930               267.4214               291.2497
 Red. masses --      5.5268                 5.6486                 3.1651
 Frc consts  --      0.1640                 0.2380                 0.1582
 IR Inten    --      3.0159                 3.6341                31.1580

                     10                     11                     12
                      A                      A                      A
 Frequencies --    309.2988               357.1808               398.2523
 Red. masses --      1.3186                 2.4808                 3.7491
 Frc consts  --      0.0743                 0.1865                 0.3503
 IR Inten    --    101.8399                20.2813                 7.3406

                     13                     14                     15
                      A                      A                      A
 Frequencies --    422.2370               504.3070               564.8312
 Red. masses --      3.5454                 2.8864                 3.8804
 Frc consts  --      0.3724                 0.4325                 0.7294
 IR Inten    --      0.4246                14.2087                 2.4931

                     16                     17                     18
                      A                      A                      A
 Frequencies --    611.8173               652.4600               690.9145
 Red. masses --      4.4190                 4.0377                 4.7055
 Frc consts  --      0.9746                 1.0127                 1.3234
 IR Inten    --      1.2480                 2.4645                 7.1804

                     19                     20                     21
                      A                      A                      A
 Frequencies --    744.0983               750.0566               833.1614
 Red. masses --      4.0615                 9.8605                12.0035
 Frc consts  --      1.3249                 3.2684                 4.9093
 IR Inten    --      0.4535                13.0468                30.3383

                     22                     23                     24
                      A                      A                      A
 Frequencies --    874.1204               893.4873               958.8078
 Red. masses --      2.5371                 1.4055                 2.3148
 Frc consts  --      1.1422                 0.6611                 1.2538
 IR Inten    --      8.6263                 7.6797                 9.3223

                     25                     26                     27
                      A                      A                      A
 Frequencies --    976.7983              1011.2768              1068.9003
 Red. masses --      2.7294                 1.5795                 1.6076
 Frc consts  --      1.5344                 0.9517                 1.0822
 IR Inten    --     12.2586                13.1340                 4.5916

                     28                     29                     30
                      A                      A                      A
 Frequencies --   1072.4739              1097.2905              1182.7938
 Red. masses --      1.6909                 4.3721                 1.9065
 Frc consts  --      1.1459                 3.1016                 1.5715
 IR Inten    --     14.0438                54.5076                28.7952

                     31                     32                     33
                      A                      A                      A
 Frequencies --   1203.3893              1227.6238              1291.2729
 Red. masses --      1.5321                 2.8875                 1.4752
 Frc consts  --      1.3072                 2.5639                 1.4493
 IR Inten    --     41.8857                64.2707                 7.3148

                     34                     35                     36
                      A                      A                      A
 Frequencies --   1308.9773              1387.3892              1395.1646
 Red. masses --      5.8245                 2.0054                 1.3571
 Frc consts  --      5.8799                 2.2743                 1.5563
 IR Inten    --    157.5005                14.6784                63.1856

                     37                     38                     39
                      A                      A                      A
 Frequencies --   1397.3335              1407.4177              1416.9802
 Red. masses --      1.4015                 1.5374                 1.7058
 Frc consts  --      1.6123                 1.7943                 2.0180
 IR Inten    --     36.0730                37.7342                52.9296

                     40                     41                     42
                      A                      A                      A
 Frequencies --   1429.8897              1469.4952              1481.1099
 Red. masses --      2.1722                 2.3898                 1.1235
 Frc consts  --      2.6167                 3.0405                 1.4522
 IR Inten    --     82.7487               156.7008                26.0066

                     43                     44                     45
                      A                      A                      A
 Frequencies --   1496.8118              1508.7161              1516.7475
 Red. masses --      1.0828                 1.3471                 2.1109
 Frc consts  --      1.4293                 1.8066                 2.8611
 IR Inten    --     20.4652                14.2711                50.4096

                     46                     47                     48
                      A                      A                      A
 Frequencies --   1519.5902              1561.9619              1607.5777
 Red. masses --      2.2391                 4.4705                10.4533
 Frc consts  --      3.0463                 6.4261                15.9165
 IR Inten    --    135.9840                22.2007               200.1003

                     49                     50                     51
                      A                      A                      A
 Frequencies --   3026.5791              3048.2216              3089.4736
 Red. masses --      1.0705                 1.0436                 1.0664
 Frc consts  --      5.7774                 5.7132                 5.9970
 IR Inten    --     47.5326                14.1003                19.0032

                     52                     53                     54
                      A                      A                      A
 Frequencies --   3118.7807              3133.6651              3166.9569
 Red. masses --      1.0942                 1.0949                 1.1002
 Frc consts  --      6.2709                 6.3345                 6.5015
 IR Inten    --      5.7970                17.1240                 1.7492

                     55                     56                     57
                      A                      A                      A
 Frequencies --   3171.2969              3284.5918              3822.9301
 Red. masses --      1.1011                 1.0980                 1.0668
 Frc consts  --      6.5247                 6.9796                 9.1859
 IR Inten    --      1.6285                 0.5669                24.4261

 - Thermochemistry -
 -------------------
 Temperature   298.150 Kelvin.  Pressure   1.00000 Atm.
 Atom     1 has atomic number  7 and mass  14.00307

 Molecular mass:   171.06439 amu.
 Principal axes and moments of inertia in atomic units:
                           1         2         3
     Eigenvalues --  1413.262772124.721013203.23609
           X            0.99977  -0.01769   0.01216
           Y            0.01772   0.99984  -0.00277
           Z           -0.01211   0.00298   0.99992
 This molecule is an asymmetric top.
 Rotational symmetry number  1.
 Warning -- assumption of classical behavior for rotation
           may cause significant error
 Rotational temperatures (Kelvin)      0.06129     0.04076     0.02704
 Rotational constants (GHZ):           1.27700     0.84940     0.56341
 Zero-point vibrational energy     430259.3 (Joules/Mol)
                                  102.83445 (Kcal/Mol)
 Warning -- explicit consideration of  16 degrees of freedom as
           vibrations may cause significant error
 Vibrational temperatures:     70.41   129.34   135.55   180.25   232.83
          (Kelvin)            238.88   322.85   384.76   419.04   445.01
                              513.90   573.00   607.50   725.58   812.67
                              880.27   938.74   994.07  1070.59  1079.16
                             1198.73  1257.66  1285.53  1379.51  1405.39
                             1455.00  1537.91  1543.05  1578.75  1701.77
                             1731.41  1766.27  1857.85  1883.32  1996.14
                             2007.33  2010.45  2024.96  2038.72  2057.29
                             2114.27  2130.98  2153.58  2170.70  2182.26
                             2186.35  2247.31  2312.94  4354.57  4385.71
                             4445.06  4487.22  4508.64  4556.54  4562.78
                             4725.79  5500.34

 Zero-point correction=                           0.163877 (Hartree/Particle)
 Thermal correction to Energy=                    0.175283
 Thermal correction to Enthalpy=                  0.176227
 Thermal correction to Gibbs Free Energy=         0.126063
 Sum of electronic and zero-point Energies=           -623.722723
 Sum of electronic and thermal Energies=              -623.711318
 Sum of electronic and thermal Enthalpies=            -623.710373
 Sum of electronic and thermal Free Energies=         -623.760537

                     E (Thermal)             CV                S
                      KCal/Mol        Cal/Mol-Kelvin    Cal/Mol-Kelvin
 Total                  109.992             41.319            105.579
 Electronic               0.000              0.000              0.000
 Translational            0.889              2.981             41.318
 Rotational               0.889              2.981             30.643
 Vibrational            108.214             35.357             33.618
 Vibration     1          0.595              1.978              4.860
 Vibration     2          0.602              1.956              3.662
 Vibration     3          0.603              1.953              3.571
 Vibration     4          0.610              1.928              3.017
 Vibration     5          0.622              1.889              2.528
 Vibration     6          0.624              1.884              2.480
 Vibration     7          0.649              1.804              1.923
 Vibration     8          0.673              1.733              1.613
 Vibration     9          0.687              1.690              1.467
 Vibration    10          0.699              1.656              1.366
 Vibration    11          0.732              1.561              1.134
 Vibration    12          0.765              1.474              0.969
 Vibration    13          0.785              1.422              0.884
 Vibration    14          0.860              1.240              0.647
 Vibration    15          0.921              1.107              0.514
 Vibration    16          0.971              1.007              0.430

 Optimization completed.
    -- Stationary point found.
 Normal termination of Gaussian 09 at Fri Aug 20 15:58:15 2021.
