 Gaussian 09, Revision E.01,
 Gaussian 09:  ES64L-G09RevE.01 30-Nov-2015

 -------------------------
 #P OPT Freq B3LYP/6-31G**
 -------------------------

 ------
 RAMVUW
 ------
 Symbolic Z-matrix:
 Charge =  0 Multiplicity = 1

 SCF Done:  E(RB3LYP) =  -446.647801918     A.U. after   16 cycles
 SCF Done:  E(RB3LYP) =  -446.711089045     A.U. after   15 cycles
 SCF Done:  E(RB3LYP) =  -446.717425306     A.U. after   15 cycles
 SCF Done:  E(RB3LYP) =  -446.709748032     A.U. after   17 cycles
 SCF Done:  E(RB3LYP) =  -446.717995145     A.U. after   13 cycles
 SCF Done:  E(RB3LYP) =  -446.718335504     A.U. after   13 cycles
 SCF Done:  E(RB3LYP) =  -446.718408055     A.U. after   12 cycles
 SCF Done:  E(RB3LYP) =  -446.718450977     A.U. after   11 cycles
 SCF Done:  E(RB3LYP) =  -446.718452993     A.U. after   10 cycles
 SCF Done:  E(RB3LYP) =  -446.718454162     A.U. after    9 cycles
 Optimization completed.
    -- Stationary point found.
 Normal termination of Gaussian 09 at Fri Aug 20 15:51:11 2021.

 ----------------------------------------------------------------------
 #P Geom=AllCheck Guess=TCheck SCRF=Check GenChk RB3LYP/6-31G(d,p) Freq
 ----------------------------------------------------------------------

 Structure from the checkpoint file:  "/public/home/users/caep010/.cache/gau_scr/Gau-180599.chk"
 ------
 RAMVUW
 ------
 Charge =  0 Multiplicity = 1

                         Standard orientation:
 ---------------------------------------------------------------------
 Center     Atomic      Atomic             Coordinates (Angstroms)
 Number     Number       Type             X           Y           Z
 ---------------------------------------------------------------------
      1          7           0       -2.051402    0.543121    0.000464
      2          6           0       -0.823208    1.095126    0.000135
      3          6           0       -0.002657   -0.011934    0.000002
      4          7           0        1.441385   -0.001674   -0.000109
      5          7           0       -0.741266   -1.149310   -0.000432
      6          7           0       -1.996095   -0.818323   -0.000279
      7          8           0        2.028659   -1.075022    0.000599
      8          8           0        1.966045    1.116390   -0.000473
      9          1           0       -2.952907    1.000710   -0.000184
     10          1           0       -0.617891    2.152490    0.000852
 ---------------------------------------------------------------------

 SCF Done:  E(RB3LYP) =  -446.718454162     A.U. after    1 cycles

 The electronic state is 1-A.
 Alpha  occ. eigenvalues --  -19.19218 -19.18922 -14.58713 -14.46914 -14.43338
 Alpha  occ. eigenvalues --  -14.39823 -10.28804 -10.28729  -1.23678  -1.13935
 Alpha  occ. eigenvalues --   -1.06373  -0.95051  -0.86945  -0.75789  -0.69010
 Alpha  occ. eigenvalues --   -0.63700  -0.59141  -0.54931  -0.54507  -0.52451
 Alpha  occ. eigenvalues --   -0.49916  -0.49556  -0.37979  -0.34830  -0.32149
 Alpha  occ. eigenvalues --   -0.31781  -0.30658  -0.30631  -0.30062
 Alpha virt. eigenvalues --   -0.09286  -0.04258   0.03892   0.04488   0.09555
 Alpha virt. eigenvalues --    0.14300   0.16810   0.20180   0.24855   0.27370
 Alpha virt. eigenvalues --    0.34342   0.37844   0.41439   0.48283   0.49271

 Mulliken charges:
               1
     1  N   -0.319603
     2  C    0.130911
     3  C    0.425692
     4  N    0.370340
     5  N   -0.288309
     6  N   -0.035380
     7  O   -0.364991
     8  O   -0.402942
     9  H    0.306204
    10  H    0.178076
 Sum of Mulliken charges =  -0.00000

 Dipole moment (field-independent basis, Debye):
    X=             -4.5516    Y=              4.2725    Z=              0.0004  Tot=              6.2427
 Quadrupole moment (field-independent basis, Debye-Ang):
   XX=            -43.6078   YY=            -45.4559   ZZ=            -42.7874
   XY=             -8.0094   XZ=              0.0002   YZ=              0.0018

  Exact polarizability:  68.808  -2.308  58.668   0.001  -0.001  21.682
 Approx polarizability: 111.528  -4.333 129.096  -0.001  -0.011  33.682

                      1                      2                      3
                      A                      A                      A
 Frequencies --     75.9739               220.1939               229.3875
 Red. masses --      8.8346                 8.0614                 8.5812
 Frc consts  --      0.0300                 0.2303                 0.2660
 IR Inten    --      8.3540                 0.8270                 4.6982

                      4                      5                      6
                      A                      A                      A
 Frequencies --    440.1420               540.2381               602.6705
 Red. masses --     11.4759                 9.4952                 2.9700
 Frc consts  --      1.3099                 1.6328                 0.6356
 IR Inten    --      1.2371                 1.2873                29.8463

                      7                      8                      9
                      A                      A                      A
 Frequencies --    652.9375               720.7931               764.0600
 Red. masses --      2.0784                 2.8276                 5.3314
 Frc consts  --      0.5221                 0.8655                 1.8338
 IR Inten    --     54.5599                21.5398                18.6125

                     10                     11                     12
                      A                      A                      A
 Frequencies --    835.4381               844.0975               966.9368
 Red. masses --     13.1268                 1.5388                 3.1339
 Frc consts  --      5.3980                 0.6460                 1.7263
 IR Inten    --     52.9973                 9.9054                 3.4832

                     13                     14                     15
                      A                      A                      A
 Frequencies --   1011.5026              1028.3933              1113.7366
 Red. masses --      5.5549                 8.0779                 1.4776
 Frc consts  --      3.3486                 5.0335                 1.0799
 IR Inten    --     10.8871                 1.1045                27.7345

                     16                     17                     18
                      A                      A                      A
 Frequencies --   1272.1722              1324.6965              1363.1843
 Red. masses --      3.6595                11.2123                 3.4393
 Frc consts  --      3.4895                11.5926                 3.7656
 IR Inten    --     17.5976                68.8150                16.8956

                     19                     20                     21
                      A                      A                      A
 Frequencies --   1426.0083              1490.1437              1570.4499
 Red. masses --     11.3092                 3.4805                 4.4175
 Frc consts  --     13.5496                 4.5535                 6.4191
 IR Inten    --    150.4960                34.9624                 4.5753

                     22                     23                     24
                      A                      A                      A
 Frequencies --   1656.5733              3322.4581              3648.9791
 Red. masses --     13.7754                 1.1017                 1.0833
 Frc consts  --     22.2729                 7.1652                 8.4988
 IR Inten    --    230.6515                12.5284               110.0396

 - Thermochemistry -
 -------------------
 Temperature   298.150 Kelvin.  Pressure   1.00000 Atm.
 Atom     1 has atomic number  7 and mass  14.00307

 Molecular mass:   114.01778 amu.
 Principal axes and moments of inertia in atomic units:
                           1         2         3
     Eigenvalues --   322.533311058.641611381.17480
           X            0.99978  -0.02112  -0.00000
           Y            0.02112   0.99978   0.00002
           Z           -0.00000  -0.00002   1.00000
 This molecule is an asymmetric top.
 Rotational symmetry number  1.
 Rotational temperatures (Kelvin)      0.26854     0.08182     0.06271
 Rotational constants (GHZ):           5.59552     1.70477     1.30667
 Zero-point vibrational energy     162220.6 (Joules/Mol)
                                   38.77165 (Kcal/Mol)
 Warning -- explicit consideration of   6 degrees of freedom as
           vibrations may cause significant error
 Vibrational temperatures:    109.31   316.81   330.04   633.27   777.28
          (Kelvin)            867.11   939.43  1037.06  1099.31  1202.01
                             1214.47  1391.20  1455.32  1479.63  1602.42
                             1830.37  1905.94  1961.32  2051.71  2143.98
                             2259.52  2383.44  4780.27  5250.06

 Zero-point correction=                           0.061787 (Hartree/Particle)
 Thermal correction to Energy=                    0.067719
 Thermal correction to Enthalpy=                  0.068663
 Thermal correction to Gibbs Free Energy=         0.031068
 Sum of electronic and zero-point Energies=           -446.656668
 Sum of electronic and thermal Energies=              -446.650735
 Sum of electronic and thermal Enthalpies=            -446.649791
 Sum of electronic and thermal Free Energies=         -446.687386

                     E (Thermal)             CV                S
                      KCal/Mol        Cal/Mol-Kelvin    Cal/Mol-Kelvin
 Total                   42.494             20.791             79.126
 Electronic               0.000              0.000              0.000
 Translational            0.889              2.981             40.109
 Rotational               0.889              2.981             27.647
 Vibrational             40.717             14.829             11.370
 Vibration     1          0.599              1.965              3.992
 Vibration     2          0.647              1.810              1.958
 Vibration     3          0.652              1.796              1.884
 Vibration     4          0.800              1.383              0.826
 Vibration     5          0.895              1.161              0.565
 Vibration     6          0.961              1.026              0.445

 Optimization completed.
    -- Stationary point found.
 Normal termination of Gaussian 09 at Fri Aug 20 15:51:21 2021.
