 Gaussian 09, Revision E.01,
 Gaussian 09:  ES64L-G09RevE.01 30-Nov-2015

 -------------------------
 #P OPT Freq B3LYP/6-31G**
 -------------------------

 ------
 ELOXOS
 ------
 Symbolic Z-matrix:
 Charge =  0 Multiplicity = 1

 SCF Done:  E(RB3LYP) =  -527.955492861     A.U. after   18 cycles
 SCF Done:  E(RB3LYP) =  -528.014958445     A.U. after   14 cycles
 SCF Done:  E(RB3LYP) =  -528.026911891     A.U. after   16 cycles
 SCF Done:  E(RB3LYP) =  -528.026545936     A.U. after   14 cycles
 SCF Done:  E(RB3LYP) =  -528.027090855     A.U. after    9 cycles
 SCF Done:  E(RB3LYP) =  -528.025715581     A.U. after   14 cycles
 SCF Done:  E(RB3LYP) =  -528.027193946     A.U. after   10 cycles
 SCF Done:  E(RB3LYP) =  -528.027245151     A.U. after   11 cycles
 SCF Done:  E(RB3LYP) =  -528.027257633     A.U. after   10 cycles
 SCF Done:  E(RB3LYP) =  -528.027258708     A.U. after   10 cycles
 SCF Done:  E(RB3LYP) =  -528.027258874     A.U. after    9 cycles
 Optimization completed.
    -- Stationary point found.
 Normal termination of Gaussian 09 at Fri Aug 20 15:57:01 2021.

 ----------------------------------------------------------------------
 #P Geom=AllCheck Guess=TCheck SCRF=Check GenChk RB3LYP/6-31G(d,p) Freq
 ----------------------------------------------------------------------

 Structure from the checkpoint file:  "/public/home/users/caep010/.cache/gau_scr/Gau-137506.chk"
 ------
 ELOXOS
 ------
 Charge =  0 Multiplicity = 1

                         Standard orientation:
 ---------------------------------------------------------------------
 Center     Atomic      Atomic             Coordinates (Angstroms)
 Number     Number       Type             X           Y           Z
 ---------------------------------------------------------------------
      1          7           0       -1.377305   -1.131943   -0.000059
      2          6           0       -2.183449    0.045058    0.000001
      3          6           0       -0.029270   -1.159816   -0.000023
      4          6           0       -1.402411    1.272929    0.000086
      5          6           0       -0.041465    1.263145    0.000105
      6          1           0        0.536828    2.179573    0.000151
      7          1           0       -1.967195    2.197150    0.000113
      8          1           0        0.473920   -2.118326   -0.000094
      9          6           0        0.661687    0.022273    0.000038
     10          7           0        2.109822   -0.013193   -0.000007
     11          8           0        2.702084    1.067279   -0.000205
     12          8           0        2.660340   -1.118534    0.000150
     13          8           0       -3.399410   -0.062146   -0.000050
     14          1           0       -1.905833   -1.996767   -0.000106
 ---------------------------------------------------------------------

 SCF Done:  E(RB3LYP) =  -528.027258874     A.U. after    1 cycles

 The electronic state is 1-A.
 Alpha  occ. eigenvalues --  -19.18885 -19.18669 -19.13832 -14.58287 -14.43189
 Alpha  occ. eigenvalues --  -10.31968 -10.29434 -10.26670 -10.24486 -10.22602
 Alpha  occ. eigenvalues --   -1.23169  -1.06499  -1.05845  -0.99402  -0.87277
 Alpha  occ. eigenvalues --   -0.81037  -0.73220  -0.68179  -0.64698  -0.58706
 Alpha  occ. eigenvalues --   -0.55494  -0.54219  -0.52737  -0.51795  -0.49946
 Alpha  occ. eigenvalues --   -0.47683  -0.46775  -0.42944  -0.40831  -0.37554
 Alpha  occ. eigenvalues --   -0.34021  -0.31781  -0.31632  -0.30140  -0.28041
 Alpha  occ. eigenvalues --   -0.25366
 Alpha virt. eigenvalues --   -0.09441  -0.06847   0.00717   0.04289   0.10071
 Alpha virt. eigenvalues --    0.11823   0.12123   0.16081   0.17014   0.18290
 Alpha virt. eigenvalues --    0.24816   0.25572   0.25828   0.26852   0.32106

 Mulliken charges:
               1
     1  N   -0.567366
     2  C    0.588071
     3  C    0.170113
     4  C   -0.169639
     5  C   -0.027720
     6  H    0.151317
     7  H    0.128551
     8  H    0.180720
     9  C    0.184733
    10  N    0.376940
    11  O   -0.396138
    12  O   -0.412960
    13  O   -0.499621
    14  H    0.292999
 Sum of Mulliken charges =  -0.00000

 Dipole moment (field-independent basis, Debye):
    X=             -1.2469    Y=             -1.3837    Z=              0.0001  Tot=              1.8626
 Quadrupole moment (field-independent basis, Debye-Ang):
   XX=            -80.1151   YY=            -46.8056   ZZ=            -55.0009
   XY=              2.1646   XZ=              0.0000   YZ=              0.0014

  Exact polarizability: 120.834   1.877  80.638   0.000  -0.000  28.036
 Approx polarizability: 218.289  10.434 156.432   0.002  -0.004  43.328

                      1                      2                      3
                      A                      A                      A
 Frequencies --     80.9325               103.3604               226.9102
 Red. masses --      8.2178                10.4583                 9.1063
 Frc consts  --      0.0317                 0.0658                 0.2762
 IR Inten    --      0.0308                12.3593                 7.0684

                      4                      5                      6
                      A                      A                      A
 Frequencies --    254.4271               365.9026               406.6371
 Red. masses --      7.3615                12.4620                 3.6228
 Frc consts  --      0.2808                 0.9830                 0.3529
 IR Inten    --      0.0005                 0.5093                 2.4813

                      7                      8                      9
                      A                      A                      A
 Frequencies --    448.5751               472.4157               541.9085
 Red. masses --      7.5884                 2.3029                 6.5383
 Frc consts  --      0.8996                 0.3028                 1.1313
 IR Inten    --      9.1349                24.5319                 1.6331

                     10                     11                     12
                      A                      A                      A
 Frequencies --    632.0408               647.0971               710.6563
 Red. masses --      7.4504                 8.0729                 2.2085
 Frc consts  --      1.7536                 1.9917                 0.6572
 IR Inten    --      1.0227                23.4797                36.1503

                     13                     14                     15
                      A                      A                      A
 Frequencies --    743.5036               761.7539               805.3486
 Red. masses --      1.8257                 4.8882                 5.0583
 Frc consts  --      0.5946                 1.6712                 1.9330
 IR Inten    --     14.6885                42.1083                21.9951

                     16                     17                     18
                      A                      A                      A
 Frequencies --    849.3538               855.4060               955.2119
 Red. masses --      1.7758                11.5333                 1.3915
 Frc consts  --      0.7548                 4.9722                 0.7481
 IR Inten    --     39.9305                10.1392                 2.2036

                     19                     20                     21
                      A                      A                      A
 Frequencies --    998.3674              1017.2360              1124.4434
 Red. masses --      3.2340                 1.2778                 1.5194
 Frc consts  --      1.8992                 0.7791                 1.1319
 IR Inten    --      3.7397                 0.6989                46.9318

                     22                     23                     24
                      A                      A                      A
 Frequencies --   1156.9987              1226.0764              1232.9449
 Red. masses --      2.4816                 1.6433                 2.0297
 Frc consts  --      1.9573                 1.4555                 1.8179
 IR Inten    --     69.5098                 3.7161                91.6293

                     25                     26                     27
                      A                      A                      A
 Frequencies --   1351.0806              1396.8115              1457.7058
 Red. masses --      1.6330                12.5031                 2.1608
 Frc consts  --      1.7563                14.3729                 2.7052
 IR Inten    --      0.8990               497.7216                 0.2887

                     28                     29                     30
                      A                      A                      A
 Frequencies --   1494.2410              1591.3976              1638.1180
 Red. masses --      3.3723                 6.8949                 9.4495
 Frc consts  --      4.4362                10.2882                14.9400
 IR Inten    --     16.8761                12.7676               145.1676

                     31                     32                     33
                      A                      A                      A
 Frequencies --   1682.7537              1807.2943              3231.3173
 Red. masses --      6.3987                 8.9888                 1.0884
 Frc consts  --     10.6754                17.2986                 6.6957
 IR Inten    --    131.6932               554.5858                 0.7217

                     34                     35                     36
                      A                      A                      A
 Frequencies --   3243.5656              3253.4799              3602.4955
 Red. masses --      1.0967                 1.0945                 1.0786
 Frc consts  --      6.7980                 6.8258                 8.2471
 IR Inten    --      1.4493                 5.4941                84.0329

 - Thermochemistry -
 -------------------
 Temperature   298.150 Kelvin.  Pressure   1.00000 Atm.
 Atom     1 has atomic number  7 and mass  14.00307

 Molecular mass:   140.02219 amu.
 Principal axes and moments of inertia in atomic units:
                           1         2         3
     Eigenvalues --   461.357542134.905382596.26292
           X            1.00000  -0.00076   0.00000
           Y            0.00076   1.00000   0.00001
           Z           -0.00000  -0.00001   1.00000
 This molecule is an asymmetric top.
 Rotational symmetry number  1.
 Warning -- assumption of classical behavior for rotation
           may cause significant error
 Rotational temperatures (Kelvin)      0.18774     0.04057     0.03336
 Rotational constants (GHZ):           3.91181     0.84535     0.69513
 Zero-point vibrational energy     253415.5 (Joules/Mol)
                                   60.56777 (Kcal/Mol)
 Warning -- explicit consideration of   9 degrees of freedom as
           vibrations may cause significant error
 Vibrational temperatures:    116.44   148.71   326.47   366.06   526.45
          (Kelvin)            585.06   645.40   679.70   779.68   909.36
                              931.03  1022.47  1069.73  1095.99  1158.72
                             1222.03  1230.74  1374.34  1436.43  1463.57
                             1617.82  1664.66  1764.05  1773.93  1943.90
                             2009.70  2097.31  2149.88  2289.66  2356.88
                             2421.10  2600.29  4649.14  4666.76  4681.03
                             5183.18

 Zero-point correction=                           0.096521 (Hartree/Particle)
 Thermal correction to Energy=                    0.104211
 Thermal correction to Enthalpy=                  0.105155
 Thermal correction to Gibbs Free Energy=         0.063483
 Sum of electronic and zero-point Energies=           -527.930738
 Sum of electronic and thermal Energies=              -527.923048
 Sum of electronic and thermal Enthalpies=            -527.922104
 Sum of electronic and thermal Free Energies=         -527.963776

                     E (Thermal)             CV                S
                      KCal/Mol        Cal/Mol-Kelvin    Cal/Mol-Kelvin
 Total                   65.393             28.799             87.705
 Electronic               0.000              0.000              0.000
 Translational            0.889              2.981             40.721
 Rotational               0.889              2.981             29.327
 Vibrational             63.616             22.838             17.657
 Vibration     1          0.600              1.962              3.868
 Vibration     2          0.605              1.947              3.390
 Vibration     3          0.651              1.800              1.903
 Vibration     4          0.665              1.755              1.700
 Vibration     5          0.739              1.542              1.097
 Vibration     6          0.771              1.456              0.939
 Vibration     7          0.808              1.364              0.800
 Vibration     8          0.829              1.311              0.731
 Vibration     9          0.897              1.157              0.561

 Optimization completed.
    -- Stationary point found.
 Normal termination of Gaussian 09 at Fri Aug 20 15:57:17 2021.
