 Gaussian 09, Revision E.01,
 Gaussian 09:  ES64L-G09RevE.01 30-Nov-2015

 --------------------------------
 #P OPT=calcfc Freq B3LYP/6-31G**
 --------------------------------

 ------
 BAZPUO
 ------
 Symbolic Z-matrix:
 Charge =  0 Multiplicity = 1

 SCF Done:  E(RB3LYP) =  -685.055379302     A.U. after   16 cycles
 SCF Done:  E(RB3LYP) =  -685.169415449     A.U. after   14 cycles
 SCF Done:  E(RB3LYP) =  -685.250876432     A.U. after   15 cycles
 SCF Done:  E(RB3LYP) =  -685.251995935     A.U. after   15 cycles
 SCF Done:  E(RB3LYP) =  -685.249232399     A.U. after   15 cycles
 SCF Done:  E(RB3LYP) =  -685.251997977     A.U. after    9 cycles
 SCF Done:  E(RB3LYP) =  -685.252400874     A.U. after   12 cycles
 SCF Done:  E(RB3LYP) =  -685.252186482     A.U. after   11 cycles
 SCF Done:  E(RB3LYP) =  -685.252437716     A.U. after   14 cycles
 SCF Done:  E(RB3LYP) =  -685.252450638     A.U. after   16 cycles
 SCF Done:  E(RB3LYP) =  -685.252454595     A.U. after   12 cycles
 SCF Done:  E(RB3LYP) =  -685.252456126     A.U. after   11 cycles
 SCF Done:  E(RB3LYP) =  -685.252456950     A.U. after   12 cycles
 SCF Done:  E(RB3LYP) =  -685.252457395     A.U. after   11 cycles
 SCF Done:  E(RB3LYP) =  -685.252457494     A.U. after   11 cycles
 SCF Done:  E(RB3LYP) =  -685.252457524     A.U. after   10 cycles
 Optimization completed.
    -- Stationary point found.
 Normal termination of Gaussian 09 at Sat Aug 21 02:24:22 2021.

 ----------------------------------------------------------------------
 #P Geom=AllCheck Guess=TCheck SCRF=Check GenChk RB3LYP/6-31G(d,p) Freq
 ----------------------------------------------------------------------

 Structure from the checkpoint file:  "/public/home/users/caep010/.cache/gau_scr/Gau-149291.chk"
 ------
 BAZPUO
 ------
 Charge =  0 Multiplicity = 1

                         Standard orientation:
 ---------------------------------------------------------------------
 Center     Atomic      Atomic             Coordinates (Angstroms)
 Number     Number       Type             X           Y           Z
 ---------------------------------------------------------------------
      1          7           0        2.893195   -0.167493    0.010521
      2          6           0        3.494593    1.155758    0.009926
      3          6           0        1.525413   -0.310510    0.005192
      4          6           0        0.678600    0.821359   -0.002024
      5          1           0        4.579927    1.057111    0.023473
      6          1           0        1.113952    1.808048   -0.010281
      7          6           0       -0.714703    0.708320   -0.001887
      8          8           0       -1.526662    1.785996   -0.019671
      9          6           0       -1.293708   -0.588504    0.002498
     10          7           0       -2.727010   -0.833956    0.010464
     11          8           0       -3.101827   -2.009756   -0.107328
     12          8           0       -3.500889    0.115612    0.138828
     13          6           0       -0.453144   -1.706438    0.001827
     14          1           0       -0.925999   -2.680072   -0.000194
     15          6           0        0.922084   -1.593020    0.005281
     16          1           0        1.522975   -2.492107    0.010078
     17          1           0        3.198594    1.738079    0.892580
     18          1           0        3.219518    1.730139   -0.884973
     19          6           0        3.749208   -1.344653    0.005509
     20          1           0        4.792176   -1.028368    0.008199
     21          1           0        3.583958   -1.971625    0.890921
     22          1           0        3.585718   -1.963543   -0.885980
     23          6           0       -0.957760    3.087358   -0.046934
     24          1           0       -0.349927    3.282211    0.845171
     25          1           0       -1.805153    3.773014   -0.061964
     26          1           0       -0.347512    3.244405   -0.944899
 ---------------------------------------------------------------------

 SCF Done:  E(RB3LYP) =  -685.252457524     A.U. after    1 cycles

 The electronic state is 1-A.
 Alpha  occ. eigenvalues --  -19.18969 -19.14630 -19.14432 -14.54236 -14.37855
 Alpha  occ. eigenvalues --  -10.27292 -10.25097 -10.24963 -10.23867 -10.23666
 Alpha  occ. eigenvalues --  -10.22607 -10.20256 -10.19492 -10.19164  -1.18971
 Alpha  occ. eigenvalues --   -1.07960  -1.01384  -0.97012  -0.86436  -0.79144
 Alpha  occ. eigenvalues --   -0.76804  -0.74604  -0.71880  -0.70895  -0.63996
 Alpha  occ. eigenvalues --   -0.60989  -0.58235  -0.55015  -0.51827  -0.51805
 Alpha  occ. eigenvalues --   -0.50293  -0.50017  -0.48392  -0.47549  -0.47291
 Alpha  occ. eigenvalues --   -0.46326  -0.45193  -0.42895  -0.42797  -0.41981
 Alpha  occ. eigenvalues --   -0.41316  -0.39901  -0.38838  -0.36362  -0.34405
 Alpha  occ. eigenvalues --   -0.34232  -0.29511  -0.27520  -0.27508  -0.25367
 Alpha  occ. eigenvalues --   -0.23952  -0.21038
 Alpha virt. eigenvalues --   -0.05671  -0.00006   0.02960   0.06575   0.08554
 Alpha virt. eigenvalues --    0.10046   0.10057   0.11659   0.13317   0.13860
 Alpha virt. eigenvalues --    0.14855   0.15048   0.15495   0.15581   0.16925

 Mulliken charges:
               1
     1  N   -0.515861
     2  C   -0.170528
     3  C    0.376786
     4  C   -0.210773
     5  H    0.116460
     6  H    0.085082
     7  C    0.350704
     8  O   -0.485410
     9  C    0.232426
    10  N    0.353797
    11  O   -0.426633
    12  O   -0.401859
    13  C   -0.115124
    14  H    0.135415
    15  C   -0.145866
    16  H    0.087521
    17  H    0.125223
    18  H    0.124550
    19  C   -0.171755
    20  H    0.114843
    21  H    0.128698
    22  H    0.128622
    23  C   -0.081857
    24  H    0.114048
    25  H    0.138009
    26  H    0.113484
 Sum of Mulliken charges =  -0.00000

 Dipole moment (field-independent basis, Debye):
    X=              8.4975    Y=              2.6645    Z=             -0.0420  Tot=              8.9056
 Quadrupole moment (field-independent basis, Debye-Ang):
   XX=            -87.5346   YY=            -72.0851   ZZ=            -82.4975
   XY=             -6.1226   XZ=              0.2226   YZ=             -0.6266

  Exact polarizability: 192.737   0.219 140.034  -0.217   0.941  60.355
 Approx polarizability: 301.450  -2.778 233.716  -1.001   4.446  91.666

                      1                      2                      3
                      A                      A                      A
 Frequencies --     11.2979                48.7123                53.4586
 Red. masses --     11.6212                 3.0492                 2.5069
 Frc consts  --      0.0009                 0.0043                 0.0042
 IR Inten    --      0.2232                 0.3740                 1.4316

                      4                      5                      6
                      A                      A                      A
 Frequencies --     87.5173               102.8885               164.7345
 Red. masses --      2.4177                 2.9270                 1.6119
 Frc consts  --      0.0109                 0.0183                 0.0258
 IR Inten    --      1.3400                 3.0257                 0.1422

                      7                      8                      9
                      A                      A                      A
 Frequencies --    171.6536               203.3701               210.2035
 Red. masses --      3.5329                 1.3624                 5.3294
 Frc consts  --      0.0613                 0.0332                 0.1387
 IR Inten    --      0.7779                 2.9838                 0.7002

                     10                     11                     12
                      A                      A                      A
 Frequencies --    240.3535               292.1963               304.1524
 Red. masses --      1.4267                 1.7064                 4.6780
 Frc consts  --      0.0486                 0.0858                 0.2550
 IR Inten    --      1.8275                 0.6598                 0.6129

                     13                     14                     15
                      A                      A                      A
 Frequencies --    310.0593               319.2847               408.0364
 Red. masses --      4.4617                 4.1916                 6.9824
 Frc consts  --      0.2527                 0.2518                 0.6849
 IR Inten    --      0.2963                 0.0915                 1.3870

                     16                     17                     18
                      A                      A                      A
 Frequencies --    448.1236               466.3593               485.1826
 Red. masses --      3.9993                 3.1016                 3.8599
 Frc consts  --      0.4732                 0.3974                 0.5353
 IR Inten    --      4.0121                 0.9165                 3.3036

                     19                     20                     21
                      A                      A                      A
 Frequencies --    563.7725               610.2026               649.9788
 Red. masses --      5.2225                 4.7777                 5.4211
 Frc consts  --      0.9780                 1.0481                 1.3494
 IR Inten    --      2.6918                 7.1028                 1.1225

                     22                     23                     24
                      A                      A                      A
 Frequencies --    653.3152               689.7031               721.8616
 Red. masses --      4.8141                 2.5462                 6.1183
 Frc consts  --      1.2106                 0.7136                 1.8784
 IR Inten    --      0.8428                 2.4601                 8.6040

                     25                     26                     27
                      A                      A                      A
 Frequencies --    748.8980               809.6793               819.2881
 Red. masses --      4.6178                 1.7359                 1.8617
 Frc consts  --      1.5259                 0.6705                 0.7362
 IR Inten    --     20.2351                 0.7121                50.9678

                     28                     29                     30
                      A                      A                      A
 Frequencies --    849.7831               903.6419               976.8486
 Red. masses --      9.0180                 5.1968                 1.2834
 Frc consts  --      3.8369                 2.5002                 0.7215
 IR Inten    --     30.7430                 0.1175                 1.6006

                     31                     32                     33
                      A                      A                      A
 Frequencies --   1010.0263              1060.2102              1085.2945
 Red. masses --      2.6849                 5.6929                 1.5313
 Frc consts  --      1.6138                 3.7702                 1.0627
 IR Inten    --     11.9725                43.2652                27.4200

                     34                     35                     36
                      A                      A                      A
 Frequencies --   1123.5013              1141.4389              1149.5376
 Red. masses --      3.1346                 1.3081                 1.2339
 Frc consts  --      2.3312                 1.0041                 0.9607
 IR Inten    --    115.7288                 0.0849                 0.0127

                     37                     38                     39
                      A                      A                      A
 Frequencies --   1174.6204              1192.4857              1210.4189
 Red. masses --      1.2726                 1.5258                 1.4337
 Frc consts  --      1.0345                 1.2784                 1.2376
 IR Inten    --      0.6234                 5.3226                12.5706

                     40                     41                     42
                      A                      A                      A
 Frequencies --   1221.7323              1279.3464              1299.3828
 Red. masses --      1.5542                 3.1041                 2.6124
 Frc consts  --      1.3668                 2.9934                 2.5987
 IR Inten    --     16.2147                55.9643               121.4454

                     43                     44                     45
                      A                      A                      A
 Frequencies --   1317.3361              1358.8818              1390.9422
 Red. masses --      1.9769                 8.6458                 7.3297
 Frc consts  --      2.0213                 9.4063                 8.3551
 IR Inten    --    127.4589               822.8553               115.5932

                     46                     47                     48
                      A                      A                      A
 Frequencies --   1415.9571              1454.4493              1471.7605
 Red. masses --      3.3206                 1.3071                 1.5384
 Frc consts  --      3.9226                 1.6291                 1.9633
 IR Inten    --     17.2280                 6.9311                 8.3401

                     49                     50                     51
                      A                      A                      A
 Frequencies --   1492.1276              1493.0157              1502.2650
 Red. masses --      1.2812                 1.0396                 1.0446
 Frc consts  --      1.6806                 1.3653                 1.3890
 IR Inten    --     36.2840                 0.1821                 7.7361

                     52                     53                     54
                      A                      A                      A
 Frequencies --   1507.5728              1512.7666              1515.3886
 Red. masses --      1.0475                 1.4655                 1.1158
 Frc consts  --      1.4027                 1.9760                 1.5097
 IR Inten    --     10.0634                31.2507                16.1488

                     55                     56                     57
                      A                      A                      A
 Frequencies --   1531.9629              1545.4105              1559.6145
 Red. masses --      1.1397                 1.2812                 2.1998
 Frc consts  --      1.5760                 1.8028                 3.1526
 IR Inten    --      4.5422                25.5072               103.6520

                     58                     59                     60
                      A                      A                      A
 Frequencies --   1583.0275              1638.4638              1664.7527
 Red. masses --      8.4163                 8.5984                 5.8970
 Frc consts  --     12.4265                13.6001                 9.6289
 IR Inten    --     65.6666               269.3114               505.8466

                     61                     62                     63
                      A                      A                      A
 Frequencies --   3009.5672              3020.1728              3020.7698
 Red. masses --      1.0384                 1.0361                 1.0389
 Frc consts  --      5.5415                 5.5680                 5.5852
 IR Inten    --     64.8184                60.2699                50.6012

                     64                     65                     66
                      A                      A                      A
 Frequencies --   3057.1394              3068.1377              3085.6319
 Red. masses --      1.1042                 1.1050                 1.1064
 Frc consts  --      6.0804                 6.1284                 6.2065
 IR Inten    --     30.5958                35.6558                37.5989

                     67                     68                     69
                      A                      A                      A
 Frequencies --   3146.8063              3159.3204              3159.7847
 Red. masses --      1.0978                 1.0956                 1.0997
 Frc consts  --      6.4052                 6.4428                 6.4690
 IR Inten    --      2.0343                38.9503                10.1368

                     70                     71                     72
                      A                      A                      A
 Frequencies --   3237.3436              3250.2672              3272.1560
 Red. masses --      1.0872                 1.0939                 1.0876
 Frc consts  --      6.7135                 6.8086                 6.8612
 IR Inten    --      3.6546                 4.6787                 3.5303

 - Thermochemistry -
 -------------------
 Temperature   298.150 Kelvin.  Pressure   1.00000 Atm.
 Atom     1 has atomic number  7 and mass  14.00307

 Molecular mass:   196.08479 amu.
 Principal axes and moments of inertia in atomic units:
                           1         2         3
     Eigenvalues --  1558.856913960.647355481.38318
           X            0.99988  -0.01580   0.00029
           Y            0.01580   0.99987  -0.00129
           Z           -0.00027   0.00130   1.00000
 This molecule is an asymmetric top.
 Rotational symmetry number  1.
 Warning -- assumption of classical behavior for rotation
           may cause significant error
 Rotational temperatures (Kelvin)      0.05556     0.02187     0.01580
 Rotational constants (GHZ):           1.15773     0.45567     0.32925
 Zero-point vibrational energy     548579.6 (Joules/Mol)
                                  131.11367 (Kcal/Mol)
 Warning -- explicit consideration of  20 degrees of freedom as
           vibrations may cause significant error
 Vibrational temperatures:     16.26    70.09    76.91   125.92   148.03
          (Kelvin)            237.02   246.97   292.60   302.44   345.81
                              420.40   437.61   446.11   459.38   587.07
                              644.75   670.99   698.07   811.14   877.94
                              935.17   939.97   992.33  1038.60  1077.50
                             1164.95  1178.77  1222.65  1300.14  1405.47
                             1453.20  1525.40  1561.49  1616.47  1642.27
                             1653.93  1690.01  1715.72  1741.52  1757.80
                             1840.69  1869.52  1895.35  1955.13  2001.25
                             2037.24  2092.63  2117.53  2146.84  2148.11
                             2161.42  2169.06  2176.53  2180.30  2204.15
                             2223.50  2243.93  2277.62  2357.38  2395.20
                             4330.09  4345.35  4346.21  4398.54  4414.36
                             4439.53  4527.55  4545.55  4546.22  4657.81
                             4676.40  4707.90

 Zero-point correction=                           0.208943 (Hartree/Particle)
 Thermal correction to Energy=                    0.222941
 Thermal correction to Enthalpy=                  0.223886
 Thermal correction to Gibbs Free Energy=         0.166012
 Sum of electronic and zero-point Energies=           -685.043515
 Sum of electronic and thermal Energies=              -685.029516
 Sum of electronic and thermal Enthalpies=            -685.028572
 Sum of electronic and thermal Free Energies=         -685.086445

                     E (Thermal)             CV                S
                      KCal/Mol        Cal/Mol-Kelvin    Cal/Mol-Kelvin
 Total                  139.898             50.421            121.805
 Electronic               0.000              0.000              0.000
 Translational            0.889              2.981             41.725
 Rotational               0.889              2.981             31.893
 Vibrational            138.120             44.459             48.187
 Vibration     1          0.593              1.987              7.769
 Vibration     2          0.595              1.978              4.869
 Vibration     3          0.596              1.976              4.685
 Vibration     4          0.601              1.958              3.715
 Vibration     5          0.605              1.947              3.399
 Vibration     6          0.623              1.886              2.495
 Vibration     7          0.626              1.877              2.417
 Vibration     8          0.639              1.835              2.102
 Vibration     9          0.642              1.825              2.042
 Vibration    10          0.657              1.779              1.800
 Vibration    11          0.688              1.688              1.461
 Vibration    12          0.695              1.666              1.394
 Vibration    13          0.699              1.655              1.362
 Vibration    14          0.705              1.637              1.314
 Vibration    15          0.773              1.453              0.934
 Vibration    16          0.807              1.365              0.801
 Vibration    17          0.824              1.325              0.748
 Vibration    18          0.841              1.283              0.696
 Vibration    19          0.920              1.110              0.516
 Vibration    20          0.969              1.010              0.432

 Optimization completed.
    -- Stationary point found.
 Normal termination of Gaussian 09 at Sat Aug 21 02:25:12 2021.
