 Gaussian 09, Revision E.01,
 Gaussian 09:  ES64L-G09RevE.01 30-Nov-2015

 -------------------------
 #P OPT Freq B3LYP/6-31G**
 -------------------------

 --------
 ZZZJIQ02
 --------
 Symbolic Z-matrix:
 Charge =  0 Multiplicity = 1

 SCF Done:  E(RB3LYP) =  -531.268607575     A.U. after   15 cycles
 SCF Done:  E(RB3LYP) =  -531.377365470     A.U. after   13 cycles
 SCF Done:  E(RB3LYP) =  -531.432012336     A.U. after   14 cycles
 SCF Done:  E(RB3LYP) =  -531.432969017     A.U. after   14 cycles
 SCF Done:  E(RB3LYP) =  -531.424339108     A.U. after   15 cycles
 SCF Done:  E(RB3LYP) =  -531.433157840     A.U. after   11 cycles
 SCF Done:  E(RB3LYP) =  -531.433356492     A.U. after   12 cycles
 SCF Done:  E(RB3LYP) =  -531.433375311     A.U. after   10 cycles
 SCF Done:  E(RB3LYP) =  -531.433378264     A.U. after    8 cycles
 SCF Done:  E(RB3LYP) =  -531.433390068     A.U. after   11 cycles
 SCF Done:  E(RB3LYP) =  -531.434129433     A.U. after   17 cycles
 SCF Done:  E(RB3LYP) =  -531.434549098     A.U. after   11 cycles
 SCF Done:  E(RB3LYP) =  -531.434115825     A.U. after   16 cycles
 SCF Done:  E(RB3LYP) =  -531.434550164     A.U. after    9 cycles
 SCF Done:  E(RB3LYP) =  -531.434548350     A.U. after   13 cycles
 SCF Done:  E(RB3LYP) =  -531.434546168     A.U. after   12 cycles
 SCF Done:  E(RB3LYP) =  -531.434555266     A.U. after   13 cycles
 SCF Done:  E(RB3LYP) =  -531.434555855     A.U. after    9 cycles
 SCF Done:  E(RB3LYP) =  -531.434555894     A.U. after    9 cycles
 Optimization completed.
    -- Stationary point found.
 Normal termination of Gaussian 09 at Sat Aug 21 01:47:06 2021.

 ----------------------------------------------------------------------
 #P Geom=AllCheck Guess=TCheck SCRF=Check GenChk RB3LYP/6-31G(d,p) Freq
 ----------------------------------------------------------------------

 Structure from the checkpoint file:  "/public/home/users/caep010/.cache/gau_scr/Gau-182516.chk"
 --------
 ZZZJIQ02
 --------
 Charge =  0 Multiplicity = 1

                         Standard orientation:
 ---------------------------------------------------------------------
 Center     Atomic      Atomic             Coordinates (Angstroms)
 Number     Number       Type             X           Y           Z
 ---------------------------------------------------------------------
      1          6           0       -1.999681   -0.313076    0.024749
      2          7           0       -3.179927   -1.044852    0.110166
      3          6           0       -0.755347   -0.950589    0.022097
      4          6           0        0.422689   -0.203357    0.003798
      5          7           0        1.670554   -0.991520    0.006636
      6          8           0        2.737097   -0.400798    0.183291
      7          8           0        1.584365   -2.209139   -0.163918
      8          6           0        0.441975    1.204604   -0.021337
      9          6           0       -0.824519    1.810267   -0.028658
     10          6           0        1.671355    2.079322   -0.054007
     11          6           0       -2.012906    1.092166   -0.002531
     12          1           0       -3.120219   -2.007211   -0.191450
     13          1           0       -4.007391   -0.583215   -0.240079
     14          1           0       -0.678601   -2.030569    0.035613
     15          1           0        1.370409    3.124598   -0.166165
     16          1           0        2.340365    1.817212   -0.877478
     17          1           0        2.262365    1.980591    0.860082
     18          1           0       -0.872280    2.895026   -0.056863
     19          1           0       -2.962131    1.621646   -0.000916
 ---------------------------------------------------------------------

 SCF Done:  E(RB3LYP) =  -531.434555894     A.U. after    1 cycles

 The electronic state is 1-A.
 Alpha  occ. eigenvalues --  -19.17250 -19.17124 -14.56336 -14.35735 -10.24796
 Alpha  occ. eigenvalues --  -10.24663 -10.21679 -10.20645 -10.20526 -10.20432
 Alpha  occ. eigenvalues --  -10.18503  -1.21509  -1.04094  -0.93640  -0.87180
 Alpha  occ. eigenvalues --   -0.79423  -0.77236  -0.71179  -0.67320  -0.61723
 Alpha  occ. eigenvalues --   -0.59252  -0.54761  -0.53347  -0.52188  -0.50069
 Alpha  occ. eigenvalues --   -0.49523  -0.46972  -0.45529  -0.43749  -0.41980
 Alpha  occ. eigenvalues --   -0.39308  -0.39040  -0.37514  -0.36755  -0.32014
 Alpha  occ. eigenvalues --   -0.30061  -0.29780  -0.28122  -0.27017  -0.21886
 Alpha virt. eigenvalues --   -0.07919  -0.00530   0.01105   0.06760   0.09289
 Alpha virt. eigenvalues --    0.10684   0.12766   0.14269   0.14914   0.16171
 Alpha virt. eigenvalues --    0.18217   0.19969   0.20981   0.22859   0.26093

 Mulliken charges:
               1
     1  C    0.276584
     2  N   -0.659500
     3  C   -0.124293
     4  C    0.192841
     5  N    0.375564
     6  O   -0.402870
     7  O   -0.401224
     8  C    0.112452
     9  C   -0.139280
    10  C   -0.344023
    11  C   -0.087948
    12  H    0.265308
    13  H    0.261978
    14  H    0.126034
    15  H    0.094938
    16  H    0.134266
    17  H    0.141243
    18  H    0.091670
    19  H    0.086260
 Sum of Mulliken charges =  -0.00000

 Dipole moment (field-independent basis, Debye):
    X=             -4.8533    Y=              1.7899    Z=             -1.0085  Tot=              5.2702
 Quadrupole moment (field-independent basis, Debye-Ang):
   XX=            -59.5456   YY=            -60.5998   ZZ=            -64.8056
   XY=              6.9409   XZ=              3.4515   YZ=              0.7128

  Exact polarizability: 131.844   6.237 113.919   0.935   0.683  39.616
 Approx polarizability: 214.977  15.272 206.392   2.517   3.434  61.507

                      1                      2                      3
                      A                      A                      A
 Frequencies --     26.0719               124.4638               171.4077
 Red. masses --      9.1452                 3.4117                 4.8061
 Frc consts  --      0.0037                 0.0311                 0.0832
 IR Inten    --      0.0518                 2.6781                 0.9815

                      4                      5                      6
                      A                      A                      A
 Frequencies --    233.8708               238.4319               306.6232
 Red. masses --      4.1945                 1.1459                 1.0497
 Frc consts  --      0.1352                 0.0384                 0.0581
 IR Inten    --      1.7140                 0.5370                17.9081

                      7                      8                      9
                      A                      A                      A
 Frequencies --    326.4095               331.1048               394.2122
 Red. masses --      3.5676                 3.5310                 5.6695
 Frc consts  --      0.2240                 0.2281                 0.5191
 IR Inten    --      2.1789                 2.7967                 0.1325

                     10                     11                     12
                      A                      A                      A
 Frequencies --    412.3221               444.3215               482.1155
 Red. masses --      4.8824                 3.3786                 6.0436
 Frc consts  --      0.4891                 0.3930                 0.8277
 IR Inten    --      0.4744                 0.8529                 5.0142

                     13                     14                     15
                      A                      A                      A
 Frequencies --    535.6739               553.4847               587.9456
 Red. masses --      1.7571                 2.8300                 3.0027
 Frc consts  --      0.2971                 0.5108                 0.6116
 IR Inten    --    228.9331                84.1128                74.4628

                     16                     17                     18
                      A                      A                      A
 Frequencies --    689.8686               703.4173               767.7324
 Red. masses --      3.3466                 7.0127                 5.2957
 Frc consts  --      0.9384                 2.0444                 1.8390
 IR Inten    --      2.5075                 5.9155                 7.5925

                     19                     20                     21
                      A                      A                      A
 Frequencies --    778.4830               830.0594               834.3405
 Red. masses --      5.2975                 6.3076                 1.5308
 Frc consts  --      1.8916                 2.5605                 0.6278
 IR Inten    --      8.1435                31.1786                23.1165

                     22                     23                     24
                      A                      A                      A
 Frequencies --    892.3202               956.6556               958.5334
 Red. masses --      1.5149                 1.3077                 4.0674
 Frc consts  --      0.7107                 0.7051                 2.2018
 IR Inten    --     15.2608                 0.1319                 6.5002

                     25                     26                     27
                      A                      A                      A
 Frequencies --   1027.4637              1064.0137              1085.1347
 Red. masses --      1.5074                 1.4909                 2.9292
 Frc consts  --      0.9376                 0.9944                 2.0322
 IR Inten    --      1.6505                 3.4026                11.0504

                     28                     29                     30
                      A                      A                      A
 Frequencies --   1114.1098              1188.0135              1229.7851
 Red. masses --      1.3520                 1.2722                 2.4398
 Frc consts  --      0.9888                 1.0579                 2.1740
 IR Inten    --      0.5075                17.4430                 6.2922

                     31                     32                     33
                      A                      A                      A
 Frequencies --   1290.2150              1338.0676              1366.8044
 Red. masses --      1.9227                 2.4172                 4.4031
 Frc consts  --      1.8858                 2.5498                 4.8465
 IR Inten    --     17.7146                72.0240                60.1260

                     34                     35                     36
                      A                      A                      A
 Frequencies --   1391.4657              1435.5200              1467.3338
 Red. masses --     11.6537                 1.2264                 2.4495
 Frc consts  --     13.2941                 1.4890                 3.1073
 IR Inten    --    230.6281                 1.3360                11.7066

                     37                     38                     39
                      A                      A                      A
 Frequencies --   1490.7184              1506.0560              1546.7239
 Red. masses --      1.0482                 1.2149                 3.3335
 Frc consts  --      1.3724                 1.6236                 4.6987
 IR Inten    --      4.7309                15.7054                46.6158

                     40                     41                     42
                      A                      A                      A
 Frequencies --   1611.0178              1634.0492              1664.9430
 Red. masses --      6.5665                 7.9981                 1.3071
 Frc consts  --     10.0412                12.5826                 2.1347
 IR Inten    --    110.4952               186.8320                76.0584

                     43                     44                     45
                      A                      A                      A
 Frequencies --   1691.7148              3058.3931              3128.3556
 Red. masses --      4.4303                 1.0359                 1.1005
 Frc consts  --      7.4702                 5.7088                 6.3456
 IR Inten    --     62.0121                23.0702                 8.4932

                     46                     47                     48
                      A                      A                      A
 Frequencies --   3133.6773              3178.2212              3196.1356
 Red. masses --      1.1034                 1.0875                 1.0943
 Frc consts  --      6.3843                 6.4722                 6.5863
 IR Inten    --     19.8790                11.3120                16.2044

                     49                     50                     51
                      A                      A                      A
 Frequencies --   3235.1819              3579.3389              3687.4231
 Red. masses --      1.0905                 1.0476                 1.0993
 Frc consts  --      6.7245                 7.9075                 8.8065
 IR Inten    --      4.2589                26.4128                15.3093

 - Thermochemistry -
 -------------------
 Temperature   298.150 Kelvin.  Pressure   1.00000 Atm.
 Atom     1 has atomic number  6 and mass  12.00000

 Molecular mass:   152.05858 amu.
 Principal axes and moments of inertia in atomic units:
                           1         2         3
     Eigenvalues --  1012.581501937.173302929.43748
           X            0.99825   0.05906   0.00235
           Y           -0.05906   0.99825  -0.00041
           Z           -0.00237   0.00027   1.00000
 This molecule is an asymmetric top.
 Rotational symmetry number  1.
 Warning -- assumption of classical behavior for rotation
           may cause significant error
 Rotational temperatures (Kelvin)      0.08554     0.04471     0.02957
 Rotational constants (GHZ):           1.78232     0.93164     0.61607
 Zero-point vibrational energy     388306.3 (Joules/Mol)
                                   92.80744 (Kcal/Mol)
 Warning -- explicit consideration of  15 degrees of freedom as
           vibrations may cause significant error
 Vibrational temperatures:     37.51   179.08   246.62   336.49   343.05
          (Kelvin)            441.16   469.63   476.39   567.18   593.24
                              639.28   693.66   770.71   796.34   845.92
                              992.57  1012.06  1104.59  1120.06  1194.27
                             1200.43  1283.85  1376.41  1379.11  1478.29
                             1530.88  1561.26  1602.95  1709.28  1769.38
                             1856.33  1925.18  1966.52  2002.01  2065.39
                             2111.16  2144.81  2166.88  2225.39  2317.89
                             2351.03  2395.48  2434.00  4400.34  4501.00
                             4508.66  4572.75  4598.52  4654.70  5149.86
                             5305.37

 Zero-point correction=                           0.147898 (Hartree/Particle)
 Thermal correction to Energy=                    0.157681
 Thermal correction to Enthalpy=                  0.158625
 Thermal correction to Gibbs Free Energy=         0.112258
 Sum of electronic and zero-point Energies=           -531.286658
 Sum of electronic and thermal Energies=              -531.276875
 Sum of electronic and thermal Enthalpies=            -531.275931
 Sum of electronic and thermal Free Energies=         -531.322298

                     E (Thermal)             CV                S
                      KCal/Mol        Cal/Mol-Kelvin    Cal/Mol-Kelvin
 Total                   98.946             37.495             97.587
 Electronic               0.000              0.000              0.000
 Translational            0.889              2.981             40.967
 Rotational               0.889              2.981             30.131
 Vibrational             97.169             31.533             26.489
 Vibration     1          0.593              1.985              6.108
 Vibration     2          0.610              1.929              3.030
 Vibration     3          0.626              1.878              2.420
 Vibration     4          0.654              1.789              1.849
 Vibration     5          0.656              1.782              1.815
 Vibration     6          0.697              1.661              1.380
 Vibration     7          0.710              1.623              1.278
 Vibration     8          0.713              1.613              1.255
 Vibration     9          0.761              1.483              0.984
 Vibration    10          0.776              1.443              0.918
 Vibration    11          0.804              1.373              0.813
 Vibration    12          0.838              1.290              0.704
 Vibration    13          0.891              1.171              0.575
 Vibration    14          0.909              1.132              0.537
 Vibration    15          0.945              1.057              0.471

 Optimization completed.
    -- Stationary point found.
 Normal termination of Gaussian 09 at Sat Aug 21 01:47:31 2021.
