 Gaussian 09, Revision E.01,
 Gaussian 09:  ES64L-G09RevE.01 30-Nov-2015

 -------------------------
 #P OPT Freq B3LYP/6-31G**
 -------------------------

 ------
 ACOWOE
 ------
 Symbolic Z-matrix:
 Charge =  0 Multiplicity = 1

 SCF Done:  E(RB3LYP) =  -695.498597608     A.U. after   18 cycles
 SCF Done:  E(RB3LYP) =  -695.554817620     A.U. after   15 cycles
 SCF Done:  E(RB3LYP) =  -695.563842130     A.U. after   16 cycles
 SCF Done:  E(RB3LYP) =  -695.553381648     A.U. after   17 cycles
 SCF Done:  E(RB3LYP) =  -695.567279085     A.U. after   13 cycles
 SCF Done:  E(RB3LYP) =  -695.566456260     A.U. after   15 cycles
 SCF Done:  E(RB3LYP) =  -695.567689021     A.U. after   10 cycles
 SCF Done:  E(RB3LYP) =  -695.564920985     A.U. after   15 cycles
 SCF Done:  E(RB3LYP) =  -695.567960737     A.U. after   10 cycles
 SCF Done:  E(RB3LYP) =  -695.568202145     A.U. after   14 cycles
 SCF Done:  E(RB3LYP) =  -695.568318587     A.U. after   14 cycles
 SCF Done:  E(RB3LYP) =  -695.568326303     A.U. after   14 cycles
 SCF Done:  E(RB3LYP) =  -695.568333369     A.U. after   13 cycles
 SCF Done:  E(RB3LYP) =  -695.568337168     A.U. after   11 cycles
 SCF Done:  E(RB3LYP) =  -695.568340118     A.U. after   12 cycles
 SCF Done:  E(RB3LYP) =  -695.568348198     A.U. after   14 cycles
 SCF Done:  E(RB3LYP) =  -695.568349598     A.U. after   11 cycles
 SCF Done:  E(RB3LYP) =  -695.568349936     A.U. after   10 cycles
 SCF Done:  E(RB3LYP) =  -695.568350019     A.U. after    9 cycles
 Optimization completed.
    -- Stationary point found.
 Normal termination of Gaussian 09 at Fri Aug 20 15:41:44 2021.

 ----------------------------------------------------------------------
 #P Geom=AllCheck Guess=TCheck SCRF=Check GenChk RB3LYP/6-31G(d,p) Freq
 ----------------------------------------------------------------------

 Structure from the checkpoint file:  "/public/home/users/caep010/.cache/gau_scr/Gau-38945.chk"
 ------
 ACOWOE
 ------
 Charge =  0 Multiplicity = 1

                         Standard orientation:
 ---------------------------------------------------------------------
 Center     Atomic      Atomic             Coordinates (Angstroms)
 Number     Number       Type             X           Y           Z
 ---------------------------------------------------------------------
      1          8           0       -3.677229   -0.251282   -0.607646
      2          6           0       -2.970894   -0.043678    0.360933
      3          7           0       -1.647441    0.271014    0.269261
      4          1           0       -3.329580   -0.068488    1.408205
      5          6           0       -0.794949    0.126280   -0.913972
      6          1           0       -0.783461    0.997178   -1.573097
      7          6           0        0.415700    0.040697    0.043236
      8          1           0       -0.965352   -0.785451   -1.491748
      9          7           0        1.415838    1.178585   -0.093960
     10          8           0        2.597813    0.897468   -0.202127
     11          8           0        0.920558    2.297625   -0.077094
     12          7           0        1.202680   -1.250335   -0.011139
     13          8           0        1.585841   -1.702144    1.059295
     14          8           0        1.400123   -1.716496   -1.123517
     15          6           0       -0.548989    0.186324    1.242476
     16          1           0       -0.553292   -0.692551    1.892658
     17          1           0       -0.387906    1.095359    1.827523
 ---------------------------------------------------------------------

 SCF Done:  E(RB3LYP) =  -695.568350018     A.U. after    1 cycles

 The electronic state is 1-A.
 Alpha  occ. eigenvalues --  -19.23401 -19.23196 -19.22781 -19.22776 -19.14550
 Alpha  occ. eigenvalues --  -14.62100 -14.61389 -14.40241 -10.34565 -10.31185
 Alpha  occ. eigenvalues --  -10.29060 -10.28227  -1.28184  -1.26626  -1.10850
 Alpha  occ. eigenvalues --   -1.10159  -1.06492  -1.00951  -0.88493  -0.76352
 Alpha  occ. eigenvalues --   -0.75963  -0.74182  -0.62053  -0.61234  -0.59638
 Alpha  occ. eigenvalues --   -0.58720  -0.57725  -0.55357  -0.54932  -0.54848
 Alpha  occ. eigenvalues --   -0.51863  -0.50373  -0.47220  -0.46468  -0.43347
 Alpha  occ. eigenvalues --   -0.41253  -0.40683  -0.36030  -0.35964  -0.34776
 Alpha  occ. eigenvalues --   -0.34426  -0.33440  -0.33412  -0.28434  -0.27852
 Alpha virt. eigenvalues --   -0.11305  -0.11233  -0.01342   0.03544   0.06441
 Alpha virt. eigenvalues --    0.07289   0.09396   0.10224   0.12345   0.12646
 Alpha virt. eigenvalues --    0.14156   0.17201   0.19292   0.23010   0.23189

 Mulliken charges:
               1
     1  O   -0.447482
     2  C    0.398486
     3  N   -0.430698
     4  H    0.081419
     5  C    0.024614
     6  H    0.164691
     7  C    0.176084
     8  H    0.171599
     9  N    0.469915
    10  O   -0.346362
    11  O   -0.349372
    12  N    0.439785
    13  O   -0.346856
    14  O   -0.340495
    15  C    0.009335
    16  H    0.164749
    17  H    0.160585
 Sum of Mulliken charges =  -0.00000

 Dipole moment (field-independent basis, Debye):
    X=             -0.7011    Y=              0.5295    Z=              2.2104  Tot=              2.3786
 Quadrupole moment (field-independent basis, Debye-Ang):
   XX=            -85.6719   YY=            -73.4560   ZZ=            -62.9820
   XY=              0.5886   XZ=             -6.1698   YZ=             -0.2798

  Exact polarizability:  92.014  -1.822  64.707   1.483   1.136  72.234
 Approx polarizability: 140.055 -14.137 107.256  10.112   4.527 138.412

                      1                      2                      3
                      A                      A                      A
 Frequencies --     20.2147                32.8758                80.2117
 Red. masses --     14.7129                 9.5127                14.3831
 Frc consts  --      0.0035                 0.0061                 0.0545
 IR Inten    --      0.2400                 2.4232                 0.0420

                      4                      5                      6
                      A                      A                      A
 Frequencies --    117.3964               153.5954               191.7042
 Red. masses --      5.5061                 8.7161                11.1974
 Frc consts  --      0.0447                 0.1212                 0.2425
 IR Inten    --      4.0716                13.4291                 9.6542

                      7                      8                      9
                      A                      A                      A
 Frequencies --    226.9134               283.7919               319.7336
 Red. masses --      3.0152                 5.8613                 2.6350
 Frc consts  --      0.0915                 0.2781                 0.1587
 IR Inten    --      6.8017                 4.8803                 3.3036

                     10                     11                     12
                      A                      A                      A
 Frequencies --    339.7981               370.9192               418.5597
 Red. masses --      2.4505                 8.6874                12.3181
 Frc consts  --      0.1667                 0.7042                 1.2715
 IR Inten    --     14.0800                 6.5883                 1.9687

                     13                     14                     15
                      A                      A                      A
 Frequencies --    518.8980               583.8756               662.2349
 Red. masses --      6.3726                 5.8705                 5.1798
 Frc consts  --      1.0110                 1.1791                 1.3384
 IR Inten    --      6.5023                10.3184                18.4847

                     16                     17                     18
                      A                      A                      A
 Frequencies --    719.3274               728.7701               808.9554
 Red. masses --      7.0363                 4.5499                 4.4064
 Frc consts  --      2.1451                 1.4237                 1.6990
 IR Inten    --      2.4050                 4.8525                 5.5854

                     19                     20                     21
                      A                      A                      A
 Frequencies --    852.0587               870.5577               929.2148
 Red. masses --      9.5082                 4.9133                 4.5352
 Frc consts  --      4.0671                 2.1939                 2.3072
 IR Inten    --     40.8019                44.1013                 4.8569

                     22                     23                     24
                      A                      A                      A
 Frequencies --    958.1420              1023.4464              1104.2914
 Red. masses --      1.4433                 1.6032                 3.4374
 Frc consts  --      0.7807                 0.9894                 2.4697
 IR Inten    --      1.0449                 0.8648                 8.3758

                     25                     26                     27
                      A                      A                      A
 Frequencies --   1116.9934              1129.9538              1135.1811
 Red. masses --      7.0090                 1.9509                 1.0844
 Frc consts  --      5.1524                 1.4676                 0.8233
 IR Inten    --      9.4056                 2.2160                 1.5538

                     28                     29                     30
                      A                      A                      A
 Frequencies --   1205.9944              1228.7642              1292.2418
 Red. masses --      6.0353                 1.6212                 1.3264
 Frc consts  --      5.1717                 1.4422                 1.3050
 IR Inten    --     22.6667                 5.0385                 2.5080

                     31                     32                     33
                      A                      A                      A
 Frequencies --   1329.4176              1385.1026              1391.6896
 Red. masses --      1.6250                10.3620                 2.0788
 Frc consts  --      1.6921                11.7128                 2.3722
 IR Inten    --     10.3034               164.1244               173.3081

                     34                     35                     36
                      A                      A                      A
 Frequencies --   1428.7415              1447.7064              1498.7173
 Red. masses --      4.4566                 3.4668                 1.0757
 Frc consts  --      5.3600                 4.2810                 1.4236
 IR Inten    --     79.8439                61.5181                 8.0356

                     37                     38                     39
                      A                      A                      A
 Frequencies --   1516.4909              1687.6881              1690.7148
 Red. masses --      1.1237                14.1937                13.7876
 Frc consts  --      1.5226                23.8193                23.2208
 IR Inten    --     34.0930               212.8963               223.6819

                     40                     41                     42
                      A                      A                      A
 Frequencies --   1800.9321              2970.5822              3079.5144
 Red. masses --      8.6699                 1.0867                 1.0553
 Frc consts  --     16.5676                 5.6501                 5.8964
 IR Inten    --    380.0221                75.7903                14.1446

                     43                     44                     45
                      A                      A                      A
 Frequencies --   3091.5010              3139.6476              3149.7098
 Red. masses --      1.0572                 1.1122                 1.1119
 Frc consts  --      5.9532                 6.4592                 6.4992
 IR Inten    --      5.4761                 2.6724                 1.5401

 - Thermochemistry -
 -------------------
 Temperature   298.150 Kelvin.  Pressure   1.00000 Atm.
 Atom     1 has atomic number  8 and mass  15.99491

 Molecular mass:   175.02292 amu.
 Principal axes and moments of inertia in atomic units:
                           1         2         3
     Eigenvalues --  1170.846562562.684043092.67798
           X            0.99997   0.00039  -0.00706
           Y           -0.00038   1.00000   0.00135
           Z            0.00706  -0.00135   0.99997
 This molecule is an asymmetric top.
 Rotational symmetry number  1.
 Warning -- assumption of classical behavior for rotation
           may cause significant error
 Rotational temperatures (Kelvin)      0.07398     0.03380     0.02801
 Rotational constants (GHZ):           1.54140     0.70424     0.58355
 Zero-point vibrational energy     299262.4 (Joules/Mol)
                                   71.52544 (Kcal/Mol)
 Warning -- explicit consideration of  14 degrees of freedom as
           vibrations may cause significant error
 Vibrational temperatures:     29.08    47.30   115.41   168.91   220.99
          (Kelvin)            275.82   326.48   408.31   460.02   488.89
                              533.67   602.21   746.58   840.07   952.81
                             1034.95  1048.54  1163.90  1225.92  1252.54
                             1336.93  1378.55  1472.51  1588.83  1607.10
                             1625.75  1633.27  1735.15  1767.92  1859.25
                             1912.73  1992.85  2002.33  2055.64  2082.92
                             2156.32  2181.89  2428.20  2432.56  2591.14
                             4274.00  4430.73  4447.97  4517.25  4531.72

 Zero-point correction=                           0.113983 (Hartree/Particle)
 Thermal correction to Energy=                    0.124861
 Thermal correction to Enthalpy=                  0.125805
 Thermal correction to Gibbs Free Energy=         0.074802
 Sum of electronic and zero-point Energies=           -695.454367
 Sum of electronic and thermal Energies=              -695.443489
 Sum of electronic and thermal Enthalpies=            -695.442545
 Sum of electronic and thermal Free Energies=         -695.493548

                     E (Thermal)             CV                S
                      KCal/Mol        Cal/Mol-Kelvin    Cal/Mol-Kelvin
 Total                   78.351             37.382            107.345
 Electronic               0.000              0.000              0.000
 Translational            0.889              2.981             41.387
 Rotational               0.889              2.981             30.607
 Vibrational             76.574             31.421             35.351
 Vibration     1          0.593              1.986              6.613
 Vibration     2          0.594              1.983              5.648
 Vibration     3          0.600              1.963              3.886
 Vibration     4          0.608              1.935              3.143
 Vibration     5          0.619              1.899              2.627
 Vibration     6          0.634              1.851              2.211
 Vibration     7          0.651              1.800              1.903
 Vibration     8          0.682              1.704              1.511
 Vibration     9          0.706              1.636              1.311
 Vibration    10          0.720              1.596              1.213
 Vibration    11          0.743              1.532              1.076
 Vibration    12          0.781              1.430              0.897
 Vibration    13          0.874              1.208              0.613
 Vibration    14          0.941              1.066              0.478

 Optimization completed.
    -- Stationary point found.
 Normal termination of Gaussian 09 at Fri Aug 20 15:42:10 2021.
