 Gaussian 09, Revision E.01,
 Gaussian 09:  ES64L-G09RevE.01 30-Nov-2015

 -------------------------
 #P OPT Freq B3LYP/6-31G**
 -------------------------

 ------
 KOMHAV
 ------
 Symbolic Z-matrix:
 Charge =  0 Multiplicity = 1

 SCF Done:  E(RB3LYP) =  -430.638535607     A.U. after   16 cycles
 SCF Done:  E(RB3LYP) =  -430.708092042     A.U. after   15 cycles
 SCF Done:  E(RB3LYP) =  -430.718462782     A.U. after   15 cycles
 SCF Done:  E(RB3LYP) =  -430.714569972     A.U. after   17 cycles
 SCF Done:  E(RB3LYP) =  -430.719331987     A.U. after   11 cycles
 SCF Done:  E(RB3LYP) =  -430.720049641     A.U. after   13 cycles
 SCF Done:  E(RB3LYP) =  -430.720314508     A.U. after   13 cycles
 SCF Done:  E(RB3LYP) =  -430.720338323     A.U. after   11 cycles
 SCF Done:  E(RB3LYP) =  -430.720347941     A.U. after    9 cycles
 SCF Done:  E(RB3LYP) =  -430.720348231     A.U. after    8 cycles
 Optimization completed.
    -- Stationary point found.
 Normal termination of Gaussian 09 at Fri Aug 20 15:57:05 2021.

 ----------------------------------------------------------------------
 #P Geom=AllCheck Guess=TCheck SCRF=Check GenChk RB3LYP/6-31G(d,p) Freq
 ----------------------------------------------------------------------

 Structure from the checkpoint file:  "/public/home/users/caep010/.cache/gau_scr/Gau-39966.chk"
 ------
 KOMHAV
 ------
 Charge =  0 Multiplicity = 1

                         Standard orientation:
 ---------------------------------------------------------------------
 Center     Atomic      Atomic             Coordinates (Angstroms)
 Number     Number       Type             X           Y           Z
 ---------------------------------------------------------------------
      1          7           0       -2.059396    0.611774   -0.000048
      2          6           0       -1.973531   -0.760360    0.000428
      3          7           0       -0.727627   -1.170161   -0.000423
      4          6           0        0.004775   -0.020232    0.000019
      5          6           0       -0.783818    1.107030   -0.000446
      6          7           0        1.449080   -0.013097    0.000032
      7          8           0        2.038216   -1.087241    0.000018
      8          1           0       -0.542082    2.156426   -0.000283
      9          1           0       -2.907000    1.160566    0.000971
     10          8           0        1.984130    1.102132    0.000221
     11          1           0       -2.848652   -1.394354    0.000464
 ---------------------------------------------------------------------

 SCF Done:  E(RB3LYP) =  -430.720348231     A.U. after    1 cycles

 The electronic state is 1-A.
 Alpha  occ. eigenvalues --  -19.17285 -19.16941 -14.56600 -14.43468 -14.35195
 Alpha  occ. eigenvalues --  -10.27805 -10.26701 -10.26167  -1.21606  -1.05656
 Alpha  occ. eigenvalues --   -1.04265  -0.91631  -0.81128  -0.72643  -0.65241
 Alpha  occ. eigenvalues --   -0.60458  -0.57342  -0.52784  -0.52067  -0.50305
 Alpha  occ. eigenvalues --   -0.47208  -0.46577  -0.46331  -0.32243  -0.30937
 Alpha  occ. eigenvalues --   -0.29925  -0.29898  -0.28236  -0.26835
 Alpha virt. eigenvalues --   -0.07425  -0.00419   0.04373   0.06637   0.11014
 Alpha virt. eigenvalues --    0.12663   0.16835   0.20206   0.22158   0.26558
 Alpha virt. eigenvalues --    0.29111   0.31010   0.38231   0.42491   0.50120

 Mulliken charges:
               1
     1  N   -0.493783
     2  C    0.284610
     3  N   -0.433534
     4  C    0.382526
     5  C    0.112845
     6  N    0.360675
     7  O   -0.378022
     8  H    0.158467
     9  H    0.284800
    10  O   -0.415188
    11  H    0.136604
 Sum of Mulliken charges =  -0.00000

 Dipole moment (field-independent basis, Debye):
    X=             -6.8829    Y=              2.8015    Z=              0.0020  Tot=              7.4312
 Quadrupole moment (field-independent basis, Debye-Ang):
   XX=            -38.2466   YY=            -45.1072   ZZ=            -44.1127
   XY=             -2.9561   XZ=             -0.0071   YZ=             -0.0001

  Exact polarizability:  76.059  -0.771  62.426  -0.004  -0.001  22.864
 Approx polarizability: 117.988  -7.463 130.852  -0.007  -0.005  35.134

                      1                      2                      3
                      A                      A                      A
 Frequencies --     78.6887               218.3779               235.8676
 Red. masses --      7.9421                 6.2164                 7.3250
 Frc consts  --      0.0290                 0.1747                 0.2401
 IR Inten    --      3.6383                 0.4236                 1.7203

                      4                      5                      6
                      A                      A                      A
 Frequencies --    442.5285               545.6330               571.4615
 Red. masses --     10.6519                 8.8779                 1.8248
 Frc consts  --      1.2290                 1.5573                 0.3511
 IR Inten    --      1.3708                 0.4768                89.9331

                      7                      8                      9
                      A                      A                      A
 Frequencies --    638.5899               677.2580               757.3657
 Red. masses --      2.4457                 2.5494                 2.7105
 Frc consts  --      0.5876                 0.6890                 0.9160
 IR Inten    --     31.1064                 0.1427                17.7541

                     10                     11                     12
                      A                      A                      A
 Frequencies --    797.4561               831.1330               843.0412
 Red. masses --      1.9886                12.9820                 1.4602
 Frc consts  --      0.7451                 5.2836                 0.6114
 IR Inten    --      1.2220                52.7754                21.4587

                     13                     14                     15
                      A                      A                      A
 Frequencies --    941.2133               986.1137              1086.5762
 Red. masses --      5.4106                 3.7959                 1.7925
 Frc consts  --      2.8240                 2.1748                 1.2469
 IR Inten    --      1.1122                 6.6301                36.2434

                     16                     17                     18
                      A                      A                      A
 Frequencies --   1121.8031              1246.1310              1295.1736
 Red. masses --      1.6483                 1.6354                 3.9368
 Frc consts  --      1.2221                 1.4963                 3.8909
 IR Inten    --      8.2917                 9.9487                23.5933

                     19                     20                     21
                      A                      A                      A
 Frequencies --   1387.1831              1419.6945              1444.5445
 Red. masses --      6.3872                 5.6907                 3.4458
 Frc consts  --      7.2415                 6.7578                 4.2364
 IR Inten    --     21.4248               241.5082                17.3577

                     22                     23                     24
                      A                      A                      A
 Frequencies --   1539.6368              1575.1107              1648.4178
 Red. masses --      4.2481                 4.3360                13.3058
 Frc consts  --      5.9331                 6.3382                21.3023
 IR Inten    --     52.3868                 3.5243               224.7797

                     25                     26                     27
                      A                      A                      A
 Frequencies --   3272.9846              3320.0062              3655.1287
 Red. masses --      1.0976                 1.1004                 1.0820
 Frc consts  --      6.9275                 7.1463                 8.5170
 IR Inten    --      0.3522                 7.3071                77.9293

 - Thermochemistry -
 -------------------
 Temperature   298.150 Kelvin.  Pressure   1.00000 Atm.
 Atom     1 has atomic number  7 and mass  14.00307

 Molecular mass:   113.02253 amu.
 Principal axes and moments of inertia in atomic units:
                           1         2         3
     Eigenvalues --   329.865201058.407391388.27252
           X            0.99999  -0.00329  -0.00001
           Y            0.00329   0.99999  -0.00000
           Z            0.00001   0.00000   1.00000
 This molecule is an asymmetric top.
 Rotational symmetry number  1.
 Rotational temperatures (Kelvin)      0.26257     0.08183     0.06239
 Rotational constants (GHZ):           5.47115     1.70515     1.29999
 Zero-point vibrational energy     194854.4 (Joules/Mol)
                                   46.57133 (Kcal/Mol)
 Warning -- explicit consideration of   6 degrees of freedom as
           vibrations may cause significant error
 Vibrational temperatures:    113.22   314.20   339.36   636.70   785.04
          (Kelvin)            822.20   918.79   974.42  1089.68  1147.36
                             1195.81  1212.95  1354.19  1418.80  1563.34
                             1614.02  1792.90  1863.46  1995.84  2042.62
                             2078.37  2215.19  2266.23  2371.70  4709.09
                             4776.74  5258.91

 Zero-point correction=                           0.074216 (Hartree/Particle)
 Thermal correction to Energy=                    0.080264
 Thermal correction to Enthalpy=                  0.081208
 Thermal correction to Gibbs Free Energy=         0.043495
 Sum of electronic and zero-point Energies=           -430.646132
 Sum of electronic and thermal Energies=              -430.640085
 Sum of electronic and thermal Enthalpies=            -430.639141
 Sum of electronic and thermal Free Energies=         -430.676853

                     E (Thermal)             CV                S
                      KCal/Mol        Cal/Mol-Kelvin    Cal/Mol-Kelvin
 Total                   50.366             21.717             79.372
 Electronic               0.000              0.000              0.000
 Translational            0.889              2.981             40.083
 Rotational               0.889              2.981             27.674
 Vibrational             48.589             15.755             11.615
 Vibration     1          0.600              1.963              3.923
 Vibration     2          0.646              1.813              1.973
 Vibration     3          0.655              1.786              1.834
 Vibration     4          0.802              1.377              0.819
 Vibration     5          0.901              1.149              0.553
 Vibration     6          0.928              1.093              0.501

 Optimization completed.
    -- Stationary point found.
 Normal termination of Gaussian 09 at Fri Aug 20 15:57:15 2021.
