 Gaussian 09, Revision E.01,
 Gaussian 09:  ES64L-G09RevE.01 30-Nov-2015

 -------------------------
 #P OPT Freq B3LYP/6-31G**
 -------------------------

 --------
 CASBOQ01
 --------
 Symbolic Z-matrix:
 Charge =  0 Multiplicity = 1

 SCF Done:  E(RB3LYP) =  -687.693310306     A.U. after   16 cycles
 SCF Done:  E(RB3LYP) =  -687.743674778     A.U. after   14 cycles
 SCF Done:  E(RB3LYP) =  -687.748977205     A.U. after   15 cycles
 SCF Done:  E(RB3LYP) =  -687.747040038     A.U. after   15 cycles
 SCF Done:  E(RB3LYP) =  -687.749124632     A.U. after   10 cycles
 SCF Done:  E(RB3LYP) =  -687.749091101     A.U. after   14 cycles
 SCF Done:  E(RB3LYP) =  -687.749232527     A.U. after    8 cycles
 SCF Done:  E(RB3LYP) =  -687.749286639     A.U. after   12 cycles
 SCF Done:  E(RB3LYP) =  -687.749295004     A.U. after   12 cycles
 SCF Done:  E(RB3LYP) =  -687.749305019     A.U. after   10 cycles
 SCF Done:  E(RB3LYP) =  -687.749307113     A.U. after   10 cycles
 SCF Done:  E(RB3LYP) =  -687.749307982     A.U. after    9 cycles
 SCF Done:  E(RB3LYP) =  -687.749308322     A.U. after    9 cycles
 SCF Done:  E(RB3LYP) =  -687.749308499     A.U. after    9 cycles
 SCF Done:  E(RB3LYP) =  -687.749308551     A.U. after    8 cycles
 Optimization completed.
    -- Stationary point found.
 Normal termination of Gaussian 09 at Fri Aug 20 15:35:34 2021.

 ----------------------------------------------------------------------
 #P Geom=AllCheck Guess=TCheck SCRF=Check GenChk RB3LYP/6-31G(d,p) Freq
 ----------------------------------------------------------------------

 Structure from the checkpoint file:  "/public/home/users/caep010/.cache/gau_scr/Gau-32850.chk"
 --------
 CASBOQ01
 --------
 Charge =  0 Multiplicity = 1

                         Standard orientation:
 ---------------------------------------------------------------------
 Center     Atomic      Atomic             Coordinates (Angstroms)
 Number     Number       Type             X           Y           Z
 ---------------------------------------------------------------------
      1          8           0        2.861348   -1.610720   -0.267801
      2          7           0        1.671025   -1.335082   -0.115767
      3          6           0        1.336572    0.052457    0.007337
      4          6           0        0.072627    0.707272    0.085517
      5          7           0       -1.226477    0.182203    0.034973
      6          7           0       -2.221696    0.841285   -0.647312
      7          6           0       -1.788958   -0.901003    0.631168
      8          1           0       -1.242614   -1.615756    1.222568
      9          7           0       -3.292930    0.163842   -0.452137
     10          8           0        0.752929   -2.156522   -0.059799
     11          7           0       -3.066910   -0.928380    0.343452
     12          7           0        0.231451    2.020342    0.181302
     13          7           0        1.570446    2.203271    0.153124
     14          1           0        1.924652    3.146774    0.212704
     15          6           0        2.278697    1.066907    0.055797
     16          1           0        3.355758    1.020752    0.023180
 ---------------------------------------------------------------------

 SCF Done:  E(RB3LYP) =  -687.749308551     A.U. after    1 cycles

 The electronic state is 1-A.
 Alpha  occ. eigenvalues --  -19.20732 -19.20627 -14.60441 -14.47979 -14.46122
 Alpha  occ. eigenvalues --  -14.41657 -14.41351 -14.40064 -14.36724 -10.31895
 Alpha  occ. eigenvalues --  -10.29702 -10.28736 -10.28106  -1.25240  -1.14815
 Alpha  occ. eigenvalues --   -1.11652  -1.07864  -0.97761  -0.90254  -0.88026
 Alpha  occ. eigenvalues --   -0.87762  -0.76761  -0.72190  -0.68063  -0.63545
 Alpha  occ. eigenvalues --   -0.62670  -0.60700  -0.56494  -0.56329  -0.55890
 Alpha  occ. eigenvalues --   -0.53697  -0.51511  -0.50285  -0.49324  -0.47689
 Alpha  occ. eigenvalues --   -0.38465  -0.36857  -0.36392  -0.33553  -0.33464
 Alpha  occ. eigenvalues --   -0.32077  -0.31667  -0.30979  -0.30457  -0.30270
 Alpha  occ. eigenvalues --   -0.28897
 Alpha virt. eigenvalues --   -0.10964  -0.05343  -0.01896   0.01456   0.02735
 Alpha virt. eigenvalues --    0.04029   0.09233   0.11307   0.11784   0.15088
 Alpha virt. eigenvalues --    0.16793   0.18784   0.20558   0.21824   0.24710

 Mulliken charges:
               1
     1  O   -0.393158
     2  N    0.339407
     3  C    0.191956
     4  C    0.558745
     5  N   -0.417129
     6  N   -0.039428
     7  C    0.339714
     8  H    0.175760
     9  N   -0.071214
    10  O   -0.404840
    11  N   -0.321730
    12  N   -0.308597
    13  N   -0.319370
    14  H    0.309797
    15  C    0.179465
    16  H    0.180621
 Sum of Mulliken charges =  -0.00000

 Dipole moment (field-independent basis, Debye):
    X=              6.6411    Y=              3.9535    Z=              1.8167  Tot=              7.9394
 Quadrupole moment (field-independent basis, Debye-Ang):
   XX=            -83.7268   YY=            -70.0613   ZZ=            -70.2514
   XY=             14.5633   XZ=             -1.1949   YZ=              0.0627

  Exact polarizability: 124.302   7.895  96.902   1.224  -4.428  42.952
 Approx polarizability: 216.889  17.834 176.631   1.321 -12.223  72.998

                      1                      2                      3
                      A                      A                      A
 Frequencies --     47.7945                63.7474               114.5262
 Red. masses --      8.9610                10.7625                10.0714
 Frc consts  --      0.0121                 0.0258                 0.0778
 IR Inten    --      4.9532                 1.9574                 1.0304

                      4                      5                      6
                      A                      A                      A
 Frequencies --    153.7202               205.8160               211.7695
 Red. masses --      7.1563                 9.2755                 8.5412
 Frc consts  --      0.0996                 0.2315                 0.2257
 IR Inten    --      3.0740                 5.0837                 0.9658

                      7                      8                      9
                      A                      A                      A
 Frequencies --    350.5965               384.0712               394.7630
 Red. masses --     10.3985                 8.4531                 7.8821
 Frc consts  --      0.7531                 0.7347                 0.7237
 IR Inten    --      4.1241                 2.6901                 6.6808

                     10                     11                     12
                      A                      A                      A
 Frequencies --    504.4367               580.9969               604.8156
 Red. masses --      9.2762                 2.5988                 6.6758
 Frc consts  --      1.3907                 0.5168                 1.4388
 IR Inten    --      0.0309                42.5452                 9.4718

                     13                     14                     15
                      A                      A                      A
 Frequencies --    660.7281               668.3594               712.8505
 Red. masses --      2.2476                 2.4861                 6.9200
 Frc consts  --      0.5781                 0.6543                 2.0718
 IR Inten    --     40.6289                12.5316                10.7516

                     16                     17                     18
                      A                      A                      A
 Frequencies --    718.6013               759.0657               831.3935
 Red. masses --     12.6754                 5.9809                 9.8266
 Frc consts  --      3.8565                 2.0304                 4.0019
 IR Inten    --      3.0291                24.6467                39.0323

                     19                     20                     21
                      A                      A                      A
 Frequencies --    859.2893               866.4331               939.7255
 Red. masses --      1.5074                 1.4077                 5.8033
 Frc consts  --      0.6558                 0.6226                 3.0194
 IR Inten    --      6.0880                20.6844                 1.7897

                     22                     23                     24
                      A                      A                      A
 Frequencies --    962.6339               999.2905              1021.8539
 Red. masses --      5.6384                10.0385                 8.8579
 Frc consts  --      3.0784                 5.9061                 5.4495
 IR Inten    --     14.7940                60.1693                 1.4427

                     25                     26                     27
                      A                      A                      A
 Frequencies --   1083.6258              1099.5942              1170.1752
 Red. masses --      2.0945                 5.9754                 2.8438
 Frc consts  --      1.4490                 4.2568                 2.2943
 IR Inten    --     28.2979                32.6510                27.7412

                     28                     29                     30
                      A                      A                      A
 Frequencies --   1196.1748              1239.0634              1310.0015
 Red. masses --      2.1658                 2.8789                 2.9227
 Frc consts  --      1.8258                 2.6042                 2.9551
 IR Inten    --     15.2320                36.0012                14.6786

                     31                     32                     33
                      A                      A                      A
 Frequencies --   1352.6842              1383.7286              1432.4721
 Red. masses --      7.1426                 7.2104                10.1556
 Frc consts  --      7.7002                 8.1341                12.2780
 IR Inten    --      6.3085                88.1311               197.1172

                     34                     35                     36
                      A                      A                      A
 Frequencies --   1439.5247              1505.4693              1514.2246
 Red. masses --      9.5204                 5.3963                 2.8827
 Frc consts  --     11.6237                 7.2059                 3.8944
 IR Inten    --      8.4853                10.2250                25.9566

                     37                     38                     39
                      A                      A                      A
 Frequencies --   1557.8712              1591.9295              1641.6623
 Red. masses --      5.2964                 7.5209                11.8541
 Frc consts  --      7.5735                11.2297                18.8229
 IR Inten    --     79.9567                27.4653               363.7323

                     40                     41                     42
                      A                      A                      A
 Frequencies --   3304.9410              3332.1432              3663.7589
 Red. masses --      1.1004                 1.1006                 1.0827
 Frc consts  --      7.0819                 7.1998                 8.5627
 IR Inten    --     13.0300                 6.9827               152.3487

 - Thermochemistry -
 -------------------
 Temperature   298.150 Kelvin.  Pressure   1.00000 Atm.
 Atom     1 has atomic number  8 and mass  15.99491

 Molecular mass:   181.03482 amu.
 Principal axes and moments of inertia in atomic units:
                           1         2         3
     Eigenvalues --  1251.860492664.939223780.95463
           X            0.99958   0.02886  -0.00148
           Y           -0.02886   0.99958  -0.00405
           Z            0.00136   0.00409   0.99999
 This molecule is an asymmetric top.
 Rotational symmetry number  1.
 Warning -- assumption of classical behavior for rotation
           may cause significant error
 Rotational temperatures (Kelvin)      0.06919     0.03250     0.02291
 Rotational constants (GHZ):           1.44165     0.67722     0.47732
 Zero-point vibrational energy     265788.2 (Joules/Mol)
                                   63.52491 (Kcal/Mol)
 Warning -- explicit consideration of  12 degrees of freedom as
           vibrations may cause significant error
 Vibrational temperatures:     68.77    91.72   164.78   221.17   296.12
          (Kelvin)            304.69   504.43   552.59   567.98   725.77
                              835.92   870.19   950.64   961.62  1025.63
                             1033.91  1092.12  1196.19  1236.32  1246.60
                             1352.05  1385.01  1437.75  1470.22  1559.09
                             1582.07  1683.62  1721.03  1782.73  1884.80
                             1946.21  1990.87  2061.01  2071.15  2166.03
                             2178.63  2241.43  2290.43  2361.98  4755.07
                             4794.20  5271.33

 Zero-point correction=                           0.101233 (Hartree/Particle)
 Thermal correction to Energy=                    0.110774
 Thermal correction to Enthalpy=                  0.111719
 Thermal correction to Gibbs Free Energy=         0.064613
 Sum of electronic and zero-point Energies=           -687.648075
 Sum of electronic and thermal Energies=              -687.638534
 Sum of electronic and thermal Enthalpies=            -687.637590
 Sum of electronic and thermal Free Energies=         -687.684696

                     E (Thermal)             CV                S
                      KCal/Mol        Cal/Mol-Kelvin    Cal/Mol-Kelvin
 Total                   69.512             34.778             99.143
 Electronic               0.000              0.000              0.000
 Translational            0.889              2.981             41.487
 Rotational               0.889              2.981             30.912
 Vibrational             67.734             28.816             26.743
 Vibration     1          0.595              1.978              4.907
 Vibration     2          0.597              1.972              4.338
 Vibration     3          0.607              1.937              3.191
 Vibration     4          0.619              1.899              2.626
 Vibration     5          0.640              1.832              2.080
 Vibration     6          0.643              1.823              2.028
 Vibration     7          0.728              1.574              1.164
 Vibration     8          0.753              1.504              1.023
 Vibration     9          0.762              1.481              0.982
 Vibration    10          0.860              1.240              0.647
 Vibration    11          0.938              1.072              0.484
 Vibration    12          0.963              1.022              0.441

 Optimization completed.
    -- Stationary point found.
 Normal termination of Gaussian 09 at Fri Aug 20 15:36:00 2021.
