 Gaussian 09, Revision E.01,
 Gaussian 09:  ES64L-G09RevE.01 30-Nov-2015

 --------------------------------
 #P OPT=calcfc Freq B3LYP/6-31G**
 --------------------------------

 ------
 CUZMOZ
 ------
 Symbolic Z-matrix:
 Charge =  0 Multiplicity = 1

 SCF Done:  E(RB3LYP) =  -469.949062662     A.U. after   15 cycles
 SCF Done:  E(RB3LYP) =  -470.005752607     A.U. after   14 cycles
 SCF Done:  E(RB3LYP) =  -470.017268433     A.U. after   13 cycles
 SCF Done:  E(RB3LYP) =  -470.017484849     A.U. after   12 cycles
 SCF Done:  E(RB3LYP) =  -470.017506805     A.U. after    9 cycles
 SCF Done:  E(RB3LYP) =  -470.017510741     A.U. after    8 cycles
 Optimization completed.
    -- Stationary point found.
 Normal termination of Gaussian 09 at Sat Aug 21 02:21:50 2021.

 ----------------------------------------------------------------------
 #P Geom=AllCheck Guess=TCheck SCRF=Check GenChk RB3LYP/6-31G(d,p) Freq
 ----------------------------------------------------------------------

 Structure from the checkpoint file:  "/public/home/users/caep010/.cache/gau_scr/Gau-55500.chk"
 ------
 CUZMOZ
 ------
 Charge =  0 Multiplicity = 1

                         Standard orientation:
 ---------------------------------------------------------------------
 Center     Atomic      Atomic             Coordinates (Angstroms)
 Number     Number       Type             X           Y           Z
 ---------------------------------------------------------------------
      1          6           0       -2.926878   -0.799727   -0.000028
      2          7           0       -1.654455   -0.095028    0.000036
      3          7           0       -0.516033   -0.798414    0.000135
      4          6           0        0.429280    0.137787   -0.000010
      5          7           0        1.829908   -0.233291    0.000074
      6          8           0        2.120520   -1.424683    0.000274
      7          8           0        2.634176    0.702872   -0.000069
      8          6           0       -1.443881    1.254728   -0.000188
      9          6           0       -0.079125    1.449787   -0.000216
     10          1           0        0.475550    2.373151   -0.000337
     11          1           0       -2.266290    1.954156   -0.000295
     12          1           0       -3.733323   -0.065409    0.000767
     13          1           0       -3.002580   -1.428462    0.889828
     14          1           0       -3.003254   -1.427274   -0.890673
 ---------------------------------------------------------------------

 SCF Done:  E(RB3LYP) =  -470.017510741     A.U. after    1 cycles

 The electronic state is 1-A.
 Alpha  occ. eigenvalues --  -19.17328 -19.17226 -14.56729 -14.45037 -14.38181
 Alpha  occ. eigenvalues --  -10.26642 -10.25640 -10.25216 -10.21420  -1.21781
 Alpha  occ. eigenvalues --   -1.08701  -1.04431  -0.88233  -0.81806  -0.77517
 Alpha  occ. eigenvalues --   -0.69219  -0.62527  -0.57698  -0.55820  -0.53038
 Alpha  occ. eigenvalues --   -0.51124  -0.50123  -0.49850  -0.46405  -0.44498
 Alpha  occ. eigenvalues --   -0.43272  -0.42072  -0.32520  -0.30123  -0.30003
 Alpha  occ. eigenvalues --   -0.28342  -0.28323  -0.27687
 Alpha virt. eigenvalues --   -0.07658  -0.00247   0.06970   0.07318   0.10085
 Alpha virt. eigenvalues --    0.11607   0.13535   0.14827   0.15336   0.17966
 Alpha virt. eigenvalues --    0.21615   0.24524   0.27662   0.29473   0.35764

 Mulliken charges:
               1
     1  C   -0.169929
     2  N   -0.240615
     3  N   -0.320827
     4  C    0.482237
     5  N    0.365330
     6  O   -0.383111
     7  O   -0.402255
     8  C    0.140613
     9  C   -0.179704
    10  H    0.132726
    11  H    0.129148
    12  H    0.130254
    13  H    0.158078
    14  H    0.158055
 Sum of Mulliken charges =   0.00000

 Dipole moment (field-independent basis, Debye):
    X=             -6.5573    Y=              2.0897    Z=             -0.0005  Tot=              6.8822
 Quadrupole moment (field-independent basis, Debye-Ang):
   XX=            -48.0358   YY=            -50.8878   ZZ=            -50.2148
   XY=              1.5314   XZ=             -0.0001   YZ=              0.0002

  Exact polarizability:  93.936   1.745  73.182   0.002  -0.005  32.046
 Approx polarizability: 139.007   7.193 145.093   0.001  -0.014  48.015

                      1                      2                      3
                      A                      A                      A
 Frequencies --     20.9562                65.8666               162.2621
 Red. masses --      1.1049                 7.0326                 4.3821
 Frc consts  --      0.0003                 0.0180                 0.0680
 IR Inten    --      0.1879                 0.5844                 2.3357

                      4                      5                      6
                      A                      A                      A
 Frequencies --    197.6197               271.2747               372.8748
 Red. masses --      5.5915                 4.2656                 3.7591
 Frc consts  --      0.1287                 0.1849                 0.3079
 IR Inten    --      0.0026                 3.5908                 4.5965

                      7                      8                      9
                      A                      A                      A
 Frequencies --    431.3446               550.6491               623.7488
 Red. masses --      8.4275                 5.9342                 4.0907
 Frc consts  --      0.9238                 1.0601                 0.9377
 IR Inten    --      1.2821                 0.6108                 4.8119

                     10                     11                     12
                      A                      A                      A
 Frequencies --    650.8136               711.8012               761.7909
 Red. masses --      9.3044                 5.0384                 2.0123
 Frc consts  --      2.3219                 1.5041                 0.6880
 IR Inten    --      2.3125                 5.3015                42.5936

                     13                     14                     15
                      A                      A                      A
 Frequencies --    783.7189               834.7461               869.0944
 Red. masses --      2.2778                12.3304                 1.3560
 Frc consts  --      0.8243                 5.0622                 0.6034
 IR Inten    --      9.0151                52.6866                 1.1692

                     16                     17                     18
                      A                      A                      A
 Frequencies --   1013.9359              1017.3289              1071.9988
 Red. masses --      2.7097                 6.6213                 1.5631
 Frc consts  --      1.6413                 4.0375                 1.0583
 IR Inten    --      2.3179                 8.0418                20.2360

                     19                     20                     21
                      A                      A                      A
 Frequencies --   1092.2130              1152.3117              1212.3943
 Red. masses --      1.4824                 1.3109                 1.8195
 Frc consts  --      1.0419                 1.0255                 1.5758
 IR Inten    --      6.0945                 0.0150                24.8287

                     22                     23                     24
                      A                      A                      A
 Frequencies --   1336.1035              1386.6061              1425.2079
 Red. masses --      6.2780                 4.8456                 8.2788
 Frc consts  --      6.6031                 5.4891                 9.9077
 IR Inten    --    105.5296                22.7813               205.3272

                     25                     26                     27
                      A                      A                      A
 Frequencies --   1449.6224              1480.0153              1485.8209
 Red. masses --      2.6023                 1.7395                 3.9114
 Frc consts  --      3.2219                 2.2450                 5.0876
 IR Inten    --      0.5837                11.7414                17.5200

                     28                     29                     30
                      A                      A                      A
 Frequencies --   1488.2938              1531.1496              1562.9087
 Red. masses --      1.0405                 1.1938                 5.1230
 Frc consts  --      1.3579                 1.6490                 7.3730
 IR Inten    --      8.2736                 5.6836                22.1812

                     31                     32                     33
                      A                      A                      A
 Frequencies --   1650.2398              3071.9335              3149.1593
 Red. masses --     14.0532                 1.0321                 1.1065
 Frc consts  --     22.5486                 5.7386                 6.4653
 IR Inten    --    198.6473                26.8475                 7.0880

                     34                     35                     36
                      A                      A                      A
 Frequencies --   3169.9471              3278.3702              3314.6751
 Red. masses --      1.1056                 1.0955                 1.1027
 Frc consts  --      6.5454                 6.9370                 7.1381
 IR Inten    --      5.6106                 0.2221                 4.3551

 - Thermochemistry -
 -------------------
 Temperature   298.150 Kelvin.  Pressure   1.00000 Atm.
 Atom     1 has atomic number  6 and mass  12.00000

 Molecular mass:   127.03818 amu.
 Principal axes and moments of inertia in atomic units:
                           1         2         3
     Eigenvalues --   418.998701572.158121979.74729
           X            0.99986   0.01655  -0.00002
           Y           -0.01655   0.99986   0.00014
           Z            0.00003  -0.00014   1.00000
 This molecule is an asymmetric top.
 Rotational symmetry number  1.
 Rotational temperatures (Kelvin)      0.20672     0.05509     0.04375
 Rotational constants (GHZ):           4.30727     1.14794     0.91160
 Zero-point vibrational energy     267059.1 (Joules/Mol)
                                   63.82866 (Kcal/Mol)
 Warning -- explicit consideration of   8 degrees of freedom as
           vibrations may cause significant error
 Vibrational temperatures:     30.15    94.77   233.46   284.33   390.30
          (Kelvin)            536.48   620.61   792.26   897.43   936.37
                             1024.12  1096.05  1127.60  1201.01  1250.43
                             1458.83  1463.71  1542.37  1571.45  1657.92
                             1744.36  1922.35  1995.01  2050.55  2085.68
                             2129.41  2137.76  2141.32  2202.98  2248.67
                             2374.32  4419.82  4530.93  4560.84  4716.84
                             4769.07

 Zero-point correction=                           0.101717 (Hartree/Particle)
 Thermal correction to Energy=                    0.109608
 Thermal correction to Enthalpy=                  0.110552
 Thermal correction to Gibbs Free Energy=         0.067294
 Sum of electronic and zero-point Energies=           -469.915793
 Sum of electronic and thermal Energies=              -469.907903
 Sum of electronic and thermal Enthalpies=            -469.906959
 Sum of electronic and thermal Free Energies=         -469.950217

                     E (Thermal)             CV                S
                      KCal/Mol        Cal/Mol-Kelvin    Cal/Mol-Kelvin
 Total                   68.780             27.276             91.044
 Electronic               0.000              0.000              0.000
 Translational            0.889              2.981             40.431
 Rotational               0.889              2.981             28.657
 Vibrational             67.002             21.314             21.956
 Vibration     1          0.593              1.986              6.541
 Vibration     2          0.597              1.971              4.273
 Vibration     3          0.622              1.889              2.523
 Vibration     4          0.637              1.843              2.155
 Vibration     5          0.675              1.726              1.588
 Vibration     6          0.744              1.528              1.068
 Vibration     7          0.792              1.402              0.854
 Vibration     8          0.906              1.138              0.543

 Optimization completed.
    -- Stationary point found.
 Normal termination of Gaussian 09 at Sat Aug 21 02:22:04 2021.
