 Gaussian 09, Revision E.01,
 Gaussian 09:  ES64L-G09RevE.01 30-Nov-2015

 -------------------------
 #P OPT Freq B3LYP/6-31G**
 -------------------------

 ------
 FOHMUK
 ------
 Symbolic Z-matrix:
 Charge =  0 Multiplicity = 1

 SCF Done:  E(RB3LYP) =  -526.737414765     A.U. after   16 cycles
 SCF Done:  E(RB3LYP) =  -526.854885659     A.U. after   14 cycles
 SCF Done:  E(RB3LYP) =  -526.890374979     A.U. after   15 cycles
 SCF Done:  E(RB3LYP) =  -526.896945311     A.U. after   15 cycles
 SCF Done:  E(RB3LYP) =  -526.894305600     A.U. after   15 cycles
 SCF Done:  E(RB3LYP) =  -526.897172644     A.U. after   11 cycles
 SCF Done:  E(RB3LYP) =  -526.897416914     A.U. after   13 cycles
 SCF Done:  E(RB3LYP) =  -526.896667040     A.U. after   14 cycles
 SCF Done:  E(RB3LYP) =  -526.897436947     A.U. after    9 cycles
 SCF Done:  E(RB3LYP) =  -526.897474864     A.U. after   11 cycles
 SCF Done:  E(RB3LYP) =  -526.897483506     A.U. after   10 cycles
 SCF Done:  E(RB3LYP) =  -526.897484674     A.U. after    9 cycles
 Optimization completed.
    -- Stationary point found.
 Normal termination of Gaussian 09 at Fri Aug 20 15:58:45 2021.

 ----------------------------------------------------------------------
 #P Geom=AllCheck Guess=TCheck SCRF=Check GenChk RB3LYP/6-31G(d,p) Freq
 ----------------------------------------------------------------------

 Structure from the checkpoint file:  "/public/home/users/caep010/.cache/gau_scr/Gau-148289.chk"
 ------
 FOHMUK
 ------
 Charge =  0 Multiplicity = 1

                         Standard orientation:
 ---------------------------------------------------------------------
 Center     Atomic      Atomic             Coordinates (Angstroms)
 Number     Number       Type             X           Y           Z
 ---------------------------------------------------------------------
      1          6           0       -0.552965    0.514779    0.206049
      2          6           0        0.000169   -0.002261    1.498648
      3          1           0       -0.613706   -0.698955    2.058130
      4          1           0        0.614223    0.692851    2.059635
      5          6           0        0.552834   -0.515271    0.204211
      6          1           0        0.343303   -1.522175   -0.128967
      7          7           0       -1.882792    0.038632   -0.221691
      8          8           0       -2.574640    0.838970   -0.838873
      9          8           0       -2.196763   -1.113544    0.075144
     10          1           0       -0.343442    1.522783   -0.124099
     11          7           0        1.882733   -0.037947   -0.221945
     12          8           0        2.196415    1.113556    0.077747
     13          8           0        2.574963   -0.836830   -0.840606
 ---------------------------------------------------------------------

 SCF Done:  E(RB3LYP) =  -526.897484674     A.U. after    1 cycles

 The electronic state is 1-A.
 Alpha  occ. eigenvalues --  -19.20942 -19.20942 -19.20808 -19.20807 -14.59946
 Alpha  occ. eigenvalues --  -14.59946 -10.29554 -10.29528 -10.25917  -1.25294
 Alpha  occ. eigenvalues --   -1.25145  -1.08160  -1.08119  -0.95387  -0.80304
 Alpha  occ. eigenvalues --   -0.74920  -0.63322  -0.61886  -0.58818  -0.57900
 Alpha  occ. eigenvalues --   -0.55558  -0.55426  -0.53631  -0.52916  -0.49017
 Alpha  occ. eigenvalues --   -0.45701  -0.39604  -0.37556  -0.33646  -0.33543
 Alpha  occ. eigenvalues --   -0.33253  -0.32729  -0.31840  -0.31315
 Alpha virt. eigenvalues --   -0.10295  -0.08012   0.03414   0.09189   0.09715
 Alpha virt. eigenvalues --    0.12247   0.12811   0.16295   0.18575   0.19148
 Alpha virt. eigenvalues --    0.20113   0.24511   0.24772   0.32548   0.34912

 Mulliken charges:
               1
     1  C    0.037818
     2  C   -0.220786
     3  H    0.177576
     4  H    0.177576
     5  C    0.037830
     6  H    0.183644
     7  N    0.466036
     8  O   -0.371396
     9  O   -0.383308
    10  H    0.183663
    11  N    0.466058
    12  O   -0.383306
    13  O   -0.371404
 Sum of Mulliken charges =   0.00000

 Dipole moment (field-independent basis, Debye):
    X=              0.0001    Y=             -0.0032    Z=              2.4131  Tot=              2.4131
 Quadrupole moment (field-independent basis, Debye-Ang):
   XX=            -66.6603   YY=            -51.6765   ZZ=            -46.9295
   XY=             -1.4968   XZ=             -0.0029   YZ=             -0.0050

  Exact polarizability:  67.573  -2.805  57.716  -0.004   0.010  46.749
 Approx polarizability:  92.453 -11.808 126.674  -0.019   0.052  77.289

                      1                      2                      3
                      A                      A                      A
 Frequencies --     60.4022                86.2403               146.7448
 Red. masses --     15.7802                 7.1311                 8.8016
 Frc consts  --      0.0339                 0.0312                 0.1117
 IR Inten    --      0.1768                 2.2407                11.1696

                      4                      5                      6
                      A                      A                      A
 Frequencies --    197.9032               265.5772               362.5678
 Red. masses --      4.6044                 8.4909                 3.0878
 Frc consts  --      0.1062                 0.3528                 0.2392
 IR Inten    --      8.5633                 2.0505                 0.3561

                      7                      8                      9
                      A                      A                      A
 Frequencies --    444.9261               515.2633               660.5701
 Red. masses --     10.1222                 5.9212                 4.9951
 Frc consts  --      1.1806                 0.9262                 1.2842
 IR Inten    --      5.3143                17.8030                21.1914

                     10                     11                     12
                      A                      A                      A
 Frequencies --    679.6815               736.8371               745.2489
 Red. masses --      3.1778                 3.2411                 7.1013
 Frc consts  --      0.8649                 1.0368                 2.3238
 IR Inten    --      1.9376                 0.5305                 3.6357

                     13                     14                     15
                      A                      A                      A
 Frequencies --    853.7671               895.5287               944.4414
 Red. masses --      2.7938                 3.2553                 6.0577
 Frc consts  --      1.1998                 1.5382                 3.1835
 IR Inten    --     23.4832                11.7246                 3.4212

                     16                     17                     18
                      A                      A                      A
 Frequencies --    971.5397               992.5565              1075.5503
 Red. masses --      5.6432                 2.4300                 1.5681
 Frc consts  --      3.1383                 1.4105                 1.0688
 IR Inten    --     77.3647                 4.9987                 0.0001

                     19                     20                     21
                      A                      A                      A
 Frequencies --   1092.8703              1108.8775              1137.4883
 Red. masses --      1.2745                 1.1191                 1.4466
 Frc consts  --      0.8969                 0.8108                 1.1028
 IR Inten    --      8.5951                 5.8552                 1.6151

                     22                     23                     24
                      A                      A                      A
 Frequencies --   1222.2276              1266.3298              1381.6889
 Red. masses --      1.6591                 1.3035                 1.7432
 Frc consts  --      1.4603                 1.2316                 1.9607
 IR Inten    --      2.5590                 7.2383                 0.0053

                     25                     26                     27
                      A                      A                      A
 Frequencies --   1415.7284              1420.0608              1463.6586
 Red. masses --     13.8578                 6.8821                 1.7526
 Frc consts  --     16.3645                 8.1769                 2.2121
 IR Inten    --    300.4378                 8.3298                30.8407

                     28                     29                     30
                      A                      A                      A
 Frequencies --   1664.3337              1671.4419              3170.6847
 Red. masses --     12.4544                10.5914                 1.0532
 Frc consts  --     20.3260                17.4336                 6.2380
 IR Inten    --    378.9034                79.4635                 0.4005

                     31                     32                     33
                      A                      A                      A
 Frequencies --   3256.1755              3257.8630              3274.1292
 Red. masses --      1.0905                 1.0951                 1.1191
 Frc consts  --      6.8124                 6.8479                 7.0681
 IR Inten    --      8.2854                 1.4622                 5.5642

 - Thermochemistry -
 -------------------
 Temperature   298.150 Kelvin.  Pressure   1.00000 Atm.
 Atom     1 has atomic number  6 and mass  12.00000

 Molecular mass:   132.01711 amu.
 Principal axes and moments of inertia in atomic units:
                           1         2         3
     Eigenvalues --   481.136181909.059631957.74031
           X            1.00000  -0.00047   0.00000
           Y            0.00047   1.00000  -0.00032
           Z           -0.00000   0.00032   1.00000
 This molecule is an asymmetric top.
 Rotational symmetry number  1.
 Warning -- assumption of classical behavior for rotation
           may cause significant error
 Rotational temperatures (Kelvin)      0.18002     0.04537     0.04424
 Rotational constants (GHZ):           3.75100     0.94536     0.92185
 Zero-point vibrational energy     229915.7 (Joules/Mol)
                                   54.95117 (Kcal/Mol)
 Warning -- explicit consideration of   8 degrees of freedom as
           vibrations may cause significant error
 Vibrational temperatures:     86.91   124.08   211.13   284.74   382.11
          (Kelvin)            521.65   640.15   741.35   950.41   977.91
                             1060.14  1072.25  1228.38  1288.46  1358.84
                             1397.83  1428.07  1547.48  1572.39  1595.43
                             1636.59  1758.51  1821.96  1987.94  2036.91
                             2043.15  2105.88  2394.60  2404.83  4561.90
                             4684.90  4687.33  4710.74

 Zero-point correction=                           0.087570 (Hartree/Particle)
 Thermal correction to Energy=                    0.095332
 Thermal correction to Enthalpy=                  0.096277
 Thermal correction to Gibbs Free Energy=         0.054001
 Sum of electronic and zero-point Energies=           -526.809914
 Sum of electronic and thermal Energies=              -526.802152
 Sum of electronic and thermal Enthalpies=            -526.801208
 Sum of electronic and thermal Free Energies=         -526.843484

                     E (Thermal)             CV                S
                      KCal/Mol        Cal/Mol-Kelvin    Cal/Mol-Kelvin
 Total                   59.822             27.052             88.976
 Electronic               0.000              0.000              0.000
 Translational            0.889              2.981             40.546
 Rotational               0.889              2.981             28.977
 Vibrational             58.044             21.090             19.454
 Vibration     1          0.597              1.973              4.444
 Vibration     2          0.601              1.959              3.744
 Vibration     3          0.617              1.906              2.714
 Vibration     4          0.637              1.843              2.153
 Vibration     5          0.671              1.736              1.625
 Vibration     6          0.736              1.549              1.111
 Vibration     7          0.804              1.372              0.811
 Vibration     8          0.870              1.216              0.621

 Normal termination of Gaussian 09 at Fri Aug 20 15:58:59 2021.
