 Gaussian 09, Revision E.01,
 Gaussian 09:  ES64L-G09RevE.01 30-Nov-2015

 -------------------------
 #P OPT Freq B3LYP/6-31G**
 -------------------------

 ------
 VEGHEU
 ------
 Symbolic Z-matrix:
 Charge =  0 Multiplicity = 1

 SCF Done:  E(RB3LYP) =  -824.869564829     A.U. after   16 cycles
 SCF Done:  E(RB3LYP) =  -824.921672295     A.U. after   14 cycles
 SCF Done:  E(RB3LYP) =  -824.930777401     A.U. after   14 cycles
 SCF Done:  E(RB3LYP) =  -824.914689202     A.U. after   16 cycles
 SCF Done:  E(RB3LYP) =  -824.931406080     A.U. after   11 cycles
 SCF Done:  E(RB3LYP) =  -824.931829509     A.U. after   12 cycles
 SCF Done:  E(RB3LYP) =  -824.931870061     A.U. after   12 cycles
 SCF Done:  E(RB3LYP) =  -824.931891518     A.U. after   12 cycles
 SCF Done:  E(RB3LYP) =  -824.931904738     A.U. after   12 cycles
 SCF Done:  E(RB3LYP) =  -824.931914607     A.U. after    9 cycles
 SCF Done:  E(RB3LYP) =  -824.931920950     A.U. after   10 cycles
 SCF Done:  E(RB3LYP) =  -824.931923052     A.U. after    9 cycles
 SCF Done:  E(RB3LYP) =  -824.931923837     A.U. after    9 cycles
 SCF Done:  E(RB3LYP) =  -824.931924235     A.U. after    9 cycles
 Optimization completed.
    -- Stationary point found.
 Normal termination of Gaussian 09 at Fri Aug 20 15:42:28 2021.

 ----------------------------------------------------------------------
 #P Geom=AllCheck Guess=TCheck SCRF=Check GenChk RB3LYP/6-31G(d,p) Freq
 ----------------------------------------------------------------------

 Structure from the checkpoint file:  "/public/home/users/caep010/.cache/gau_scr/Gau-185372.chk"
 ------
 VEGHEU
 ------
 Charge =  0 Multiplicity = 1

                         Standard orientation:
 ---------------------------------------------------------------------
 Center     Atomic      Atomic             Coordinates (Angstroms)
 Number     Number       Type             X           Y           Z
 ---------------------------------------------------------------------
      1          7           0        0.033012    1.359432    0.002448
      2          7           0       -0.033012   -1.359432    0.002448
      3          6           0       -1.228388   -0.680612   -0.501576
      4          6           0        1.228388    0.680612   -0.501576
      5          1           0       -2.103344   -1.101272   -0.010008
      6          1           0        2.103344    1.101272   -0.010008
      7          6           0       -1.247633    0.820617   -0.208929
      8          6           0        1.247633   -0.820617   -0.208929
      9          7           0        0.184140    2.770842    0.254544
     10          7           0       -0.184140   -2.770842    0.254544
     11          8           0        1.228388    3.258168   -0.157398
     12          8           0       -1.228388   -3.258168   -0.157398
     13          1           0       -1.357939   -0.831626   -1.580997
     14          1           0        1.357939    0.831626   -1.580997
     15          8           0       -2.285815    1.431746   -0.202104
     16          8           0        2.285815   -1.431746   -0.202104
     17          8           0       -0.706934    3.315445    0.866389
     18          8           0        0.706934   -3.315445    0.866389
 ---------------------------------------------------------------------

 SCF Done:  E(RB3LYP) =  -824.931924235     A.U. after    1 cycles

 The electronic state is 1-A.
 Alpha  occ. eigenvalues --  -19.22534 -19.22534 -19.22447 -19.22446 -19.18575
 Alpha  occ. eigenvalues --  -19.18575 -14.64312 -14.64312 -14.46668 -14.46668
 Alpha  occ. eigenvalues --  -10.36356 -10.36356 -10.29547 -10.29546  -1.28648
 Alpha  occ. eigenvalues --   -1.28620  -1.11347  -1.11217  -1.10805  -1.10135
 Alpha  occ. eigenvalues --   -1.02438  -1.00124  -0.82789  -0.81233  -0.74162
 Alpha  occ. eigenvalues --   -0.73355  -0.62888  -0.60846  -0.60086  -0.59947
 Alpha  occ. eigenvalues --   -0.58997  -0.58179  -0.54457  -0.53996  -0.53677
 Alpha  occ. eigenvalues --   -0.53349  -0.49670  -0.49141  -0.47462  -0.47342
 Alpha  occ. eigenvalues --   -0.45092  -0.41793  -0.37929  -0.36673  -0.35400
 Alpha  occ. eigenvalues --   -0.35211  -0.34962  -0.33834  -0.32892  -0.32677
 Alpha  occ. eigenvalues --   -0.30512  -0.30344
 Alpha virt. eigenvalues --   -0.10178  -0.09740  -0.03435  -0.03282   0.02732
 Alpha virt. eigenvalues --    0.04048   0.06766   0.09769   0.10829   0.12273
 Alpha virt. eigenvalues --    0.12630   0.14449   0.16362   0.22572   0.23112

 Mulliken charges:
               1
     1  N   -0.395345
     2  N   -0.395345
     3  C   -0.129120
     4  C   -0.129120
     5  H    0.207159
     6  H    0.207159
     7  C    0.600436
     8  C    0.600436
     9  N    0.665021
    10  N    0.665021
    11  O   -0.380762
    12  O   -0.380762
    13  H    0.180250
    14  H    0.180250
    15  O   -0.417605
    16  O   -0.417605
    17  O   -0.330035
    18  O   -0.330035
 Sum of Mulliken charges =  -0.00000

 Dipole moment (field-independent basis, Debye):
    X=              0.0000    Y=             -0.0000    Z=             -1.9644  Tot=              1.9644
 Quadrupole moment (field-independent basis, Debye-Ang):
   XX=            -86.3074   YY=           -100.1278   ZZ=            -72.4799
   XY=              7.6787   XZ=             -0.0000   YZ=              0.0000

  Exact polarizability: 100.089   1.782 109.646   0.000   0.000  53.433
 Approx polarizability: 202.697  -3.883 147.921   0.000   0.000  92.597

                      1                      2                      3
                      A                      A                      B
 Frequencies --     41.5521                56.7140                67.7311
 Red. masses --     14.6478                 5.7273                15.5786
 Frc consts  --      0.0149                 0.0109                 0.0421
 IR Inten    --      0.0790                12.5978                 0.1953

                      4                      5                      6
                      A                      B                      B
 Frequencies --     71.7936               109.6517               174.5824
 Red. masses --     14.5380                 4.1467                 6.8160
 Frc consts  --      0.0441                 0.0294                 0.1224
 IR Inten    --      1.8509                 1.7198                 6.4551

                      7                      8                      9
                      A                      B                      A
 Frequencies --    203.1498               208.3287               267.0806
 Red. masses --      2.9016                 6.3623                10.4999
 Frc consts  --      0.0706                 0.1627                 0.4413
 IR Inten    --      2.2205                 0.8815                 1.1528

                     10                     11                     12
                      A                      B                      A
 Frequencies --    272.6039               362.4726               422.2170
 Red. masses --     12.3074                11.4035                11.6271
 Frc consts  --      0.5389                 0.8827                 1.2212
 IR Inten    --      0.0390                14.8000                 0.0151

                     13                     14                     15
                      A                      B                      B
 Frequencies --    456.7464               495.7182               540.3190
 Red. masses --      8.2482                 8.8585                 6.0002
 Frc consts  --      1.0138                 1.2826                 1.0321
 IR Inten    --      1.7494                 2.5682                 7.9306

                     16                     17                     18
                      A                      B                      A
 Frequencies --    561.3750               589.5407               634.8448
 Red. masses --      5.8352                 3.8444                 4.7695
 Frc consts  --      1.0835                 0.7872                 1.1326
 IR Inten    --      7.8342                12.0512                 1.4226

                     19                     20                     21
                      A                      B                      A
 Frequencies --    694.6557               745.8037               764.6314
 Red. masses --      5.6109                11.2529                11.1070
 Frc consts  --      1.5952                 3.6878                 3.8261
 IR Inten    --      0.8761                 9.0828                24.9592

                     22                     23                     24
                      A                      B                      B
 Frequencies --    801.1316               807.5722               852.8734
 Red. masses --      9.1413                 9.9688                 5.3984
 Frc consts  --      3.4568                 3.8305                 2.3136
 IR Inten    --      2.2839                60.1600                55.3896

                     25                     26                     27
                      A                      B                      A
 Frequencies --    922.6737               942.2991               989.9689
 Red. masses --      9.6378                 3.0117                 2.1077
 Frc consts  --      4.8342                 1.5756                 1.2170
 IR Inten    --     20.9095               240.7804                 0.5523

                     28                     29                     30
                      B                      B                      A
 Frequencies --   1053.4899              1153.1736              1183.0715
 Red. masses --      2.8279                 6.8646                 3.6744
 Frc consts  --      1.8491                 5.3784                 3.0301
 IR Inten    --    187.8228               450.8478                19.4985

                     31                     32                     33
                      B                      A                      A
 Frequencies --   1238.1019              1257.3224              1280.1549
 Red. masses --      2.2080                 1.1771                 4.9372
 Frc consts  --      1.9942                 1.0964                 4.7672
 IR Inten    --     21.0502                 7.4435                 0.0593

                     34                     35                     36
                      B                      B                      A
 Frequencies --   1284.5848              1318.5303              1318.9780
 Red. masses --      2.0417                 3.1140                 3.2844
 Frc consts  --      1.9850                 3.1897                 3.3666
 IR Inten    --    377.2454               307.7688                12.0537

                     37                     38                     39
                      A                      B                      B
 Frequencies --   1391.8141              1399.7671              1490.8588
 Red. masses --      2.5805                 2.1629                 1.0925
 Frc consts  --      2.9452                 2.4969                 1.4307
 IR Inten    --      0.0281                28.9055                22.5560

                     40                     41                     42
                      A                      A                      B
 Frequencies --   1504.1901              1714.0052              1714.5998
 Red. masses --      1.1242                14.4055                14.3722
 Frc consts  --      1.4987                24.9347                24.8942
 IR Inten    --      0.9843               136.7015               212.7229

                     43                     44                     45
                      B                      A                      A
 Frequencies --   1851.8861              1854.6451              3053.3042
 Red. masses --     12.6891                12.6696                 1.0717
 Frc consts  --     25.6396                25.6764                 5.8863
 IR Inten    --    633.3327                 2.9821                 6.5484

                     46                     47                     48
                      B                      B                      A
 Frequencies --   3054.2830              3176.9359              3177.2147
 Red. masses --      1.0721                 1.0923                 1.0926
 Frc consts  --      5.8927                 6.4954                 6.4983
 IR Inten    --      9.4222                10.0706                 0.1153

 - Thermochemistry -
 -------------------
 Temperature   298.150 Kelvin.  Pressure   1.00000 Atm.
 Atom     1 has atomic number  7 and mass  14.00307

 Molecular mass:   204.01308 amu.
 Principal axes and moments of inertia in atomic units:
                           1         2         3
     Eigenvalues --  1275.070783914.736054904.10992
           X           -0.04558   0.99896   0.00000
           Y            0.99896   0.04558   0.00000
           Z           -0.00000  -0.00000   1.00000
 This molecule is an asymmetric top.
 Rotational symmetry number  2.
 Warning -- assumption of classical behavior for rotation
           may cause significant error
 Rotational temperatures (Kelvin)      0.06793     0.02213     0.01766
 Rotational constants (GHZ):           1.41540     0.46101     0.36801
 Zero-point vibrational energy     296248.9 (Joules/Mol)
                                   70.80518 (Kcal/Mol)
 Warning -- explicit consideration of  17 degrees of freedom as
           vibrations may cause significant error
 Vibrational temperatures:     59.78    81.60    97.45   103.29   157.76
          (Kelvin)            251.18   292.29   299.74   384.27   392.22
                              521.52   607.48   657.16   713.23   777.40
                              807.69   848.22   913.40   999.45  1073.04
                             1100.13  1152.65  1161.91  1227.09  1327.52
                             1355.76  1424.34  1515.74  1659.16  1702.17
                             1781.35  1809.00  1841.86  1848.23  1897.07
                             1897.71  2002.51  2013.95  2145.01  2164.19
                             2466.07  2466.92  2664.45  2668.42  4393.02
                             4394.43  4570.90  4571.30

 Zero-point correction=                           0.112835 (Hartree/Particle)
 Thermal correction to Energy=                    0.124901
 Thermal correction to Enthalpy=                  0.125845
 Thermal correction to Gibbs Free Energy=         0.073265
 Sum of electronic and zero-point Energies=           -824.819089
 Sum of electronic and thermal Energies=              -824.807023
 Sum of electronic and thermal Enthalpies=            -824.806079
 Sum of electronic and thermal Free Energies=         -824.858659

                     E (Thermal)             CV                S
                      KCal/Mol        Cal/Mol-Kelvin    Cal/Mol-Kelvin
 Total                   78.377             42.305            110.664
 Electronic               0.000              0.000              0.000
 Translational            0.889              2.981             41.843
 Rotational               0.889              2.981             30.194
 Vibrational             76.599             36.343             38.627
 Vibration     1          0.594              1.981              5.184
 Vibration     2          0.596              1.975              4.568
 Vibration     3          0.598              1.970              4.218
 Vibration     4          0.598              1.967              4.104
 Vibration     5          0.606              1.941              3.275
 Vibration     6          0.627              1.874              2.386
 Vibration     7          0.639              1.835              2.104
 Vibration     8          0.642              1.828              2.058
 Vibration     9          0.672              1.734              1.615
 Vibration    10          0.676              1.724              1.580
 Vibration    11          0.736              1.550              1.111
 Vibration    12          0.785              1.422              0.884
 Vibration    13          0.815              1.346              0.776
 Vibration    14          0.851              1.260              0.669
 Vibration    15          0.895              1.161              0.565
 Vibration    16          0.917              1.115              0.521
 Vibration    17          0.947              1.054              0.468

 Normal termination of Gaussian 09 at Fri Aug 20 15:42:49 2021.
