 Gaussian 09, Revision E.01,
 Gaussian 09:  ES64L-G09RevE.01 30-Nov-2015

 -------------------------
 #P OPT Freq B3LYP/6-31G**
 -------------------------

 ------
 NIMFOE
 ------
 Symbolic Z-matrix:
 Charge =  0 Multiplicity = 1

 SCF Done:  E(RB3LYP) =  -619.254425277     A.U. after   16 cycles
 SCF Done:  E(RB3LYP) =  -619.306084705     A.U. after   15 cycles
 SCF Done:  E(RB3LYP) =  -619.309358556     A.U. after   16 cycles
 SCF Done:  E(RB3LYP) =  -619.297198383     A.U. after   17 cycles
 SCF Done:  E(RB3LYP) =  -619.311278112     A.U. after   12 cycles
 SCF Done:  E(RB3LYP) =  -619.311811274     A.U. after   14 cycles
 SCF Done:  E(RB3LYP) =  -619.311933737     A.U. after   12 cycles
 SCF Done:  E(RB3LYP) =  -619.311975125     A.U. after   11 cycles
 SCF Done:  E(RB3LYP) =  -619.311978491     A.U. after   10 cycles
 SCF Done:  E(RB3LYP) =  -619.311981817     A.U. after   10 cycles
 SCF Done:  E(RB3LYP) =  -619.311983384     A.U. after   10 cycles
 SCF Done:  E(RB3LYP) =  -619.311984213     A.U. after   10 cycles
 SCF Done:  E(RB3LYP) =  -619.311985421     A.U. after   12 cycles
 SCF Done:  E(RB3LYP) =  -619.311986881     A.U. after   12 cycles
 SCF Done:  E(RB3LYP) =  -619.311987995     A.U. after   12 cycles
 SCF Done:  E(RB3LYP) =  -619.311988274     A.U. after    9 cycles
 SCF Done:  E(RB3LYP) =  -619.311988304     A.U. after    8 cycles
 Optimization completed.
    -- Stationary point found.
 Normal termination of Gaussian 09 at Fri Aug 20 15:45:13 2021.

 ----------------------------------------------------------------------
 #P Geom=AllCheck Guess=TCheck SCRF=Check GenChk RB3LYP/6-31G(d,p) Freq
 ----------------------------------------------------------------------

 Structure from the checkpoint file:  "/public/home/users/caep010/.cache/gau_scr/Gau-195698.chk"
 ------
 NIMFOE
 ------
 Charge =  0 Multiplicity = 1

                         Standard orientation:
 ---------------------------------------------------------------------
 Center     Atomic      Atomic             Coordinates (Angstroms)
 Number     Number       Type             X           Y           Z
 ---------------------------------------------------------------------
      1          8           0       -0.458402    2.238353   -0.000243
      2          6           0        0.029223    1.130361   -0.000066
      3          7           0        1.441287    0.984512    0.000119
      4          6           0       -0.646190   -0.179735   -0.000017
      5          6           0        0.076197   -1.332201   -0.000036
      6          7           0        1.430045   -1.331394   -0.000095
      7          1           0        1.953717   -2.196335    0.000042
      8          1           0       -0.430335   -2.289615   -0.000044
      9          7           0       -2.098176   -0.306243    0.000042
     10          8           0       -2.768882    0.716926    0.000269
     11          8           0       -2.558426   -1.455382   -0.000115
     12          6           0        2.210190   -0.160817    0.000039
     13          8           0        3.422063   -0.193013    0.000083
     14          1           0        1.957190    1.857113    0.000076
 ---------------------------------------------------------------------

 SCF Done:  E(RB3LYP) =  -619.311988304     A.U. after    2 cycles

 The electronic state is 1-A.
 Alpha  occ. eigenvalues --  -19.19022 -19.18592 -19.16501 -19.15627 -14.58698
 Alpha  occ. eigenvalues --  -14.44727 -14.41779 -10.37323 -10.34259 -10.31204
 Alpha  occ. eigenvalues --  -10.27692  -1.23480  -1.11025  -1.07630  -1.06007
 Alpha  occ. eigenvalues --   -1.01897  -0.95864  -0.86664  -0.74833  -0.70786
 Alpha  occ. eigenvalues --   -0.69606  -0.60387  -0.59415  -0.55137  -0.54651
 Alpha  occ. eigenvalues --   -0.54422  -0.51534  -0.50743  -0.49323  -0.46350
 Alpha  occ. eigenvalues --   -0.44664  -0.43376  -0.40343  -0.32955  -0.32192
 Alpha  occ. eigenvalues --   -0.31728  -0.31227  -0.30095  -0.28847  -0.28348
 Alpha virt. eigenvalues --   -0.10246  -0.05274  -0.00839   0.02802   0.08146
 Alpha virt. eigenvalues --    0.10102   0.10398   0.13965   0.16906   0.17577
 Alpha virt. eigenvalues --    0.23017   0.24887   0.27365   0.29744   0.30153

 Mulliken charges:
               1
     1  O   -0.442624
     2  C    0.610034
     3  N   -0.615105
     4  C    0.150913
     5  C    0.170468
     6  N   -0.572061
     7  H    0.305917
     8  H    0.193637
     9  N    0.379300
    10  O   -0.353291
    11  O   -0.418945
    12  C    0.756187
    13  O   -0.468886
    14  H    0.304455
 Sum of Mulliken charges =  -0.00000

 Dipole moment (field-independent basis, Debye):
    X=              3.4873    Y=             -3.5187    Z=              0.0002  Tot=              4.9541
 Quadrupole moment (field-independent basis, Debye-Ang):
   XX=            -79.8524   YY=            -57.2386   ZZ=            -58.4247
   XY=              0.2469   XZ=              0.0000   YZ=             -0.0002

  Exact polarizability: 106.572  -8.979  83.515   0.000   0.001  29.058
 Approx polarizability: 172.979 -34.443 169.267   0.000   0.006  44.980

                      1                      2                      3
                      A                      A                      A
 Frequencies --     19.2949                88.5718               141.0206
 Red. masses --     14.8438                 8.7827                 9.4358
 Frc consts  --      0.0033                 0.0406                 0.1106
 IR Inten    --      0.4154                 5.5173                 1.5338

                      4                      5                      6
                      A                      A                      A
 Frequencies --    227.7950               263.6469               348.5583
 Red. masses --     12.0653                10.0569                14.3588
 Frc consts  --      0.3689                 0.4119                 1.0278
 IR Inten    --      2.1201                 1.4320                 4.4982

                      7                      8                      9
                      A                      A                      A
 Frequencies --    384.0002               403.0151               448.0535
 Red. masses --     12.9228                 3.0378                11.9435
 Frc consts  --      1.1227                 0.2907                 1.4127
 IR Inten    --     14.4376                20.7942                10.4668

                     10                     11                     12
                      A                      A                      A
 Frequencies --    542.0122               618.2946               628.3714
 Red. masses --      9.0748                 1.1953                 7.2909
 Frc consts  --      1.5707                 0.2692                 1.6962
 IR Inten    --      4.8295                35.2981                27.1187

                     13                     14                     15
                      A                      A                      A
 Frequencies --    640.7136               685.0820               726.5356
 Red. masses --      5.8130                 1.2442                 6.4155
 Frc consts  --      1.4060                 0.3441                 1.9952
 IR Inten    --      5.8493                98.9352                 0.4959

                     16                     17                     18
                      A                      A                      A
 Frequencies --    750.2118               775.7710               778.0137
 Red. masses --      7.8927                 8.9757                 8.8193
 Frc consts  --      2.6172                 3.1826                 3.1453
 IR Inten    --     71.5158                28.3702                 0.9499

                     19                     20                     21
                      A                      A                      A
 Frequencies --    850.5086               965.8882               987.8777
 Red. masses --      9.8447                 3.1021                 1.3722
 Frc consts  --      4.1958                 1.7052                 0.7890
 IR Inten    --     39.3599                 5.4306                 6.3190

                     22                     23                     24
                      A                      A                      A
 Frequencies --   1106.2075              1183.0935              1223.8171
 Red. masses --      4.8350                 2.3493                 2.1508
 Frc consts  --      3.4860                 1.9374                 1.8979
 IR Inten    --      0.4668                71.9811                45.7701

                     25                     26                     27
                      A                      A                      A
 Frequencies --   1341.3891              1382.7155              1393.3013
 Red. masses --      2.8041                 5.5921                 2.5311
 Frc consts  --      2.9727                 6.2993                 2.8950
 IR Inten    --    191.0765               403.7580                14.0425

                     28                     29                     30
                      A                      A                      A
 Frequencies --   1416.0289              1516.1368              1632.9374
 Red. masses --      2.2922                 2.9264                12.5035
 Frc consts  --      2.7080                 3.9633                19.6436
 IR Inten    --     24.2634               124.2481                69.0587

                     31                     32                     33
                      A                      A                      A
 Frequencies --   1679.3816              1832.9757              1859.0610
 Red. masses --      6.9184                 9.9878                 9.1375
 Frc consts  --     11.4962                19.7712                18.6066
 IR Inten    --    191.9977               549.3482               543.6956

                     34                     35                     36
                      A                      A                      A
 Frequencies --   3249.3291              3611.0744              3639.0302
 Red. masses --      1.0939                 1.0776                 1.0793
 Frc consts  --      6.8050                 8.2792                 8.4212
 IR Inten    --      7.4646                81.9099               132.2866

 - Thermochemistry -
 -------------------
 Temperature   298.150 Kelvin.  Pressure   1.00000 Atm.
 Atom     1 has atomic number  8 and mass  15.99491

 Molecular mass:   157.01236 amu.
 Principal axes and moments of inertia in atomic units:
                           1         2         3
     Eigenvalues --   762.235772174.400802936.63655
           X            1.00000   0.00068   0.00000
           Y           -0.00068   1.00000   0.00000
           Z           -0.00000  -0.00000   1.00000
 This molecule is an asymmetric top.
 Rotational symmetry number  1.
 Warning -- assumption of classical behavior for rotation
           may cause significant error
 Rotational temperatures (Kelvin)      0.11363     0.03983     0.02949
 Rotational constants (GHZ):           2.36769     0.82999     0.61456
 Zero-point vibrational energy     235303.8 (Joules/Mol)
                                   56.23895 (Kcal/Mol)
 Warning -- explicit consideration of  11 degrees of freedom as
           vibrations may cause significant error
 Vibrational temperatures:     27.76   127.43   202.90   327.75   379.33
          (Kelvin)            501.50   552.49   579.85   644.65   779.83
                              889.59   904.09   921.84   985.68  1045.32
                             1079.39  1116.16  1119.39  1223.69  1389.70
                             1421.33  1591.58  1702.21  1760.80  1929.96
                             1989.42  2004.65  2037.35  2181.38  2349.43
                             2416.25  2637.24  2674.77  4675.05  5195.52
                             5235.75

 Zero-point correction=                           0.089622 (Hartree/Particle)
 Thermal correction to Energy=                    0.098380
 Thermal correction to Enthalpy=                  0.099324
 Thermal correction to Gibbs Free Energy=         0.053998
 Sum of electronic and zero-point Energies=           -619.222366
 Sum of electronic and thermal Energies=              -619.213608
 Sum of electronic and thermal Enthalpies=            -619.212664
 Sum of electronic and thermal Free Energies=         -619.257991

                     E (Thermal)             CV                S
                      KCal/Mol        Cal/Mol-Kelvin    Cal/Mol-Kelvin
 Total                   61.734             31.797             95.397
 Electronic               0.000              0.000              0.000
 Translational            0.889              2.981             41.063
 Rotational               0.889              2.981             29.966
 Vibrational             59.957             25.835             24.368
 Vibration     1          0.593              1.986              6.705
 Vibration     2          0.601              1.957              3.691
 Vibration     3          0.615              1.912              2.790
 Vibration     4          0.651              1.799              1.896
 Vibration     5          0.670              1.740              1.638
 Vibration     6          0.726              1.578              1.173
 Vibration     7          0.753              1.504              1.023
 Vibration     8          0.768              1.464              0.952
 Vibration     9          0.807              1.365              0.802
 Vibration    10          0.897              1.157              0.561
 Vibration    11          0.978              0.993              0.419

 Optimization completed.
    -- Stationary point found.
 Normal termination of Gaussian 09 at Fri Aug 20 15:45:30 2021.
