 Gaussian 09, Revision E.01,
 Gaussian 09:  ES64L-G09RevE.01 30-Nov-2015

 -------------------------
 #P OPT Freq B3LYP/6-31G**
 -------------------------

 ------
 JEJZAA
 ------
 Symbolic Z-matrix:
 Charge =  0 Multiplicity = 1

 SCF Done:  E(RB3LYP) =  -583.267932568     A.U. after   18 cycles
 SCF Done:  E(RB3LYP) =  -583.283464039     A.U. after   15 cycles
 SCF Done:  E(RB3LYP) =  -583.279759676     A.U. after   16 cycles
 SCF Done:  E(RB3LYP) =  -583.285215860     A.U. after   12 cycles
 SCF Done:  E(RB3LYP) =  -583.285616293     A.U. after   14 cycles
 SCF Done:  E(RB3LYP) =  -583.286337047     A.U. after   14 cycles
 SCF Done:  E(RB3LYP) =  -583.286490510     A.U. after   13 cycles
 SCF Done:  E(RB3LYP) =  -583.286535811     A.U. after   11 cycles
 SCF Done:  E(RB3LYP) =  -583.286611525     A.U. after   13 cycles
 SCF Done:  E(RB3LYP) =  -583.286668423     A.U. after   13 cycles
 SCF Done:  E(RB3LYP) =  -583.286611193     A.U. after   13 cycles
 SCF Done:  E(RB3LYP) =  -583.286195008     A.U. after   16 cycles
 SCF Done:  E(RB3LYP) =  -583.286849172     A.U. after   12 cycles
 SCF Done:  E(RB3LYP) =  -583.286945349     A.U. after   14 cycles
 SCF Done:  E(RB3LYP) =  -583.287015419     A.U. after   13 cycles
 SCF Done:  E(RB3LYP) =  -583.287061269     A.U. after   13 cycles
 SCF Done:  E(RB3LYP) =  -583.287075220     A.U. after   13 cycles
 SCF Done:  E(RB3LYP) =  -583.287075643     A.U. after   10 cycles
 SCF Done:  E(RB3LYP) =  -583.287075735     A.U. after    9 cycles
 Optimization completed.
    -- Stationary point found.
 Normal termination of Gaussian 09 at Fri Aug 20 15:36:54 2021.

 ----------------------------------------------------------------------
 #P Geom=AllCheck Guess=TCheck SCRF=Check GenChk RB3LYP/6-31G(d,p) Freq
 ----------------------------------------------------------------------

 Structure from the checkpoint file:  "/public/home/users/caep010/.cache/gau_scr/Gau-159216.chk"
 ------
 JEJZAA
 ------
 Charge =  0 Multiplicity = 1

                         Standard orientation:
 ---------------------------------------------------------------------
 Center     Atomic      Atomic             Coordinates (Angstroms)
 Number     Number       Type             X           Y           Z
 ---------------------------------------------------------------------
      1          8           0       -3.794676   -0.306763   -0.207626
      2          7           0       -2.545080   -0.107581   -0.068604
      3          6           0       -2.013860    1.153162   -0.186655
      4          1           0       -2.744920    1.919092   -0.404322
      5          6           0       -0.659579    1.381141   -0.050293
      6          1           0       -0.292725    2.396096   -0.168589
      7          6           0        0.215143    0.325292    0.233958
      8          6           0       -0.332695   -0.957299    0.373697
      9          1           0        0.294655   -1.808349    0.597012
     10          6           0       -1.688414   -1.147504    0.206833
     11          1           0       -2.181476   -2.106058    0.288981
     12          7           0        1.578421    0.612128    0.455159
     13          7           0        2.621646   -0.131964   -0.100447
     14          1           0        1.870778    1.579815    0.509426
     15          8           0        2.382564   -1.277201   -0.460207
     16          8           0        3.705263    0.444286   -0.118479
 ---------------------------------------------------------------------

 SCF Done:  E(RB3LYP) =  -583.287075735     A.U. after    1 cycles

 The electronic state is 1-A.
 Alpha  occ. eigenvalues --  -19.20020 -19.19707 -19.12994 -14.62083 -14.49701
 Alpha  occ. eigenvalues --  -14.44106 -10.27770 -10.25609 -10.25335 -10.24267
 Alpha  occ. eigenvalues --  -10.23522  -1.26153  -1.11996  -1.08155  -1.00032
 Alpha  occ. eigenvalues --   -0.91502  -0.81960  -0.80909  -0.71731  -0.69088
 Alpha  occ. eigenvalues --   -0.64622  -0.58990  -0.58079  -0.56669  -0.53241
 Alpha  occ. eigenvalues --   -0.52630  -0.50935  -0.48623  -0.48463  -0.46930
 Alpha  occ. eigenvalues --   -0.43375  -0.41536  -0.39613  -0.34221  -0.32955
 Alpha  occ. eigenvalues --   -0.31911  -0.31222  -0.30025  -0.25818  -0.22171
 Alpha virt. eigenvalues --   -0.07694  -0.04515  -0.04181   0.05265   0.07463
 Alpha virt. eigenvalues --    0.08756   0.11905   0.13448   0.14191   0.16394
 Alpha virt. eigenvalues --    0.17205   0.21683   0.24929   0.25847   0.26511

 Mulliken charges:
               1
     1  O   -0.506194
     2  N   -0.025826
     3  C    0.130242
     4  H    0.147069
     5  C   -0.156543
     6  H    0.115332
     7  C    0.310769
     8  C   -0.107417
     9  H    0.145904
    10  C    0.119696
    11  H    0.149375
    12  N   -0.427620
    13  N    0.616146
    14  H    0.291121
    15  O   -0.402503
    16  O   -0.399551
 Sum of Mulliken charges =  -0.00000

 Dipole moment (field-independent basis, Debye):
    X=              0.5615    Y=              2.6020    Z=              1.0921  Tot=              2.8772
 Quadrupole moment (field-independent basis, Debye-Ang):
   XX=            -89.4389   YY=            -52.5372   ZZ=            -62.2307
   XY=              1.1278   XZ=              1.1947   YZ=             -2.0102

  Exact polarizability: 151.633   5.393  85.559   3.641  -1.898  35.110
 Approx polarizability: 292.184  23.198 158.932  13.293   0.359  57.263

                      1                      2                      3
                      A                      A                      A
 Frequencies --     42.1253                72.3761               124.3389
 Red. masses --      6.3664                11.8177                 8.4498
 Frc consts  --      0.0067                 0.0365                 0.0770
 IR Inten    --      3.9203                 0.9650                 6.1129

                      4                      5                      6
                      A                      A                      A
 Frequencies --    194.9228               327.3690               363.6320
 Red. masses --      9.1271                 7.7591                 8.2438
 Frc consts  --      0.2043                 0.4899                 0.6423
 IR Inten    --      7.0224                 1.0121                 1.6238

                      7                      8                      9
                      A                      A                      A
 Frequencies --    385.2257               428.3251               494.9973
 Red. masses --      9.4824                 3.2006                 5.7099
 Frc consts  --      0.8291                 0.3460                 0.8243
 IR Inten    --      1.8420                 0.3953                 7.4873

                     10                     11                     12
                      A                      A                      A
 Frequencies --    526.9644               556.7460               609.0106
 Red. masses --      2.4584                 1.3275                 8.0438
 Frc consts  --      0.4022                 0.2424                 1.7578
 IR Inten    --      2.3057               112.1201                28.0531

                     13                     14                     15
                      A                      A                      A
 Frequencies --    667.9239               707.6949               752.4195
 Red. masses --      5.8973                 4.4721                12.2960
 Frc consts  --      1.5501                 1.3196                 4.1014
 IR Inten    --      7.0599                 0.5897                13.7487

                     16                     17                     18
                      A                      A                      A
 Frequencies --    775.9896               816.4015               846.1594
 Red. masses --      6.5747                 1.2660                 1.8614
 Frc consts  --      2.3326                 0.4972                 0.7852
 IR Inten    --     30.9873                 4.4209                59.5807

                     19                     20                     21
                      A                      A                      A
 Frequencies --    860.7489               905.5215               931.1381
 Red. masses --      4.3476                 4.4677                 1.3080
 Frc consts  --      1.8978                 2.1584                 0.6682
 IR Inten    --      9.0838                 0.8460                 0.1371

                     22                     23                     24
                      A                      A                      A
 Frequencies --    951.0929              1010.2701              1044.0966
 Red. masses --      1.3079                 6.4103                 2.5327
 Frc consts  --      0.6971                 3.8548                 1.6268
 IR Inten    --      1.3256               134.4686                 3.1784

                     25                     26                     27
                      A                      A                      A
 Frequencies --   1123.5250              1198.9761              1251.9078
 Red. masses --      1.3854                 1.1324                 2.4991
 Frc consts  --      1.0303                 0.9591                 2.3077
 IR Inten    --      7.9402                21.0396                48.8981

                     28                     29                     30
                      A                      A                      A
 Frequencies --   1282.9579              1323.4351              1362.5094
 Red. masses --      4.5111                 1.4907                 7.0037
 Frc consts  --      4.3748                 1.5383                 7.6605
 IR Inten    --     80.4420                87.0790               577.3913

                     31                     32                     33
                      A                      A                      A
 Frequencies --   1378.8364              1426.6212              1513.8370
 Red. masses --      5.4428                 1.8023                 3.0342
 Frc consts  --      6.0968                 2.1612                 4.0969
 IR Inten    --     30.1892                42.3134                13.8441

                     34                     35                     36
                      A                      A                      A
 Frequencies --   1527.4150              1584.0052              1686.5923
 Red. masses --      2.8219                 6.6112                 5.7793
 Frc consts  --      3.8789                 9.7733                 9.6861
 IR Inten    --    171.4806                 1.1309                21.5822

                     37                     38                     39
                      A                      A                      A
 Frequencies --   1709.3245              3202.1335              3260.3651
 Red. masses --      6.0235                 1.0914                 1.0898
 Frc consts  --     10.3692                 6.5933                 6.8253
 IR Inten    --    242.1054                 3.3569                 0.2607

                     40                     41                     42
                      A                      A                      A
 Frequencies --   3267.5602              3271.8634              3613.3279
 Red. masses --      1.0943                 1.0967                 1.0778
 Frc consts  --      6.8836                 6.9173                 8.2906
 IR Inten    --      1.0566                 1.6230                50.9392

 - Thermochemistry -
 -------------------
 Temperature   298.150 Kelvin.  Pressure   1.00000 Atm.
 Atom     1 has atomic number  8 and mass  15.99491

 Molecular mass:   155.03309 amu.
 Principal axes and moments of inertia in atomic units:
                           1         2         3
     Eigenvalues --   480.919693142.967043541.33679
           X            1.00000   0.00138   0.00187
           Y           -0.00134   0.99983  -0.01823
           Z           -0.00190   0.01822   0.99983
 This molecule is an asymmetric top.
 Rotational symmetry number  1.
 Warning -- assumption of classical behavior for rotation
           may cause significant error
 Rotational temperatures (Kelvin)      0.18010     0.02756     0.02446
 Rotational constants (GHZ):           3.75269     0.57422     0.50962
 Zero-point vibrational energy     295362.1 (Joules/Mol)
                                   70.59323 (Kcal/Mol)
 Warning -- explicit consideration of  12 degrees of freedom as
           vibrations may cause significant error
 Vibrational temperatures:     60.61   104.13   178.90   280.45   471.01
          (Kelvin)            523.18   554.25   616.26   712.19   758.18
                              801.03   876.23   960.99  1018.21  1082.56
                             1116.47  1174.62  1217.43  1238.42  1302.84
                             1339.70  1368.41  1453.55  1502.22  1616.50
                             1725.06  1801.21  1845.89  1904.13  1960.34
                             1983.84  2052.59  2178.07  2197.61  2279.03
                             2426.63  2459.33  4607.15  4690.93  4701.28
                             4707.48  5198.77

 Zero-point correction=                           0.112497 (Hartree/Particle)
 Thermal correction to Energy=                    0.121286
 Thermal correction to Enthalpy=                  0.122230
 Thermal correction to Gibbs Free Energy=         0.077326
 Sum of electronic and zero-point Energies=           -583.174578
 Sum of electronic and thermal Energies=              -583.165789
 Sum of electronic and thermal Enthalpies=            -583.164845
 Sum of electronic and thermal Free Energies=         -583.209750

                     E (Thermal)             CV                S
                      KCal/Mol        Cal/Mol-Kelvin    Cal/Mol-Kelvin
 Total                   76.108             32.855             94.509
 Electronic               0.000              0.000              0.000
 Translational            0.889              2.981             41.025
 Rotational               0.889              2.981             30.060
 Vibrational             74.331             26.893             23.424
 Vibration     1          0.595              1.980              5.157
 Vibration     2          0.598              1.967              4.088
 Vibration     3          0.610              1.929              3.032
 Vibration     4          0.636              1.847              2.181
 Vibration     5          0.711              1.621              1.273
 Vibration     6          0.737              1.547              1.107
 Vibration     7          0.754              1.502              1.019
 Vibration     8          0.790              1.409              0.864
 Vibration     9          0.851              1.261              0.671
 Vibration    10          0.882              1.190              0.594
 Vibration    11          0.912              1.125              0.530
 Vibration    12          0.968              1.013              0.434

 Optimization completed.
    -- Stationary point found.
 Normal termination of Gaussian 09 at Fri Aug 20 15:37:13 2021.
