 Gaussian 09, Revision E.01,
 Gaussian 09:  ES64L-G09RevE.01 30-Nov-2015

 -------------------------
 #P OPT Freq B3LYP/6-31G**
 -------------------------

 ------
 IJIVEC
 ------
 Symbolic Z-matrix:
 Charge =  0 Multiplicity = 1

 SCF Done:  E(RB3LYP) =  -583.167980459     A.U. after   17 cycles
 SCF Done:  E(RB3LYP) =  -583.248477091     A.U. after   13 cycles
 SCF Done:  E(RB3LYP) =  -583.272449236     A.U. after   15 cycles
 SCF Done:  E(RB3LYP) =  -583.279169441     A.U. after   14 cycles
 SCF Done:  E(RB3LYP) =  -583.284243566     A.U. after   15 cycles
 SCF Done:  E(RB3LYP) =  -583.288628208     A.U. after   15 cycles
 SCF Done:  E(RB3LYP) =  -583.290287249     A.U. after   14 cycles
 SCF Done:  E(RB3LYP) =  -583.290706064     A.U. after   14 cycles
 SCF Done:  E(RB3LYP) =  -583.290976441     A.U. after   14 cycles
 SCF Done:  E(RB3LYP) =  -583.291072427     A.U. after   13 cycles
 SCF Done:  E(RB3LYP) =  -583.291088262     A.U. after   12 cycles
 SCF Done:  E(RB3LYP) =  -583.291092339     A.U. after    9 cycles
 SCF Done:  E(RB3LYP) =  -583.291092975     A.U. after    8 cycles
 SCF Done:  E(RB3LYP) =  -583.291093136     A.U. after    8 cycles
 SCF Done:  E(RB3LYP) =  -583.291093129     A.U. after    7 cycles
 Optimization completed.
    -- Stationary point found.
 Normal termination of Gaussian 09 at Fri Aug 20 15:46:55 2021.

 ----------------------------------------------------------------------
 #P Geom=AllCheck Guess=TCheck SCRF=Check GenChk RB3LYP/6-31G(d,p) Freq
 ----------------------------------------------------------------------

 Structure from the checkpoint file:  "/public/home/users/caep010/.cache/gau_scr/Gau-104387.chk"
 ------
 IJIVEC
 ------
 Charge =  0 Multiplicity = 1

                         Standard orientation:
 ---------------------------------------------------------------------
 Center     Atomic      Atomic             Coordinates (Angstroms)
 Number     Number       Type             X           Y           Z
 ---------------------------------------------------------------------
      1          8           0       -0.689937    2.238635    0.000040
      2          7           0       -1.083327    0.923610   -0.000025
      3          6           0       -0.075395   -0.033795    0.000087
      4          6           0       -2.406649    0.670933   -0.000051
      5          6           0       -2.845833   -0.631940   -0.000060
      6          6           0       -0.530624   -1.380490    0.000063
      7          7           0        1.114744    0.577360    0.000092
      8          7           0        2.277668   -0.157258   -0.000002
      9          8           0        3.306558    0.512248   -0.000088
     10          8           0        2.247204   -1.398139   -0.000011
     11          6           0       -1.882758   -1.659071   -0.000008
     12          1           0        0.306637    2.119685   -0.000133
     13          1           0        0.218259   -2.155927    0.000067
     14          1           0       -2.204438   -2.695724   -0.000064
     15          1           0       -3.908153   -0.838811   -0.000024
     16          1           0       -3.038956    1.549015   -0.000015
 ---------------------------------------------------------------------

 SCF Done:  E(RB3LYP) =  -583.291093129     A.U. after    1 cycles

 The electronic state is 1-A.
 Alpha  occ. eigenvalues --  -19.23090 -19.15645 -19.15427 -14.57744 -14.50008
 Alpha  occ. eigenvalues --  -14.36724 -10.31298 -10.28463 -10.24438 -10.23666
 Alpha  occ. eigenvalues --  -10.22971  -1.21434  -1.16278  -1.03034  -0.97650
 Alpha  occ. eigenvalues --   -0.94007  -0.83587  -0.81519  -0.72392  -0.67543
 Alpha  occ. eigenvalues --   -0.63800  -0.58953  -0.55679  -0.54269  -0.52984
 Alpha  occ. eigenvalues --   -0.51474  -0.50459  -0.49505  -0.48814  -0.45048
 Alpha  occ. eigenvalues --   -0.43784  -0.40366  -0.38243  -0.35173  -0.34386
 Alpha  occ. eigenvalues --   -0.30132  -0.29507  -0.28773  -0.25924  -0.24342
 Alpha virt. eigenvalues --   -0.07689  -0.05578   0.00649   0.04228   0.09608
 Alpha virt. eigenvalues --    0.10425   0.10941   0.12846   0.14361   0.16123
 Alpha virt. eigenvalues --    0.18378   0.20221   0.25208   0.26412   0.27802

 Mulliken charges:
               1
     1  O   -0.416654
     2  N   -0.233756
     3  C    0.662409
     4  C    0.175300
     5  C   -0.153971
     6  C   -0.124884
     7  N   -0.572083
     8  N    0.602535
     9  O   -0.404511
    10  O   -0.444546
    11  C   -0.045955
    12  H    0.379159
    13  H    0.166154
    14  H    0.124095
    15  H    0.122111
    16  H    0.164600
 Sum of Mulliken charges =  -0.00000

 Dipole moment (field-independent basis, Debye):
    X=             -7.4132    Y=             -0.5541    Z=             -0.0002  Tot=              7.4339
 Quadrupole moment (field-independent basis, Debye-Ang):
   XX=            -65.5762   YY=            -59.7301   ZZ=            -62.0423
   XY=              2.8787   XZ=              0.0003   YZ=             -0.0007

  Exact polarizability: 141.425   8.143  94.828   0.000  -0.000  30.585
 Approx polarizability: 240.028  22.576 184.376   0.002  -0.001  47.363

                      1                      2                      3
                      A                      A                      A
 Frequencies --     51.6059                94.8988               190.1673
 Red. masses --     12.4402                 6.1201                 6.9512
 Frc consts  --      0.0195                 0.0325                 0.1481
 IR Inten    --      0.3117                 0.0353                 0.0294

                      4                      5                      6
                      A                      A                      A
 Frequencies --    192.4604               287.1810               323.9860
 Red. masses --      7.3613                 5.8113                 8.9086
 Frc consts  --      0.1607                 0.2824                 0.5509
 IR Inten    --      3.0227                 0.0930                 4.4729

                      7                      8                      9
                      A                      A                      A
 Frequencies --    404.0157               423.2501               512.3478
 Red. masses --      9.4486                 3.5473                 5.0977
 Frc consts  --      0.9087                 0.3744                 0.7884
 IR Inten    --      0.9337                 7.2656                12.8948

                     10                     11                     12
                      A                      A                      A
 Frequencies --    537.4772               568.9359               658.3789
 Red. masses --      3.3299                 7.7937                 1.2390
 Frc consts  --      0.5668                 1.4863                 0.3164
 IR Inten    --     11.6906                 0.4244                65.5346

                     13                     14                     15
                      A                      A                      A
 Frequencies --    667.5981               706.3841               760.6672
 Red. masses --      7.7448                 3.6909                 1.2572
 Frc consts  --      2.0337                 1.0851                 0.4286
 IR Inten    --      0.2619                20.8411                69.8396

                     16                     17                     18
                      A                      A                      A
 Frequencies --    771.4009               777.0547               837.1667
 Red. masses --      9.5196                12.6757                 6.8583
 Frc consts  --      3.3376                 4.5095                 2.8320
 IR Inten    --     19.4145                15.2063                 6.4872

                     19                     20                     21
                      A                      A                      A
 Frequencies --    866.2147               894.6848               932.3581
 Red. masses --      1.3296                 8.6740                 1.2951
 Frc consts  --      0.5878                 4.0908                 0.6633
 IR Inten    --      6.4230                19.1888                 2.2370

                     22                     23                     24
                      A                      A                      A
 Frequencies --   1005.7628              1038.3473              1062.6675
 Red. masses --      1.2729                 6.9889                 2.1235
 Frc consts  --      0.7586                 4.4396                 1.4128
 IR Inten    --      0.3593                67.1008                13.4078

                     25                     26                     27
                      A                      A                      A
 Frequencies --   1144.4330              1176.9376              1224.1807
 Red. masses --      1.7166                 1.1300                 3.3205
 Frc consts  --      1.3247                 0.9223                 2.9319
 IR Inten    --     10.3075                60.1569                30.0240

                     28                     29                     30
                      A                      A                      A
 Frequencies --   1274.8801              1294.0128              1347.4330
 Red. masses --      4.6708                 2.1385                 4.6604
 Frc consts  --      4.4728                 2.1098                 4.9853
 IR Inten    --     26.5649               168.2320               727.3195

                     31                     32                     33
                      A                      A                      A
 Frequencies --   1388.9732              1484.2893              1543.5166
 Red. masses --      2.3265                 2.0912                 3.8122
 Frc consts  --      2.6444                 2.7144                 5.3511
 IR Inten    --     42.4071                65.1593               452.5639

                     34                     35                     36
                      A                      A                      A
 Frequencies --   1560.3131              1625.9209              1641.1937
 Red. masses --      2.7689                 5.8385                 3.1967
 Frc consts  --      3.9717                 9.0938                 5.0731
 IR Inten    --     48.4163                61.2219               262.5176

                     37                     38                     39
                      A                      A                      A
 Frequencies --   1680.0145              3189.8410              3207.5181
 Red. masses --      6.3757                 1.0635                 1.0908
 Frc consts  --     10.6023                 6.3757                 6.6119
 IR Inten    --    167.6081               196.7679                 6.0200

                     40                     41                     42
                      A                      A                      A
 Frequencies --   3241.1324              3259.4350              3298.2699
 Red. masses --      1.0912                 1.0976                 1.0921
 Frc consts  --      6.7536                 6.8704                 6.9998
 IR Inten    --      0.2865                 1.5238                11.8579

 - Thermochemistry -
 -------------------
 Temperature   298.150 Kelvin.  Pressure   1.00000 Atm.
 Atom     1 has atomic number  8 and mass  15.99491

 Molecular mass:   155.03309 amu.
 Principal axes and moments of inertia in atomic units:
                           1         2         3
     Eigenvalues --   779.452452184.581402964.03385
           X            0.99993   0.01208   0.00000
           Y           -0.01208   0.99993  -0.00000
           Z           -0.00000   0.00000   1.00000
 This molecule is an asymmetric top.
 Rotational symmetry number  1.
 Warning -- assumption of classical behavior for rotation
           may cause significant error
 Rotational temperatures (Kelvin)      0.11112     0.03965     0.02922
 Rotational constants (GHZ):           2.31540     0.82613     0.60888
 Zero-point vibrational energy     293966.2 (Joules/Mol)
                                   70.25960 (Kcal/Mol)
 Warning -- explicit consideration of  11 degrees of freedom as
           vibrations may cause significant error
 Vibrational temperatures:     74.25   136.54   273.61   276.91   413.19
          (Kelvin)            466.14   581.29   608.96   737.15   773.31
                              818.57   947.26   960.52  1016.33  1094.43
                             1109.87  1118.01  1204.49  1246.29  1287.25
                             1341.45  1447.07  1493.95  1528.94  1646.58
                             1693.35  1761.32  1834.27  1861.79  1938.65
                             1998.42  2135.56  2220.77  2244.94  2339.33
                             2361.31  2417.16  4589.46  4614.90  4663.26
                             4689.59  4745.47

 Zero-point correction=                           0.111966 (Hartree/Particle)
 Thermal correction to Energy=                    0.120610
 Thermal correction to Enthalpy=                  0.121554
 Thermal correction to Gibbs Free Energy=         0.077404
 Sum of electronic and zero-point Energies=           -583.179127
 Sum of electronic and thermal Energies=              -583.170483
 Sum of electronic and thermal Enthalpies=            -583.169539
 Sum of electronic and thermal Free Energies=         -583.213689

                     E (Thermal)             CV                S
                      KCal/Mol        Cal/Mol-Kelvin    Cal/Mol-Kelvin
 Total                   75.684             32.681             92.921
 Electronic               0.000              0.000              0.000
 Translational            0.889              2.981             41.025
 Rotational               0.889              2.981             30.002
 Vibrational             73.906             26.719             21.894
 Vibration     1          0.596              1.977              4.755
 Vibration     2          0.603              1.953              3.556
 Vibration     3          0.633              1.853              2.226
 Vibration     4          0.634              1.850              2.204
 Vibration     5          0.684              1.698              1.491
 Vibration     6          0.709              1.627              1.290
 Vibration     7          0.769              1.461              0.948
 Vibration     8          0.785              1.420              0.881
 Vibration     9          0.867              1.223              0.628
 Vibration    10          0.893              1.167              0.571
 Vibration    11          0.925              1.098              0.506

 Optimization completed.
    -- Stationary point found.
 Normal termination of Gaussian 09 at Fri Aug 20 15:47:15 2021.
