 Gaussian 09, Revision E.01,
 Gaussian 09:  ES64L-G09RevE.01 30-Nov-2015

 -------------------------
 #P OPT Freq B3LYP/6-31G**
 -------------------------

 ------
 DNCOOC
 ------
 Symbolic Z-matrix:
 Charge =  0 Multiplicity = 1

 SCF Done:  E(RB3LYP) =  -718.547583999     A.U. after   16 cycles
 SCF Done:  E(RB3LYP) =  -718.587142865     A.U. after   15 cycles
 SCF Done:  E(RB3LYP) =  -718.594648514     A.U. after   15 cycles
 SCF Done:  E(RB3LYP) =  -718.589143889     A.U. after   15 cycles
 SCF Done:  E(RB3LYP) =  -718.594742260     A.U. after   10 cycles
 SCF Done:  E(RB3LYP) =  -718.594802655     A.U. after   13 cycles
 SCF Done:  E(RB3LYP) =  -718.589752378     A.U. after   15 cycles
 SCF Done:  E(RB3LYP) =  -718.594883454     A.U. after   11 cycles
 SCF Done:  E(RB3LYP) =  -718.595047702     A.U. after   12 cycles
 SCF Done:  E(RB3LYP) =  -718.595053472     A.U. after   10 cycles
 SCF Done:  E(RB3LYP) =  -718.595054971     A.U. after   10 cycles
 SCF Done:  E(RB3LYP) =  -718.595055204     A.U. after    8 cycles
 Optimization completed.
    -- Stationary point found.
 Normal termination of Gaussian 09 at Fri Aug 20 16:02:47 2021.

 ----------------------------------------------------------------------
 #P Geom=AllCheck Guess=TCheck SCRF=Check GenChk RB3LYP/6-31G(d,p) Freq
 ----------------------------------------------------------------------

 Structure from the checkpoint file:  "/public/home/users/caep010/.cache/gau_scr/Gau-94088.chk"
 ------
 DNCOOC
 ------
 Charge =  0 Multiplicity = 1

                         Standard orientation:
 ---------------------------------------------------------------------
 Center     Atomic      Atomic             Coordinates (Angstroms)
 Number     Number       Type             X           Y           Z
 ---------------------------------------------------------------------
      1          6           0        1.538430    0.084005    0.206167
      2          6           0        0.669024   -0.576996    1.192180
      3          6           0       -0.669066   -0.577046    1.192210
      4          6           0       -1.538357    0.084064    0.206171
      5          6           0       -1.566590    1.369265   -0.176074
      6          6           0       -0.672026    2.435718    0.278867
      7          6           0        0.672364    2.435705    0.279115
      8          6           0        1.566986    1.369254   -0.175773
      9          7           0        2.616852   -0.792531   -0.328605
     10          1           0        1.185908   -1.144108    1.960281
     11          1           0       -1.173978    3.364282    0.547277
     12          7           0       -2.617018   -0.792270   -0.328551
     13          8           0       -2.652414   -1.940680    0.112256
     14          8           0       -3.398273   -0.334365   -1.159298
     15          8           0        3.398190   -0.334649   -1.159351
     16          1           0       -1.185912   -1.144245    1.960205
     17          8           0        2.651970   -1.940946    0.112100
     18          1           0       -2.379126    1.657303   -0.839337
     19          1           0        1.174252    3.364263    0.547752
     20          1           0        2.379647    1.657420   -0.838913
 ---------------------------------------------------------------------

 SCF Done:  E(RB3LYP) =  -718.595055204     A.U. after    2 cycles

 The electronic state is 1-A.
 Alpha  occ. eigenvalues --  -19.19295 -19.19294 -19.19142 -19.19141 -14.58173
 Alpha  occ. eigenvalues --  -14.58173 -10.27612 -10.27611 -10.24936 -10.24935
 Alpha  occ. eigenvalues --  -10.24523 -10.24443 -10.23547 -10.23462  -1.23466
 Alpha  occ. eigenvalues --   -1.23466  -1.06274  -1.06271  -0.89828  -0.86372
 Alpha  occ. eigenvalues --   -0.83336  -0.77684  -0.74825  -0.69765  -0.65636
 Alpha  occ. eigenvalues --   -0.61356  -0.58594  -0.57224  -0.55935  -0.54379
 Alpha  occ. eigenvalues --   -0.54104  -0.52900  -0.51450  -0.50889  -0.49752
 Alpha  occ. eigenvalues --   -0.49160  -0.47902  -0.43538  -0.41462  -0.40007
 Alpha  occ. eigenvalues --   -0.36794  -0.32681  -0.32481  -0.31946  -0.31862
 Alpha  occ. eigenvalues --   -0.31621  -0.31618  -0.30249  -0.29671  -0.25872
 Alpha virt. eigenvalues --   -0.12246  -0.09313  -0.05553  -0.01303   0.00871
 Alpha virt. eigenvalues --    0.05483   0.06826   0.10600   0.11204   0.13113
 Alpha virt. eigenvalues --    0.15381   0.16291   0.16707   0.18846   0.19011

 Mulliken charges:
               1
     1  C    0.229545
     2  C   -0.091245
     3  C   -0.091229
     4  C    0.229556
     5  C   -0.127848
     6  C   -0.085157
     7  C   -0.085186
     8  C   -0.127806
     9  N    0.419556
    10  H    0.142653
    11  H    0.125632
    12  N    0.419546
    13  O   -0.380319
    14  O   -0.394845
    15  O   -0.394862
    16  H    0.142662
    17  O   -0.380312
    18  H    0.162015
    19  H    0.125623
    20  H    0.162021
 Sum of Mulliken charges =  -0.00000

 Dipole moment (field-independent basis, Debye):
    X=              0.0007    Y=              5.5028    Z=              2.4721  Tot=              6.0326
 Quadrupole moment (field-independent basis, Debye-Ang):
   XX=            -95.2070   YY=            -75.4236   ZZ=            -77.3480
   XY=              0.0006   XZ=              0.0017   YZ=             -1.5082

  Exact polarizability: 136.927   0.005 130.606   0.002 -13.253  68.378
 Approx polarizability: 220.349   0.013 255.948   0.002 -49.778 123.508

                      1                      2                      3
                      A                      A                      A
 Frequencies --     52.0319                52.1988                60.1636
 Red. masses --     15.0846                13.4168                11.8876
 Frc consts  --      0.0241                 0.0215                 0.0254
 IR Inten    --      0.1396                 0.9664                 1.0217

                      4                      5                      6
                      A                      A                      A
 Frequencies --    123.7687               172.4714               207.0467
 Red. masses --      5.9305                 5.9817                 4.5750
 Frc consts  --      0.0535                 0.1048                 0.1156
 IR Inten    --      1.0153                 1.3938                 1.2209

                      7                      8                      9
                      A                      A                      A
 Frequencies --    258.6398               266.9185               303.5226
 Red. masses --      3.7188                 5.4831                 5.1389
 Frc consts  --      0.1466                 0.2302                 0.2789
 IR Inten    --      1.5909                 0.2516                 3.9897

                     10                     11                     12
                      A                      A                      A
 Frequencies --    318.0455               395.7825               443.0439
 Red. masses --      5.5338                 3.1898                 3.6135
 Frc consts  --      0.3298                 0.2944                 0.4179
 IR Inten    --      0.1549                 3.5487                 0.0872

                     13                     14                     15
                      A                      A                      A
 Frequencies --    451.9735               479.9856               500.7822
 Red. masses --      6.6356                 6.1695                 9.8252
 Frc consts  --      0.7987                 0.8374                 1.4517
 IR Inten    --      2.0874                 5.4980                 0.8987

                     16                     17                     18
                      A                      A                      A
 Frequencies --    543.2069               664.5712               683.8944
 Red. masses --      6.6225                 4.5777                 2.5982
 Frc consts  --      1.1513                 1.1912                 0.7160
 IR Inten    --      8.0252                 0.6993                13.0846

                     19                     20                     21
                      A                      A                      A
 Frequencies --    692.2151               714.4216               778.7657
 Red. masses --      4.4049                 2.1742                 2.7539
 Frc consts  --      1.2436                 0.6538                 0.9840
 IR Inten    --     27.6027                60.3267                 1.5811

                     22                     23                     24
                      A                      A                      A
 Frequencies --    789.4584               826.8118               842.6100
 Red. masses --      8.4235                 2.6208                 7.1537
 Frc consts  --      3.0932                 1.0556                 2.9925
 IR Inten    --      1.6362                59.1084                34.1921

                     25                     26                     27
                      A                      A                      A
 Frequencies --    850.7771               939.3429               946.0888
 Red. masses --      4.8138                 1.8291                 3.2369
 Frc consts  --      2.0529                 0.9509                 1.7070
 IR Inten    --     12.5760                 4.8251                 1.0075

                     28                     29                     30
                      A                      A                      A
 Frequencies --    960.3157               984.4715               986.9586
 Red. masses --      1.8295                 1.3397                 3.4769
 Frc consts  --      0.9940                 0.7650                 1.9955
 IR Inten    --      9.4530                 2.0807                13.9815

                     31                     32                     33
                      A                      A                      A
 Frequencies --    999.1676              1040.5596              1051.2177
 Red. masses --      1.3230                 4.5970                 2.6307
 Frc consts  --      0.7782                 2.9327                 1.7128
 IR Inten    --     12.1256                 8.0880                25.7308

                     34                     35                     36
                      A                      A                      A
 Frequencies --   1103.2915              1247.3253              1264.2677
 Red. masses --      1.7106                 1.0761                 1.0960
 Frc consts  --      1.2268                 0.9864                 1.0321
 IR Inten    --      1.7740                 1.8423                 2.4795

                     37                     38                     39
                      A                      A                      A
 Frequencies --   1339.6906              1368.0513              1376.8756
 Red. masses --      1.3021                 1.6912                 9.7811
 Frc consts  --      1.3769                 1.8649                10.9252
 IR Inten    --      0.5833                 1.2303               273.3997

                     40                     41                     42
                      A                      A                      A
 Frequencies --   1388.8379              1434.7187              1462.5898
 Red. masses --     11.1761                 1.4818                 1.9667
 Frc consts  --     12.7012                 1.7971                 2.4788
 IR Inten    --    221.4989                19.8626                19.5848

                     43                     44                     45
                      A                      A                      A
 Frequencies --   1635.7234              1637.6202              1704.3691
 Red. masses --     13.4881                12.8461                 7.6618
 Frc consts  --     21.2628                20.2977                13.1132
 IR Inten    --     94.6143               289.2560                 0.9529

                     46                     47                     48
                      A                      A                      A
 Frequencies --   1716.2250              1723.2329              1748.9347
 Red. masses --      6.2100                 9.1169                10.3062
 Frc consts  --     10.7768                15.9510                18.5736
 IR Inten    --     34.3399                 3.7092                10.3723

                     49                     50                     51
                      A                      A                      A
 Frequencies --   3151.1723              3168.5210              3185.0644
 Red. masses --      1.0831                 1.0926                 1.0876
 Frc consts  --      6.3369                 6.4629                 6.5006
 IR Inten    --      0.5747                12.8735                 3.4416

                     52                     53                     54
                      A                      A                      A
 Frequencies --   3185.8031              3193.6892              3208.8505
 Red. masses --      1.0883                 1.0841                 1.0944
 Frc consts  --      6.5080                 6.5147                 6.6395
 IR Inten    --      3.1506                 0.1088                 0.7197

 - Thermochemistry -
 -------------------
 Temperature   298.150 Kelvin.  Pressure   1.00000 Atm.
 Atom     1 has atomic number  6 and mass  12.00000

 Molecular mass:   194.03276 amu.
 Principal axes and moments of inertia in atomic units:
                           1         2         3
     Eigenvalues --  1648.999503693.895584672.71884
           X            1.00000   0.00000   0.00000
           Y           -0.00000   0.99992  -0.01249
           Z           -0.00000   0.01249   0.99992
 This molecule is an asymmetric top.
 Rotational symmetry number  1.
 Warning -- assumption of classical behavior for rotation
           may cause significant error
 Rotational temperatures (Kelvin)      0.05253     0.02345     0.01854
 Rotational constants (GHZ):           1.09445     0.48857     0.38623
 Zero-point vibrational energy     362624.5 (Joules/Mol)
                                   86.66934 (Kcal/Mol)
 Warning -- explicit consideration of  16 degrees of freedom as
           vibrations may cause significant error
 Vibrational temperatures:     74.86    75.10    86.56   178.08   248.15
          (Kelvin)            297.89   372.12   384.04   436.70   457.60
                              569.44   637.44   650.29   690.59   720.51
                              781.55   956.17   983.97   995.94  1027.89
                             1120.47  1135.85  1189.60  1212.33  1224.08
                             1351.50  1361.21  1381.68  1416.43  1420.01
                             1437.58  1497.13  1512.47  1587.39  1794.62
                             1819.00  1927.51  1968.32  1981.01  1998.23
                             2064.24  2104.34  2353.44  2356.17  2452.20
                             2469.26  2479.34  2516.32  4533.83  4558.79
                             4582.59  4583.65  4595.00  4616.81

 Zero-point correction=                           0.138116 (Hartree/Particle)
 Thermal correction to Energy=                    0.149783
 Thermal correction to Enthalpy=                  0.150728
 Thermal correction to Gibbs Free Energy=         0.099087
 Sum of electronic and zero-point Energies=           -718.456939
 Sum of electronic and thermal Energies=              -718.445272
 Sum of electronic and thermal Enthalpies=            -718.444328
 Sum of electronic and thermal Free Energies=         -718.495969

                     E (Thermal)             CV                S
                      KCal/Mol        Cal/Mol-Kelvin    Cal/Mol-Kelvin
 Total                   93.991             43.376            108.688
 Electronic               0.000              0.000              0.000
 Translational            0.889              2.981             41.694
 Rotational               0.889              2.981             31.721
 Vibrational             92.213             37.414             35.273
 Vibration     1          0.596              1.977              4.739
 Vibration     2          0.596              1.977              4.732
 Vibration     3          0.597              1.973              4.452
 Vibration     4          0.610              1.929              3.041
 Vibration     5          0.626              1.876              2.408
 Vibration     6          0.641              1.830              2.070
 Vibration     7          0.667              1.748              1.671
 Vibration     8          0.672              1.734              1.616
 Vibration     9          0.695              1.667              1.397
 Vibration    10          0.704              1.639              1.320
 Vibration    11          0.763              1.479              0.978
 Vibration    12          0.803              1.376              0.817
 Vibration    13          0.811              1.357              0.790
 Vibration    14          0.836              1.294              0.710
 Vibration    15          0.856              1.248              0.656
 Vibration    16          0.898              1.155              0.558

 Optimization completed.
    -- Stationary point found.
 Normal termination of Gaussian 09 at Fri Aug 20 16:03:24 2021.
