 Gaussian 09, Revision E.01,
 Gaussian 09:  ES64L-G09RevE.01 30-Nov-2015

 -------------------------
 #P OPT Freq B3LYP/6-31G**
 -------------------------

 ------
 KOFKEV
 ------
 Symbolic Z-matrix:
 Charge =  0 Multiplicity = 1

 SCF Done:  E(RB3LYP) =  -716.134894239     A.U. after   16 cycles
 SCF Done:  E(RB3LYP) =  -716.205958019     A.U. after   13 cycles
 SCF Done:  E(RB3LYP) =  -716.230883059     A.U. after   15 cycles
 SCF Done:  E(RB3LYP) =  -716.230168566     A.U. after   15 cycles
 SCF Done:  E(RB3LYP) =  -716.232331933     A.U. after   11 cycles
 SCF Done:  E(RB3LYP) =  -716.232166552     A.U. after   14 cycles
 SCF Done:  E(RB3LYP) =  -716.233389739     A.U. after   10 cycles
 SCF Done:  E(RB3LYP) =  -716.233421783     A.U. after   13 cycles
 SCF Done:  E(RB3LYP) =  -716.233241161     A.U. after   13 cycles
 SCF Done:  E(RB3LYP) =  -716.233583110     A.U. after    9 cycles
 SCF Done:  E(RB3LYP) =  -716.233650655     A.U. after   12 cycles
 SCF Done:  E(RB3LYP) =  -716.233667088     A.U. after   11 cycles
 SCF Done:  E(RB3LYP) =  -716.233683280     A.U. after   12 cycles
 SCF Done:  E(RB3LYP) =  -716.233691453     A.U. after   12 cycles
 SCF Done:  E(RB3LYP) =  -716.233693893     A.U. after   10 cycles
 SCF Done:  E(RB3LYP) =  -716.233694528     A.U. after    8 cycles
 SCF Done:  E(RB3LYP) =  -716.233694626     A.U. after    7 cycles
 Optimization completed.
    -- Stationary point found.
 Normal termination of Gaussian 09 at Fri Aug 20 16:00:40 2021.

 ----------------------------------------------------------------------
 #P Geom=AllCheck Guess=TCheck SCRF=Check GenChk RB3LYP/6-31G(d,p) Freq
 ----------------------------------------------------------------------

 Structure from the checkpoint file:  "/public/home/users/caep010/.cache/gau_scr/Gau-101006.chk"
 ------
 KOFKEV
 ------
 Charge =  0 Multiplicity = 1

                         Standard orientation:
 ---------------------------------------------------------------------
 Center     Atomic      Atomic             Coordinates (Angstroms)
 Number     Number       Type             X           Y           Z
 ---------------------------------------------------------------------
      1          6           0       -0.205460   -0.230265    1.247291
      2          7           0       -1.051240    0.551953    0.343531
      3          7           0       -2.279454   -0.015519    0.005577
      4          8           0       -2.733629   -0.876949    0.755355
      5          8           0       -2.835116    0.438970   -0.992204
      6          6           0       -0.520735    1.522176   -0.627735
      7          6           0        0.721720    2.279746   -0.133928
      8          6           0        2.055796    1.521939   -0.235748
      9          6           0        2.201652    0.366900    0.758971
     10          1           0        2.884729    2.219426   -0.066959
     11          1           0        2.177468    1.130105   -1.252299
     12          7           0        1.090142   -0.587160    0.703298
     13          7           0        1.098987   -1.521900   -0.327559
     14          8           0        0.052112   -2.134377   -0.523410
     15          8           0        2.156678   -1.672071   -0.936028
     16          1           0       -0.769347   -1.121118    1.512028
     17          1           0        0.003201    0.343707    2.153456
     18          1           0        2.217008    0.740710    1.788001
     19          1           0        3.124375   -0.186535    0.589083
     20          1           0       -1.325441    2.232388   -0.820703
     21          1           0        0.793256    3.172808   -0.763970
     22          1           0        0.555716    2.646951    0.887351
     23          1           0       -0.308208    1.022381   -1.582726
 ---------------------------------------------------------------------

 SCF Done:  E(RB3LYP) =  -716.233694626     A.U. after    1 cycles

 The electronic state is 1-A.
 Alpha  occ. eigenvalues --  -19.18866 -19.18860 -19.17847 -19.17773 -14.60955
 Alpha  occ. eigenvalues --  -14.59906 -14.42932 -14.42063 -10.29212 -10.25636
 Alpha  occ. eigenvalues --  -10.25138 -10.22344 -10.21766  -1.25131  -1.24006
 Alpha  occ. eigenvalues --   -1.06976  -1.05872  -1.01212  -0.96449  -0.83591
 Alpha  occ. eigenvalues --   -0.77985  -0.77502  -0.71389  -0.66036  -0.61200
 Alpha  occ. eigenvalues --   -0.58807  -0.58067  -0.56393  -0.55888  -0.54878
 Alpha  occ. eigenvalues --   -0.53790  -0.52014  -0.49940  -0.48353  -0.47952
 Alpha  occ. eigenvalues --   -0.46425  -0.45148  -0.43581  -0.41972  -0.39500
 Alpha  occ. eigenvalues --   -0.37385  -0.36864  -0.33920  -0.32744  -0.31992
 Alpha  occ. eigenvalues --   -0.30884  -0.30010  -0.29451  -0.29132  -0.27548
 Alpha virt. eigenvalues --   -0.06023  -0.04576   0.05281   0.06567   0.10254
 Alpha virt. eigenvalues --    0.11072   0.11324   0.12136   0.12214   0.12685
 Alpha virt. eigenvalues --    0.13653   0.15020   0.15887   0.16691   0.17425

 Mulliken charges:
               1
     1  C    0.083165
     2  N   -0.325189
     3  N    0.666247
     4  O   -0.418203
     5  O   -0.417538
     6  C   -0.023159
     7  C   -0.226425
     8  C   -0.186931
     9  C   -0.062227
    10  H    0.113687
    11  H    0.130180
    12  N   -0.301877
    13  N    0.652769
    14  O   -0.410863
    15  O   -0.418347
    16  H    0.204203
    17  H    0.138474
    18  H    0.119816
    19  H    0.159355
    20  H    0.151900
    21  H    0.125900
    22  H    0.110820
    23  H    0.134243
 Sum of Mulliken charges =  -0.00000

 Dipole moment (field-independent basis, Debye):
    X=              4.0800    Y=              4.8448    Z=              2.6440  Tot=              6.8637
 Quadrupole moment (field-independent basis, Debye-Ang):
   XX=            -86.1459   YY=            -76.6952   ZZ=            -73.6497
   XY=              2.2805   XZ=              1.9464   YZ=             -2.8956

  Exact polarizability: 108.523   8.642  90.164   1.372  -0.678  80.271
 Approx polarizability: 170.411  19.030 137.568   0.565  -3.362 143.015

                      1                      2                      3
                      A                      A                      A
 Frequencies --     43.0247                61.6032                96.1634
 Red. masses --      5.2954                 9.0720                13.9490
 Frc consts  --      0.0058                 0.0203                 0.0760
 IR Inten    --      2.4261                 0.6709                 0.2077

                      4                      5                      6
                      A                      A                      A
 Frequencies --    114.4020               151.3053               188.5602
 Red. masses --      6.6361                 3.0003                 5.4616
 Frc consts  --      0.0512                 0.0405                 0.1144
 IR Inten    --      0.3539                 0.7068                 3.5763

                      7                      8                      9
                      A                      A                      A
 Frequencies --    255.1906               279.1070               319.8811
 Red. masses --      4.7314                 4.0224                 2.7534
 Frc consts  --      0.1815                 0.1846                 0.1660
 IR Inten    --      4.1018                 0.3176                 5.2588

                     10                     11                     12
                      A                      A                      A
 Frequencies --    348.4777               404.2930               426.7456
 Red. masses --      2.6844                 4.6109                 4.1174
 Frc consts  --      0.1921                 0.4440                 0.4418
 IR Inten    --      2.2421                 2.6214                 5.3381

                     13                     14                     15
                      A                      A                      A
 Frequencies --    449.8943               500.8860               585.2001
 Red. masses --      2.1736                 1.9531                 5.8108
 Frc consts  --      0.2592                 0.2887                 1.1725
 IR Inten    --      5.0569                 2.3393                 7.3143

                     16                     17                     18
                      A                      A                      A
 Frequencies --    608.5207               635.4373               710.5694
 Red. masses --      3.9837                 5.1694                 4.2101
 Frc consts  --      0.8691                 1.2298                 1.2525
 IR Inten    --      9.3239                10.5481                13.9638

                     19                     20                     21
                      A                      A                      A
 Frequencies --    762.7626               771.8850               790.6374
 Red. masses --     11.2784                 9.9418                 3.6196
 Frc consts  --      3.8661                 3.4900                 1.3331
 IR Inten    --      9.2390                22.9456                 3.5111

                     22                     23                     24
                      A                      A                      A
 Frequencies --    840.4784               843.1724               877.2651
 Red. masses --      2.2456                 3.9356                 2.8584
 Frc consts  --      0.9346                 1.6485                 1.2961
 IR Inten    --     12.8391                 3.8420                 1.5253

                     25                     26                     27
                      A                      A                      A
 Frequencies --    926.4769               953.7205               960.7276
 Red. masses --      1.5825                 2.7938                 2.9963
 Frc consts  --      0.8003                 1.4972                 1.6294
 IR Inten    --     11.2930                91.0432                58.1730

                     28                     29                     30
                      A                      A                      A
 Frequencies --    999.5231              1055.8730              1077.8853
 Red. masses --      2.2490                 2.6050                 2.3381
 Frc consts  --      1.3238                 1.7112                 1.6005
 IR Inten    --     23.3305                95.2099                 9.4342

                     31                     32                     33
                      A                      A                      A
 Frequencies --   1105.6277              1149.3907              1223.6130
 Red. masses --      2.1756                 1.9411                 3.1468
 Frc consts  --      1.5669                 1.5109                 2.7759
 IR Inten    --      9.3700                15.7990                38.9494

                     34                     35                     36
                      A                      A                      A
 Frequencies --   1227.1560              1257.5302              1284.7905
 Red. masses --      1.4295                 2.0874                 1.5677
 Frc consts  --      1.2683                 1.9449                 1.5247
 IR Inten    --     38.7119                 5.0765                32.7322

                     37                     38                     39
                      A                      A                      A
 Frequencies --   1315.0184              1319.8572              1346.5079
 Red. masses --      1.4128                 3.8430                 2.1170
 Frc consts  --      1.4394                 3.9443                 2.2615
 IR Inten    --     30.0417               251.9930               110.6374

                     40                     41                     42
                      A                      A                      A
 Frequencies --   1359.5154              1368.7426              1384.5630
 Red. masses --      1.9526                 1.4178                 1.3578
 Frc consts  --      2.1264                 1.5650                 1.5335
 IR Inten    --    179.3122                45.9440                 0.6502

                     43                     44                     45
                      A                      A                      A
 Frequencies --   1401.1280              1403.1607              1415.2402
 Red. masses --      1.3962                 1.4235                 1.4670
 Frc consts  --      1.6149                 1.6513                 1.7312
 IR Inten    --      1.4947                 2.6245                27.5063

                     46                     47                     48
                      A                      A                      A
 Frequencies --   1436.0227              1485.2004              1494.5773
 Red. masses --      1.5335                 1.0927                 1.0949
 Frc consts  --      1.8631                 1.4201                 1.4411
 IR Inten    --     34.9235                 6.8331                 2.9162

                     49                     50                     51
                      A                      A                      A
 Frequencies --   1498.4238              1511.8366              1526.1152
 Red. masses --      1.0984                 1.1268                 1.0887
 Frc consts  --      1.4530                 1.5174                 1.4940
 IR Inten    --     19.6756                61.4776                 3.5143

                     52                     53                     54
                      A                      A                      A
 Frequencies --   1657.6308              1666.7117              3032.2138
 Red. masses --     12.9801                12.5304                 1.0725
 Frc consts  --     21.0137                20.5086                 5.8096
 IR Inten    --    210.0152               293.3769                 7.7163

                     55                     56                     57
                      A                      A                      A
 Frequencies --   3044.8134              3050.5089              3071.3301
 Red. masses --      1.0648                 1.0616                 1.0729
 Frc consts  --      5.8161                 5.8207                 5.9629
 IR Inten    --     22.0003                16.3130                 6.1225

                     58                     59                     60
                      A                      A                      A
 Frequencies --   3089.6551              3094.9126              3100.8767
 Red. masses --      1.0984                 1.0803                 1.0896
 Frc consts  --      6.1778                 6.0967                 6.1729
 IR Inten    --     19.4177                 1.4143                58.7770

                     61                     62                     63
                      A                      A                      A
 Frequencies --   3133.6262              3162.5761              3190.2494
 Red. masses --      1.0929                 1.0969                 1.0969
 Frc consts  --      6.3229                 6.4637                 6.5779
 IR Inten    --      6.9993                 1.9861                 6.9628

 - Thermochemistry -
 -------------------
 Temperature   298.150 Kelvin.  Pressure   1.00000 Atm.
 Atom     1 has atomic number  6 and mass  12.00000

 Molecular mass:   190.07020 amu.
 Principal axes and moments of inertia in atomic units:
                           1         2         3
     Eigenvalues --  1521.731352484.753393284.29351
           X            0.99898   0.04476   0.00615
           Y           -0.04463   0.99880  -0.02031
           Z           -0.00705   0.02002   0.99977
 This molecule is an asymmetric top.
 Rotational symmetry number  1.
 Warning -- assumption of classical behavior for rotation
           may cause significant error
 Rotational temperatures (Kelvin)      0.05692     0.03486     0.02637
 Rotational constants (GHZ):           1.18598     0.72633     0.54951
 Zero-point vibrational energy     477601.8 (Joules/Mol)
                                  114.14958 (Kcal/Mol)
 Warning -- explicit consideration of  16 degrees of freedom as
           vibrations may cause significant error
 Vibrational temperatures:     61.90    88.63   138.36   164.60   217.69
          (Kelvin)            271.30   367.16   401.57   460.24   501.38
                              581.69   613.99   647.30   720.66   841.97
                              875.52   914.25  1022.35  1097.44  1110.57
                             1137.55  1209.26  1213.14  1262.19  1332.99
                             1372.19  1382.27  1438.09  1519.16  1550.83
                             1590.75  1653.71  1760.50  1765.60  1809.30
                             1848.52  1892.02  1898.98  1937.32  1956.04
                             1969.31  1992.07  2015.91  2018.83  2036.21
                             2066.11  2136.87  2150.36  2155.89  2175.19
                             2195.74  2384.96  2398.02  4362.67  4380.80
                             4389.00  4418.95  4445.32  4452.88  4461.46
                             4508.58  4550.24  4590.05

 Zero-point correction=                           0.181909 (Hartree/Particle)
 Thermal correction to Energy=                    0.193300
 Thermal correction to Enthalpy=                  0.194244
 Thermal correction to Gibbs Free Energy=         0.143620
 Sum of electronic and zero-point Energies=           -716.051786
 Sum of electronic and thermal Energies=              -716.040394
 Sum of electronic and thermal Enthalpies=            -716.039450
 Sum of electronic and thermal Free Energies=         -716.090075

                     E (Thermal)             CV                S
                      KCal/Mol        Cal/Mol-Kelvin    Cal/Mol-Kelvin
 Total                  121.298             42.497            106.549
 Electronic               0.000              0.000              0.000
 Translational            0.889              2.981             41.632
 Rotational               0.889              2.981             30.897
 Vibrational            119.520             36.535             34.020
 Vibration     1          0.595              1.980              5.115
 Vibration     2          0.597              1.973              4.405
 Vibration     3          0.603              1.952              3.531
 Vibration     4          0.607              1.937              3.193
 Vibration     5          0.619              1.901              2.656
 Vibration     6          0.633              1.856              2.242
 Vibration     7          0.666              1.754              1.694
 Vibration     8          0.679              1.712              1.539
 Vibration     9          0.706              1.636              1.311
 Vibration    10          0.726              1.578              1.173
 Vibration    11          0.769              1.461              0.947
 Vibration    12          0.788              1.412              0.869
 Vibration    13          0.809              1.361              0.796
 Vibration    14          0.856              1.248              0.656
 Vibration    15          0.942              1.063              0.476
 Vibration    16          0.967              1.014              0.435

 Normal termination of Gaussian 09 at Fri Aug 20 16:01:26 2021.
