 Gaussian 09, Revision E.01,
 Gaussian 09:  ES64L-G09RevE.01 30-Nov-2015

 -------------------------
 #P OPT Freq B3LYP/6-31G**
 -------------------------

 ------
 FEXBUF
 ------
 Symbolic Z-matrix:
 Charge =  0 Multiplicity = 1

 SCF Done:  E(RB3LYP) =  -566.897997619     A.U. after   17 cycles
 SCF Done:  E(RB3LYP) =  -567.093705177     A.U. after   14 cycles
 SCF Done:  E(RB3LYP) =  -567.241274423     A.U. after   15 cycles
 SCF Done:  E(RB3LYP) =  -567.267805917     A.U. after   16 cycles
 SCF Done:  E(RB3LYP) =  -567.270513014     A.U. after   17 cycles
 SCF Done:  E(RB3LYP) =  -567.279582436     A.U. after   15 cycles
 SCF Done:  E(RB3LYP) =  -567.280121484     A.U. after   13 cycles
 SCF Done:  E(RB3LYP) =  -567.280166912     A.U. after   12 cycles
 SCF Done:  E(RB3LYP) =  -567.280174493     A.U. after   10 cycles
 SCF Done:  E(RB3LYP) =  -567.280177439     A.U. after   10 cycles
 SCF Done:  E(RB3LYP) =  -567.280178410     A.U. after    8 cycles
 SCF Done:  E(RB3LYP) =  -567.280178935     A.U. after    8 cycles
 SCF Done:  E(RB3LYP) =  -567.280179105     A.U. after    8 cycles
 Optimization completed.
    -- Stationary point found.
 Normal termination of Gaussian 09 at Fri Aug 20 15:55:30 2021.

 ----------------------------------------------------------------------
 #P Geom=AllCheck Guess=TCheck SCRF=Check GenChk RB3LYP/6-31G(d,p) Freq
 ----------------------------------------------------------------------

 Structure from the checkpoint file:  "/public/home/users/caep010/.cache/gau_scr/Gau-156626.chk"
 ------
 FEXBUF
 ------
 Charge =  0 Multiplicity = 1

                         Standard orientation:
 ---------------------------------------------------------------------
 Center     Atomic      Atomic             Coordinates (Angstroms)
 Number     Number       Type             X           Y           Z
 ---------------------------------------------------------------------
      1          7           0       -1.781161   -0.596249    0.000057
      2          6           0       -0.876585   -1.634626   -0.000027
      3          8           0       -3.027863   -0.838258    0.000277
      4          6           0        0.480446   -1.408677   -0.000046
      5          6           0        0.937596   -0.091816   -0.000095
      6          7           0        2.369588    0.180243    0.000006
      7          8           0        2.726728    1.359840    0.000390
      8          1           0        1.179775   -2.234538   -0.000140
      9          6           0        0.029989    0.965593   -0.000115
     10          1           0        0.394237    1.984933   -0.000197
     11          8           0        3.132472   -0.787751   -0.000198
     12          1           0       -1.340745   -2.610917    0.000093
     13          6           0       -1.331155    0.718689   -0.000144
     14          6           0       -2.399103    1.760198   -0.000154
     15          1           0       -1.957519    2.757815   -0.000907
     16          1           0       -3.046790    1.643458   -0.875103
     17          1           0       -3.045774    1.644475    0.875547
 ---------------------------------------------------------------------

 SCF Done:  E(RB3LYP) =  -567.280179105     A.U. after    3 cycles

 The electronic state is 1-A.
 Alpha  occ. eigenvalues --  -19.18871 -19.18869 -19.15322 -14.58167 -14.50999
 Alpha  occ. eigenvalues --  -10.27207 -10.27070 -10.26350 -10.24492 -10.24331
 Alpha  occ. eigenvalues --  -10.21125  -1.23189  -1.13898  -1.05911  -0.93269
 Alpha  occ. eigenvalues --   -0.85109  -0.83425  -0.74484  -0.73114  -0.68552
 Alpha  occ. eigenvalues --   -0.60953  -0.56914  -0.55670  -0.54152  -0.51968
 Alpha  occ. eigenvalues --   -0.50890  -0.50344  -0.49327  -0.46450  -0.44407
 Alpha  occ. eigenvalues --   -0.42656  -0.41508  -0.40946  -0.37242  -0.31817
 Alpha  occ. eigenvalues --   -0.31717  -0.30058  -0.30031  -0.27626  -0.24493
 Alpha virt. eigenvalues --   -0.10648  -0.04782  -0.02965   0.07184   0.09995
 Alpha virt. eigenvalues --    0.10548   0.11521   0.15252   0.15720   0.16431
 Alpha virt. eigenvalues --    0.17119   0.17451   0.20826   0.24638   0.25753

 Mulliken charges:
               1
     1  N   -0.062009
     2  C    0.122466
     3  O   -0.482517
     4  C   -0.133602
     5  C    0.277833
     6  N    0.385473
     7  O   -0.400269
     8  H    0.156475
     9  C   -0.157704
    10  H    0.151518
    11  O   -0.399611
    12  H    0.153567
    13  C    0.311107
    14  C   -0.349056
    15  H    0.119547
    16  H    0.153388
    17  H    0.153395
 Sum of Mulliken charges =  -0.00000

 Dipole moment (field-independent basis, Debye):
    X=             -1.8311    Y=              0.2111    Z=             -0.0007  Tot=              1.8433
 Quadrupole moment (field-independent basis, Debye-Ang):
   XX=            -82.9311   YY=            -55.9078   ZZ=            -61.2546
   XY=             -6.5534   XZ=              0.0006   YZ=             -0.0010

  Exact polarizability: 143.571   1.488  98.182  -0.003   0.001  37.141
 Approx polarizability: 297.876  19.446 186.144  -0.014   0.007  57.033

                      1                      2                      3
                      A                      A                      A
 Frequencies --     68.0225               112.9681               184.6351
 Red. masses --      9.3614                 6.6142                 1.0927
 Frc consts  --      0.0255                 0.0497                 0.0219
 IR Inten    --      0.0534                 9.6735                 1.7105

                      4                      5                      6
                      A                      A                      A
 Frequencies --    191.1754               207.8045               320.3303
 Red. masses --      3.2408                 6.1128                 5.9732
 Frc consts  --      0.0698                 0.1555                 0.3611
 IR Inten    --      0.7653                 3.6147                 0.0507

                      7                      8                      9
                      A                      A                      A
 Frequencies --    332.4125               363.2594               453.2769
 Red. masses --      3.5109                11.2613                 7.5848
 Frc consts  --      0.2286                 0.8755                 0.9182
 IR Inten    --      6.6274                 0.5519                10.0510

                     10                     11                     12
                      A                      A                      A
 Frequencies --    458.4090               541.8946               555.5978
 Red. masses --      3.1008                 3.8007                 6.5070
 Frc consts  --      0.3839                 0.6576                 1.1835
 IR Inten    --      1.9043                 0.0130                 3.8718

                     13                     14                     15
                      A                      A                      A
 Frequencies --    606.1588               671.6729               705.5924
 Red. masses --      4.7094                 8.2241                 4.0117
 Frc consts  --      1.0195                 2.1860                 1.1768
 IR Inten    --      2.8679                26.3488                 4.1452

                     16                     17                     18
                      A                      A                      A
 Frequencies --    754.3893               799.9302               835.4654
 Red. masses --      7.7136                 5.5848                 6.3650
 Frc consts  --      2.5864                 2.1055                 2.6176
 IR Inten    --     19.8992                 8.9583                 2.7368

                     19                     20                     21
                      A                      A                      A
 Frequencies --    842.2812               931.8607               954.9493
 Red. masses --      1.4935                 1.3574                 5.5309
 Frc consts  --      0.6243                 0.6945                 2.9717
 IR Inten    --     22.9474                12.1373                27.3997

                     22                     23                     24
                      A                      A                      A
 Frequencies --    965.0605              1015.2875              1065.2709
 Red. masses --      1.2810                 1.5787                 1.4932
 Frc consts  --      0.7029                 0.9588                 0.9984
 IR Inten    --      1.2031                 6.1721                 2.9669

                     25                     26                     27
                      A                      A                      A
 Frequencies --   1112.5118              1144.6343              1229.0378
 Red. masses --      1.5027                 1.6354                 3.4771
 Frc consts  --      1.0958                 1.2624                 3.0946
 IR Inten    --     53.4235                 6.8966                73.2213

                     28                     29                     30
                      A                      A                      A
 Frequencies --   1279.9027              1288.9707              1379.1262
 Red. masses --      2.8617                 1.9117                 5.7412
 Frc consts  --      2.7620                 1.8714                 6.4337
 IR Inten    --      3.6586                19.6229               467.5245

                     31                     32                     33
                      A                      A                      A
 Frequencies --   1390.7851              1425.1168              1457.3669
 Red. masses --      6.2923                 1.3737                 1.8628
 Frc consts  --      7.1710                 1.6438                 2.3310
 IR Inten    --    183.3321                 3.1337                 3.3904

                     34                     35                     36
                      A                      A                      A
 Frequencies --   1473.6105              1507.2354              1525.9139
 Red. masses --      1.0438                 1.5951                 3.4211
 Frc consts  --      1.3354                 2.1350                 4.6933
 IR Inten    --      8.2529                46.0922                19.4330

                     37                     38                     39
                      A                      A                      A
 Frequencies --   1590.0918              1648.3932              1678.9385
 Red. masses --      9.4912                11.9576                 6.2398
 Frc consts  --     14.1389                19.1433                10.3632
 IR Inten    --     74.6717               150.2152                40.3756

                     40                     41                     42
                      A                      A                      A
 Frequencies --   3056.6489              3114.0631              3158.4103
 Red. masses --      1.0362                 1.0999                 1.1038
 Frc consts  --      5.7041                 6.2846                 6.4877
 IR Inten    --      5.9576                 4.1766                 7.1380

                     43                     44                     45
                      A                      A                      A
 Frequencies --   3248.2432              3252.4468              3269.5851
 Red. masses --      1.0920                 1.0905                 1.0963
 Frc consts  --      6.7887                 6.7969                 6.9047
 IR Inten    --      3.8832                 4.1158                 2.0174

 - Thermochemistry -
 -------------------
 Temperature   298.150 Kelvin.  Pressure   1.00000 Atm.
 Atom     1 has atomic number  7 and mass  14.00307

 Molecular mass:   154.03784 amu.
 Principal axes and moments of inertia in atomic units:
                           1         2         3
     Eigenvalues --   702.766672449.497123141.23360
           X            0.99960  -0.02823   0.00000
           Y            0.02823   0.99960  -0.00001
           Z           -0.00000   0.00001   1.00000
 This molecule is an asymmetric top.
 Rotational symmetry number  1.
 Warning -- assumption of classical behavior for rotation
           may cause significant error
 Rotational temperatures (Kelvin)      0.12325     0.03536     0.02757
 Rotational constants (GHZ):           2.56805     0.73678     0.57453
 Zero-point vibrational energy     324001.0 (Joules/Mol)
                                   77.43810 (Kcal/Mol)
 Warning -- explicit consideration of  13 degrees of freedom as
           vibrations may cause significant error
 Vibrational temperatures:     97.87   162.54   265.65   275.06   298.98
          (Kelvin)            460.88   478.27   522.65   652.16   659.55
                              779.66   799.38   872.13   966.39  1015.19
                             1085.40  1150.92  1202.05  1211.85  1340.74
                             1373.96  1388.51  1460.77  1532.69  1600.65
                             1646.87  1768.31  1841.49  1854.54  1984.25
                             2001.03  2050.42  2096.82  2120.19  2168.57
                             2195.45  2287.78  2371.67  2415.62  4397.83
                             4480.44  4544.24  4673.49  4679.54  4704.20

 Zero-point correction=                           0.123405 (Hartree/Particle)
 Thermal correction to Energy=                    0.132507
 Thermal correction to Enthalpy=                  0.133451
 Thermal correction to Gibbs Free Energy=         0.088740
 Sum of electronic and zero-point Energies=           -567.156774
 Sum of electronic and thermal Energies=              -567.147672
 Sum of electronic and thermal Enthalpies=            -567.146728
 Sum of electronic and thermal Free Energies=         -567.191439

                     E (Thermal)             CV                S
                      KCal/Mol        Cal/Mol-Kelvin    Cal/Mol-Kelvin
 Total                   83.149             34.222             94.103
 Electronic               0.000              0.000              0.000
 Translational            0.889              2.981             41.006
 Rotational               0.889              2.981             30.071
 Vibrational             81.372             28.260             23.026
 Vibration     1          0.598              1.969              4.210
 Vibration     2          0.607              1.939              3.217
 Vibration     3          0.631              1.861              2.281
 Vibration     4          0.634              1.852              2.216
 Vibration     5          0.641              1.829              2.063
 Vibration     6          0.706              1.635              1.308
 Vibration     7          0.714              1.611              1.248
 Vibration     8          0.737              1.548              1.108
 Vibration     9          0.812              1.354              0.786
 Vibration    10          0.816              1.342              0.771
 Vibration    11          0.897              1.157              0.561
 Vibration    12          0.911              1.127              0.533
 Vibration    13          0.965              1.019              0.439

 Optimization completed.
    -- Stationary point found.
 Normal termination of Gaussian 09 at Fri Aug 20 15:55:54 2021.
