 Gaussian 09, Revision E.01,
 Gaussian 09:  ES64L-G09RevE.01 30-Nov-2015

 -------------------------
 #P OPT Freq B3LYP/6-31G**
 -------------------------

 --------
 FESNEW16
 --------
 Symbolic Z-matrix:
 Charge =  0 Multiplicity = 1

 SCF Done:  E(RB3LYP) =  -755.659243351     A.U. after   16 cycles
 SCF Done:  E(RB3LYP) =  -755.739995183     A.U. after   13 cycles
 SCF Done:  E(RB3LYP) =  -755.767718311     A.U. after   16 cycles
 SCF Done:  E(RB3LYP) =  -755.751406551     A.U. after   17 cycles
 SCF Done:  E(RB3LYP) =  -755.770099945     A.U. after   13 cycles
 SCF Done:  E(RB3LYP) =  -755.770781512     A.U. after   13 cycles
 SCF Done:  E(RB3LYP) =  -755.769309185     A.U. after   15 cycles
 SCF Done:  E(RB3LYP) =  -755.770814168     A.U. after   10 cycles
 SCF Done:  E(RB3LYP) =  -755.770873869     A.U. after   13 cycles
 SCF Done:  E(RB3LYP) =  -755.770900497     A.U. after   13 cycles
 SCF Done:  E(RB3LYP) =  -755.770906892     A.U. after   12 cycles
 SCF Done:  E(RB3LYP) =  -755.770908947     A.U. after   12 cycles
 SCF Done:  E(RB3LYP) =  -755.770909366     A.U. after    9 cycles
 SCF Done:  E(RB3LYP) =  -755.770909417     A.U. after    8 cycles
 Optimization completed.
    -- Stationary point found.
 Normal termination of Gaussian 09 at Fri Aug 20 15:41:12 2021.

 ----------------------------------------------------------------------
 #P Geom=AllCheck Guess=TCheck SCRF=Check GenChk RB3LYP/6-31G(d,p) Freq
 ----------------------------------------------------------------------

 Structure from the checkpoint file:  "/public/home/users/caep010/.cache/gau_scr/Gau-195428.chk"
 --------
 FESNEW16
 --------
 Charge =  0 Multiplicity = 1

                         Standard orientation:
 ---------------------------------------------------------------------
 Center     Atomic      Atomic             Coordinates (Angstroms)
 Number     Number       Type             X           Y           Z
 ---------------------------------------------------------------------
      1          6           0       -1.182692   -0.732009    0.010767
      2          6           0       -0.657420    0.585852   -0.000229
      3          6           0       -0.267391   -1.802203    0.003615
      4          7           0       -1.530345    1.771330   -0.024114
      5          1           0       -0.630612   -2.821292    0.016021
      6          6           0        0.709715    0.819774    0.003423
      7          6           0        1.578344   -0.264205   -0.015202
      8          6           0        1.101227   -1.573296   -0.017534
      9          1           0        1.807199   -2.394281   -0.029918
     10          1           0        1.085999    1.833727    0.019893
     11          7           0        3.023898   -0.023165   -0.030207
     12          8           0       -2.511083   -0.888626    0.066455
     13          6           0       -3.061162   -2.205699    0.126365
     14          1           0       -4.140013   -2.063332    0.173141
     15          1           0       -2.807040   -2.782087   -0.769678
     16          1           0       -2.721056   -2.738426    1.021147
     17          8           0       -2.621587    1.674987   -0.575832
     18          8           0       -1.084084    2.796525    0.491753
     19          8           0        3.407459    1.145465   -0.034706
     20          8           0        3.762661   -1.008444   -0.037369
 ---------------------------------------------------------------------

 SCF Done:  E(RB3LYP) =  -755.770909417     A.U. after    3 cycles

 The electronic state is 1-A.
 Alpha  occ. eigenvalues --  -19.22754 -19.19047 -19.19045 -19.19029 -19.18900
 Alpha  occ. eigenvalues --  -14.58354 -14.58300 -10.31462 -10.27664 -10.27649
 Alpha  occ. eigenvalues --  -10.26932 -10.24787 -10.24768 -10.23967  -1.23454
 Alpha  occ. eigenvalues --   -1.23407  -1.11791  -1.06142  -1.06097  -0.91984
 Alpha  occ. eigenvalues --   -0.84538  -0.81732  -0.76654  -0.72891  -0.70028
 Alpha  occ. eigenvalues --   -0.64656  -0.60068  -0.58190  -0.55933  -0.55386
 Alpha  occ. eigenvalues --   -0.54242  -0.53915  -0.53246  -0.51424  -0.50812
 Alpha  occ. eigenvalues --   -0.50482  -0.48775  -0.45958  -0.45713  -0.42545
 Alpha  occ. eigenvalues --   -0.41819  -0.37697  -0.37047  -0.32134  -0.31941
 Alpha  occ. eigenvalues --   -0.31580  -0.31546  -0.30825  -0.30075  -0.29158
 Alpha  occ. eigenvalues --   -0.27328
 Alpha virt. eigenvalues --   -0.10035  -0.09346  -0.03319  -0.00354   0.05161
 Alpha virt. eigenvalues --    0.07311   0.09648   0.12316   0.12674   0.13110
 Alpha virt. eigenvalues --    0.13687   0.14566   0.17543   0.18494   0.21235

 Mulliken charges:
               1
     1  C    0.390971
     2  C    0.201002
     3  C   -0.152255
     4  N    0.365223
     5  H    0.116908
     6  C   -0.087197
     7  C    0.231291
     8  C   -0.077674
     9  H    0.150169
    10  H    0.179741
    11  N    0.387302
    12  O   -0.484566
    13  C   -0.096162
    14  H    0.151561
    15  H    0.130385
    16  H    0.128138
    17  O   -0.365684
    18  O   -0.380615
    19  O   -0.390954
    20  O   -0.397585
 Sum of Mulliken charges =  -0.00000

 Dipole moment (field-independent basis, Debye):
    X=             -3.1627    Y=             -5.8771    Z=              0.1648  Tot=              6.6761
 Quadrupole moment (field-independent basis, Debye-Ang):
   XX=            -92.8286   YY=            -76.2925   ZZ=            -77.1955
   XY=             11.9144   XZ=             -1.7260   YZ=             -1.1949

  Exact polarizability: 155.345   5.531 123.356   2.878   2.380  46.973
 Approx polarizability: 256.980   8.478 229.462  14.341  10.886  78.349

                      1                      2                      3
                      A                      A                      A
 Frequencies --     47.1246                57.6569                78.7442
 Red. masses --     14.0105                12.6583                 4.1006
 Frc consts  --      0.0183                 0.0248                 0.0150
 IR Inten    --      0.6892                 0.3386                 0.1226

                      4                      5                      6
                      A                      A                      A
 Frequencies --    122.0327               159.4285               163.5782
 Red. masses --      4.6231                 5.5219                11.5354
 Frc consts  --      0.0406                 0.0827                 0.1819
 IR Inten    --      3.1963                 6.4220                 3.6236

                      7                      8                      9
                      A                      A                      A
 Frequencies --    197.9457               241.3337               303.0553
 Red. masses --      4.6225                 1.1545                 6.0282
 Frc consts  --      0.1067                 0.0396                 0.3262
 IR Inten    --      0.7885                 0.0430                 2.5550

                     10                     11                     12
                      A                      A                      A
 Frequencies --    320.1793               343.0084               374.6586
 Red. masses --      5.6352                11.1812                 8.0643
 Frc consts  --      0.3404                 0.7751                 0.6669
 IR Inten    --      0.4070                 0.7348                 0.9240

                     13                     14                     15
                      A                      A                      A
 Frequencies --    407.9366               468.3818               525.9779
 Red. masses --      5.0452                 4.5765                 4.9919
 Frc consts  --      0.4947                 0.5915                 0.8137
 IR Inten    --      2.1276                 0.2860                 2.1491

                     16                     17                     18
                      A                      A                      A
 Frequencies --    539.9757               623.0181               649.5819
 Red. masses --      5.3872                 5.1352                 6.9644
 Frc consts  --      0.9255                 1.1744                 1.7314
 IR Inten    --      2.4200                 0.4386                15.4127

                     19                     20                     21
                      A                      A                      A
 Frequencies --    688.0312               719.9208               751.6380
 Red. masses --      6.1492                 6.3623                 6.6303
 Frc consts  --      1.7151                 1.9428                 2.2070
 IR Inten    --     16.6649                32.5084                27.8980

                     22                     23                     24
                      A                      A                      A
 Frequencies --    777.3066               805.3788               843.6878
 Red. masses --      6.1089                 6.3953                 1.6358
 Frc consts  --      2.1747                 2.4440                 0.6860
 IR Inten    --      3.4461                 5.4736                24.6060

                     25                     26                     27
                      A                      A                      A
 Frequencies --    844.4370               939.2098               958.4134
 Red. masses --     12.5298                 7.6715                 1.4257
 Frc consts  --      5.2642                 3.9871                 0.7716
 IR Inten    --     25.9831                32.9511                12.5328

                     28                     29                     30
                      A                      A                      A
 Frequencies --    986.7786              1051.6098              1090.7787
 Red. masses --      1.3188                 7.4841                 1.8988
 Frc consts  --      0.7566                 4.8764                 1.3311
 IR Inten    --      0.1565                51.3287                80.1766

                     31                     32                     33
                      A                      A                      A
 Frequencies --   1162.5939              1170.1893              1173.1337
 Red. masses --      5.5284                 1.2956                 1.2682
 Frc consts  --      4.4026                 1.0453                 1.0283
 IR Inten    --     15.2027                52.3352                 0.8883

                     34                     35                     36
                      A                      A                      A
 Frequencies --   1210.9110              1278.7073              1331.2183
 Red. masses --      1.3444                 1.5395                 3.6414
 Frc consts  --      1.1614                 1.4831                 3.8021
 IR Inten    --      3.9182                 8.7208               336.5081

                     37                     38                     39
                      A                      A                      A
 Frequencies --   1370.9544              1391.3472              1407.5658
 Red. masses --      8.9213                12.4297                11.1961
 Frc consts  --      9.8793                14.1769                13.0694
 IR Inten    --     56.2294               479.1795               103.3824

                     40                     41                     42
                      A                      A                      A
 Frequencies --   1453.1521              1485.6446              1508.8607
 Red. masses --      3.8981                 1.3203                 1.0468
 Frc consts  --      4.8498                 1.7170                 1.4041
 IR Inten    --      4.2310                27.2726                 8.8370

                     43                     44                     45
                      A                      A                      A
 Frequencies --   1513.2942              1537.9867              1609.3138
 Red. masses --      1.0799                 2.6207                 9.9172
 Frc consts  --      1.4571                 3.6524                15.1328
 IR Inten    --     34.8342                66.6109                53.8080

                     46                     47                     48
                      A                      A                      A
 Frequencies --   1631.7487              1666.2044              1674.3286
 Red. masses --      9.6455                 9.7583                 9.2844
 Frc consts  --     15.1314                15.9618                15.3350
 IR Inten    --     43.5654               162.8922               343.0659

                     49                     50                     51
                      A                      A                      A
 Frequencies --   3037.3671              3110.6294              3175.3080
 Red. masses --      1.0338                 1.1075                 1.1017
 Frc consts  --      5.6191                 6.3136                 6.5449
 IR Inten    --     41.2036                25.1665                 9.6284

                     52                     53                     54
                      A                      A                      A
 Frequencies --   3237.9311              3249.5169              3265.0429
 Red. masses --      1.0882                 1.0946                 1.0916
 Frc consts  --      6.7221                 6.8098                 6.8563
 IR Inten    --      1.9793                 3.5160                18.3240

 - Thermochemistry -
 -------------------
 Temperature   298.150 Kelvin.  Pressure   1.00000 Atm.
 Atom     1 has atomic number  6 and mass  12.00000

 Molecular mass:   198.02767 amu.
 Principal axes and moments of inertia in atomic units:
                           1         2         3
     Eigenvalues --  1631.176283705.934605257.26826
           X            0.99918   0.04039  -0.00141
           Y           -0.04039   0.99918  -0.00229
           Z            0.00132   0.00234   1.00000
 This molecule is an asymmetric top.
 Rotational symmetry number  1.
 Warning -- assumption of classical behavior for rotation
           may cause significant error
 Rotational temperatures (Kelvin)      0.05310     0.02337     0.01648
 Rotational constants (GHZ):           1.10640     0.48699     0.34328
 Zero-point vibrational energy     363268.5 (Joules/Mol)
                                   86.82327 (Kcal/Mol)
 Warning -- explicit consideration of  16 degrees of freedom as
           vibrations may cause significant error
 Vibrational temperatures:     67.80    82.96   113.30   175.58   229.38
          (Kelvin)            235.35   284.80   347.22   436.03   460.67
                              493.51   539.05   586.93   673.90   756.76
                              776.90   896.38   934.60   989.92  1035.80
                             1081.44  1118.37  1158.76  1213.88  1214.95
                             1351.31  1378.94  1419.75  1513.03  1569.39
                             1672.71  1683.64  1687.88  1742.23  1839.77
                             1915.32  1972.50  2001.84  2025.17  2090.76
                             2137.51  2170.91  2177.29  2212.82  2315.44
                             2347.72  2397.29  2408.98  4370.09  4475.50
                             4568.55  4658.65  4675.32  4697.66

 Zero-point correction=                           0.138362 (Hartree/Particle)
 Thermal correction to Energy=                    0.150333
 Thermal correction to Enthalpy=                  0.151278
 Thermal correction to Gibbs Free Energy=         0.098955
 Sum of electronic and zero-point Energies=           -755.632548
 Sum of electronic and thermal Energies=              -755.620576
 Sum of electronic and thermal Enthalpies=            -755.619632
 Sum of electronic and thermal Free Energies=         -755.671954

                     E (Thermal)             CV                S
                      KCal/Mol        Cal/Mol-Kelvin    Cal/Mol-Kelvin
 Total                   94.336             43.466            110.122
 Electronic               0.000              0.000              0.000
 Translational            0.889              2.981             41.755
 Rotational               0.889              2.981             31.830
 Vibrational             92.558             37.504             36.537
 Vibration     1          0.595              1.979              4.935
 Vibration     2          0.596              1.974              4.536
 Vibration     3          0.600              1.963              3.922
 Vibration     4          0.610              1.931              3.068
 Vibration     5          0.621              1.892              2.557
 Vibration     6          0.623              1.887              2.508
 Vibration     7          0.637              1.843              2.152
 Vibration     8          0.658              1.777              1.793
 Vibration     9          0.695              1.668              1.400
 Vibration    10          0.706              1.635              1.309
 Vibration    11          0.722              1.589              1.198
 Vibration    12          0.746              1.524              1.061
 Vibration    13          0.773              1.453              0.934
 Vibration    14          0.826              1.320              0.742
 Vibration    15          0.881              1.192              0.596
 Vibration    16          0.895              1.162              0.565

 Optimization completed.
    -- Stationary point found.
 Normal termination of Gaussian 09 at Fri Aug 20 15:41:48 2021.
