 Gaussian 09, Revision E.01,
 Gaussian 09:  ES64L-G09RevE.01 30-Nov-2015

 -------------------------
 #P OPT Freq B3LYP/6-31G**
 -------------------------

 ------
 POQFOS
 ------
 Symbolic Z-matrix:
 Charge =  0 Multiplicity = 1

 SCF Done:  E(RB3LYP) =  -719.884894062     A.U. after   18 cycles
 SCF Done:  E(RB3LYP) =  -719.970565289     A.U. after   13 cycles
 SCF Done:  E(RB3LYP) =  -720.005747994     A.U. after   17 cycles
 SCF Done:  E(RB3LYP) =  -720.005667733     A.U. after   15 cycles
 SCF Done:  E(RB3LYP) =  -720.007456067     A.U. after   12 cycles
 SCF Done:  E(RB3LYP) =  -720.003934079     A.U. after   15 cycles
 SCF Done:  E(RB3LYP) =  -720.007644709     A.U. after   10 cycles
 SCF Done:  E(RB3LYP) =  -720.007918196     A.U. after   13 cycles
 SCF Done:  E(RB3LYP) =  -720.007961030     A.U. after   12 cycles
 SCF Done:  E(RB3LYP) =  -720.007996051     A.U. after   12 cycles
 SCF Done:  E(RB3LYP) =  -720.008008296     A.U. after   10 cycles
 SCF Done:  E(RB3LYP) =  -720.008013309     A.U. after   11 cycles
 SCF Done:  E(RB3LYP) =  -720.008015225     A.U. after   10 cycles
 SCF Done:  E(RB3LYP) =  -720.008016192     A.U. after    9 cycles
 SCF Done:  E(RB3LYP) =  -720.008016624     A.U. after    9 cycles
 SCF Done:  E(RB3LYP) =  -720.008016725     A.U. after    8 cycles
 Optimization completed.
    -- Stationary point found.
 Normal termination of Gaussian 09 at Fri Aug 20 15:57:19 2021.

 ----------------------------------------------------------------------
 #P Geom=AllCheck Guess=TCheck SCRF=Check GenChk RB3LYP/6-31G(d,p) Freq
 ----------------------------------------------------------------------

 Structure from the checkpoint file:  "/public/home/users/caep010/.cache/gau_scr/Gau-97740.chk"
 ------
 POQFOS
 ------
 Charge =  0 Multiplicity = 1

                         Standard orientation:
 ---------------------------------------------------------------------
 Center     Atomic      Atomic             Coordinates (Angstroms)
 Number     Number       Type             X           Y           Z
 ---------------------------------------------------------------------
      1          8           0        3.368549   -1.250526    0.003518
      2          7           0        2.120470   -1.385685    0.001058
      3          8           0        1.578636   -2.482708   -0.000379
      4          6           0        1.305281   -0.186793   -0.000074
      5          6           0        1.916489    1.088959    0.001036
      6          6           0        1.061054    2.204997   -0.000339
      7          1           0        1.513969    3.189854    0.000423
      8          8           0        3.236408    1.302537    0.003114
      9          1           0        3.656439    0.408278    0.003917
     10          6           0       -0.087520   -0.353910   -0.002371
     11          1           0       -0.508137   -1.348091   -0.003321
     12          6           0       -0.908596    0.768013   -0.003563
     13          7           0       -2.316571    0.704864   -0.006079
     14          6           0       -3.120658   -0.417168   -0.005476
     15          6           0       -4.613049   -0.125580    0.012064
     16          1           0       -5.086254   -0.696791   -0.789930
     17          1           0       -4.866064    0.931765   -0.104868
     18          1           0       -5.029189   -0.484836    0.957792
     19          1           0       -2.787604    1.597111   -0.005277
     20          8           0       -2.687408   -1.559388   -0.007702
     21          6           0       -0.310916    2.047511   -0.002655
     22          1           0       -0.942451    2.932963   -0.003731
 ---------------------------------------------------------------------

 SCF Done:  E(RB3LYP) =  -720.008016725     A.U. after    1 cycles

 The electronic state is 1-A.
 Alpha  occ. eigenvalues --  -19.19098 -19.19049 -19.18864 -19.13056 -14.58088
 Alpha  occ. eigenvalues --  -14.39455 -10.30925 -10.28604 -10.25817 -10.25710
 Alpha  occ. eigenvalues --  -10.22880 -10.21550 -10.21461 -10.20816  -1.23114
 Alpha  occ. eigenvalues --   -1.08355  -1.05233  -1.05161  -0.95920  -0.88395
 Alpha  occ. eigenvalues --   -0.81891  -0.77989  -0.74267  -0.71370  -0.65111
 Alpha  occ. eigenvalues --   -0.63388  -0.59682  -0.57713  -0.55483  -0.53925
 Alpha  occ. eigenvalues --   -0.52752  -0.51606  -0.49354  -0.48223  -0.46660
 Alpha  occ. eigenvalues --   -0.45306  -0.44363  -0.43178  -0.41730  -0.41428
 Alpha  occ. eigenvalues --   -0.41134  -0.40405  -0.37704  -0.35859  -0.31980
 Alpha  occ. eigenvalues --   -0.31571  -0.30593  -0.30126  -0.28592  -0.26561
 Alpha  occ. eigenvalues --   -0.22631
 Alpha virt. eigenvalues --   -0.09631  -0.02384  -0.00803   0.03630   0.04877
 Alpha virt. eigenvalues --    0.08179   0.11450   0.13186   0.13614   0.15189
 Alpha virt. eigenvalues --    0.15327   0.16072   0.16692   0.18900   0.21529

 Mulliken charges:
               1
     1  O   -0.457505
     2  N    0.392383
     3  O   -0.376971
     4  C    0.219076
     5  C    0.322513
     6  C   -0.111551
     7  H    0.115866
     8  O   -0.552823
     9  H    0.357908
    10  C   -0.120202
    11  H    0.184546
    12  C    0.307924
    13  N   -0.630168
    14  C    0.575904
    15  C   -0.397335
    16  H    0.156329
    17  H    0.100331
    18  H    0.155458
    19  H    0.261857
    20  O   -0.484126
    21  C   -0.113985
    22  H    0.094572
 Sum of Mulliken charges =  -0.00000

 Dipole moment (field-independent basis, Debye):
    X=             -4.1450    Y=              5.4086    Z=              0.0379  Tot=              6.8144
 Quadrupole moment (field-independent basis, Debye-Ang):
   XX=            -72.8182   YY=            -83.5859   ZZ=            -79.0540
   XY=             -5.8125   XZ=             -0.1687   YZ=             -0.0198

  Exact polarizability: 169.129   1.176 132.881  -0.049   0.004  46.063
 Approx polarizability: 259.417  11.597 253.778   0.095   0.072  70.871

                      1                      2                      3
                      A                      A                      A
 Frequencies --     40.0128                45.8249                65.9736
 Red. masses --      5.3195                 1.2757                 3.4769
 Frc consts  --      0.0050                 0.0016                 0.0089
 IR Inten    --      3.5133                 3.8704                 2.0198

                      4                      5                      6
                      A                      A                      A
 Frequencies --     91.9117               120.8198               149.1810
 Red. masses --      6.1040                 6.5576                 5.4192
 Frc consts  --      0.0304                 0.0564                 0.0711
 IR Inten    --      0.0512                 1.3268                 0.1929

                      7                      8                      9
                      A                      A                      A
 Frequencies --    204.1921               258.3341               314.9189
 Red. masses --      6.3934                 7.8277                 4.7670
 Frc consts  --      0.1571                 0.3078                 0.2785
 IR Inten    --      1.2648                 9.6145                 0.9174

                     10                     11                     12
                      A                      A                      A
 Frequencies --    347.5014               379.4124               405.2309
 Red. masses --      6.3190                 4.9005                 7.6980
 Frc consts  --      0.4496                 0.4156                 0.7448
 IR Inten    --      3.9222                 0.6203                 3.9320

                     13                     14                     15
                      A                      A                      A
 Frequencies --    438.3713               439.9095               506.8769
 Red. masses --      4.1978                 9.2256                 1.3800
 Frc consts  --      0.4753                 1.0519                 0.2089
 IR Inten    --      0.1902                 1.3874                66.9101

                     16                     17                     18
                      A                      A                      A
 Frequencies --    511.3486               563.5063               574.7978
 Red. masses --      3.6465                 3.0500                 5.4270
 Frc consts  --      0.5618                 0.5706                 1.0564
 IR Inten    --     31.0536                10.4175                 0.5369

                     19                     20                     21
                      A                      A                      A
 Frequencies --    623.9297               646.6285               693.1546
 Red. masses --      2.4037                 5.0704                 4.6699
 Frc consts  --      0.5513                 1.2491                 1.3220
 IR Inten    --      5.5235                 0.1178                 0.3257

                     22                     23                     24
                      A                      A                      A
 Frequencies --    700.2924               758.6590               770.6632
 Red. masses --      7.5698                10.1364                 1.0913
 Frc consts  --      2.1872                 3.4374                 0.3819
 IR Inten    --     10.8696                15.3421               101.2673

                     25                     26                     27
                      A                      A                      A
 Frequencies --    829.9952               839.2490               839.5903
 Red. masses --      6.3879                 1.5071                 7.8893
 Frc consts  --      2.5927                 0.6254                 3.2766
 IR Inten    --     22.4262                20.9256                 9.7196

                     28                     29                     30
                      A                      A                      A
 Frequencies --    942.1402               963.3264               965.7017
 Red. masses --      1.3474                 3.9816                 1.3048
 Frc consts  --      0.7047                 2.1770                 0.7169
 IR Inten    --     10.9237                 0.8911                 5.1349

                     31                     32                     33
                      A                      A                      A
 Frequencies --    967.8854              1027.2373              1055.7759
 Red. masses --      4.8456                 1.7075                 1.6847
 Frc consts  --      2.6745                 1.0616                 1.1064
 IR Inten    --      2.8730                35.3834                10.1603

                     34                     35                     36
                      A                      A                      A
 Frequencies --   1100.4319              1164.8531              1217.6516
 Red. masses --      2.6065                 1.4406                 1.5225
 Frc consts  --      1.8597                 1.1517                 1.3300
 IR Inten    --     23.5269                27.0473                50.2317

                     37                     38                     39
                      A                      A                      A
 Frequencies --   1255.2056              1273.7650              1311.1743
 Red. masses --      2.6636                 2.3487                 4.0309
 Frc consts  --      2.4726                 2.2452                 4.0830
 IR Inten    --     95.7701               188.2447               146.4804

                     40                     41                     42
                      A                      A                      A
 Frequencies --   1322.8132              1383.6800              1413.0269
 Red. masses --      2.3299                 4.7047                 1.2597
 Frc consts  --      2.4020                 5.3071                 1.4819
 IR Inten    --    279.3755                68.8072                26.6866

                     43                     44                     45
                      A                      A                      A
 Frequencies --   1431.6057              1461.9257              1482.1362
 Red. masses --      3.4691                 2.4719                 1.0526
 Frc consts  --      4.1890                 3.1127                 1.3624
 IR Inten    --     10.2922                60.4983                 8.0595

                     46                     47                     48
                      A                      A                      A
 Frequencies --   1503.5514              1542.8877              1564.8442
 Red. masses --      1.0902                 3.5673                 2.2679
 Frc consts  --      1.4521                 5.0034                 3.2721
 IR Inten    --     15.1076               180.6833               686.1711

                     49                     50                     51
                      A                      A                      A
 Frequencies --   1623.3446              1642.3668              1694.2630
 Red. masses --      6.8451                 3.8847                 7.1267
 Frc consts  --     10.6280                 6.1738                12.0532
 IR Inten    --    109.3839                10.9966                40.6068

                     52                     53                     54
                      A                      A                      A
 Frequencies --   1789.7559              3060.0221              3135.8758
 Red. masses --      9.0279                 1.0362                 1.1028
 Frc consts  --     17.0382                 5.7164                 6.3892
 IR Inten    --    176.1328                 7.9759                11.4703

                     55                     56                     57
                      A                      A                      A
 Frequencies --   3148.4545              3174.6763              3224.8729
 Red. masses --      1.1020                 1.0900                 1.0932
 Frc consts  --      6.4361                 6.4723                 6.6987
 IR Inten    --      7.2636                12.9022                 1.6347

                     58                     59                     60
                      A                      A                      A
 Frequencies --   3281.5026              3399.4426              3640.8351
 Red. masses --      1.0912                 1.0655                 1.0771
 Frc consts  --      6.9231                 7.2550                 8.4120
 IR Inten    --     26.7763               236.5600                20.9790

 - Thermochemistry -
 -------------------
 Temperature   298.150 Kelvin.  Pressure   1.00000 Atm.
 Atom     1 has atomic number  8 and mass  15.99491

 Molecular mass:   196.04841 amu.
 Principal axes and moments of inertia in atomic units:
                           1         2         3
     Eigenvalues --  1371.609664302.118535662.52389
           X            1.00000   0.00096  -0.00021
           Y           -0.00096   1.00000  -0.00006
           Z            0.00021   0.00006   1.00000
 This molecule is an asymmetric top.
 Rotational symmetry number  1.
 Warning -- assumption of classical behavior for rotation
           may cause significant error
 Rotational temperatures (Kelvin)      0.06315     0.02013     0.01530
 Rotational constants (GHZ):           1.31578     0.41950     0.31872
 Zero-point vibrational energy     426632.1 (Joules/Mol)
                                  101.96752 (Kcal/Mol)
 Warning -- explicit consideration of  18 degrees of freedom as
           vibrations may cause significant error
 Vibrational temperatures:     57.57    65.93    94.92   132.24   173.83
          (Kelvin)            214.64   293.79   371.68   453.10   499.98
                              545.89   583.04   630.72   632.93   729.28
                              735.72   810.76   827.00   897.69   930.35
                              997.29  1007.56  1091.54  1108.81  1194.18
                             1207.49  1207.98  1355.53  1386.01  1389.43
                             1392.57  1477.96  1519.02  1583.27  1675.96
                             1751.93  1805.96  1832.66  1886.49  1903.23
                             1990.80  2033.03  2059.76  2103.38  2132.46
                             2163.27  2219.87  2251.46  2335.63  2363.00
                             2437.66  2575.06  4402.68  4511.82  4529.92
                             4567.65  4639.87  4721.34  4891.03  5238.34

 Zero-point correction=                           0.162496 (Hartree/Particle)
 Thermal correction to Energy=                    0.174978
 Thermal correction to Enthalpy=                  0.175922
 Thermal correction to Gibbs Free Energy=         0.122168
 Sum of electronic and zero-point Energies=           -719.845521
 Sum of electronic and thermal Energies=              -719.833039
 Sum of electronic and thermal Enthalpies=            -719.832095
 Sum of electronic and thermal Free Energies=         -719.885849

                     E (Thermal)             CV                S
                      KCal/Mol        Cal/Mol-Kelvin    Cal/Mol-Kelvin
 Total                  109.800             46.183            113.135
 Electronic               0.000              0.000              0.000
 Translational            0.889              2.981             41.725
 Rotational               0.889              2.981             31.880
 Vibrational            108.023             40.221             39.530
 Vibration     1          0.594              1.981              5.258
 Vibration     2          0.595              1.979              4.990
 Vibration     3          0.597              1.971              4.270
 Vibration     4          0.602              1.955              3.619
 Vibration     5          0.609              1.932              3.087
 Vibration     6          0.618              1.904              2.683
 Vibration     7          0.640              1.834              2.095
 Vibration     8          0.667              1.749              1.673
 Vibration     9          0.702              1.645              1.336
 Vibration    10          0.725              1.580              1.177
 Vibration    11          0.749              1.514              1.042
 Vibration    12          0.770              1.459              0.944
 Vibration    13          0.799              1.387              0.832
 Vibration    14          0.800              1.383              0.827
 Vibration    15          0.862              1.235              0.641
 Vibration    16          0.866              1.225              0.630
 Vibration    17          0.919              1.110              0.517
 Vibration    18          0.931              1.086              0.495

 Normal termination of Gaussian 09 at Fri Aug 20 15:57:58 2021.
