 Gaussian 09, Revision E.01,
 Gaussian 09:  ES64L-G09RevE.01 30-Nov-2015

 -------------------------
 #P OPT Freq B3LYP/6-31G**
 -------------------------

 ------
 HABMAZ
 ------
 Symbolic Z-matrix:
 Charge =  0 Multiplicity = 1

 SCF Done:  E(RB3LYP) =  -622.418182279     A.U. after   16 cycles
 SCF Done:  E(RB3LYP) =  -622.529430050     A.U. after   13 cycles
 SCF Done:  E(RB3LYP) =  -622.596310035     A.U. after   14 cycles
 SCF Done:  E(RB3LYP) =  -622.605264405     A.U. after   14 cycles
 SCF Done:  E(RB3LYP) =  -622.610856667     A.U. after   15 cycles
 SCF Done:  E(RB3LYP) =  -622.612425478     A.U. after   14 cycles
 SCF Done:  E(RB3LYP) =  -622.613457895     A.U. after   14 cycles
 SCF Done:  E(RB3LYP) =  -622.613691893     A.U. after   14 cycles
 SCF Done:  E(RB3LYP) =  -622.613910963     A.U. after   12 cycles
 SCF Done:  E(RB3LYP) =  -622.613950671     A.U. after   12 cycles
 SCF Done:  E(RB3LYP) =  -622.613962139     A.U. after   13 cycles
 SCF Done:  E(RB3LYP) =  -622.613972011     A.U. after   10 cycles
 SCF Done:  E(RB3LYP) =  -622.613984280     A.U. after   10 cycles
 SCF Done:  E(RB3LYP) =  -622.614002921     A.U. after   12 cycles
 SCF Done:  E(RB3LYP) =  -622.614020201     A.U. after   10 cycles
 SCF Done:  E(RB3LYP) =  -622.614038103     A.U. after   12 cycles
 SCF Done:  E(RB3LYP) =  -622.614040701     A.U. after   11 cycles
 SCF Done:  E(RB3LYP) =  -622.614041285     A.U. after   10 cycles
 Optimization completed.
    -- Stationary point found.
 Normal termination of Gaussian 09 at Fri Aug 20 15:53:55 2021.

 ----------------------------------------------------------------------
 #P Geom=AllCheck Guess=TCheck SCRF=Check GenChk RB3LYP/6-31G(d,p) Freq
 ----------------------------------------------------------------------

 Structure from the checkpoint file:  "/public/home/users/caep010/.cache/gau_scr/Gau-83075.chk"
 ------
 HABMAZ
 ------
 Charge =  0 Multiplicity = 1

                         Standard orientation:
 ---------------------------------------------------------------------
 Center     Atomic      Atomic             Coordinates (Angstroms)
 Number     Number       Type             X           Y           Z
 ---------------------------------------------------------------------
      1          8           0        0.317118    2.570654   -0.000467
      2          7           0       -0.452072    1.431884   -0.000199
      3          6           0        0.215763    0.215365    0.000082
      4          6           0       -1.790717    1.581270    0.000307
      5          1           0       -2.136553    2.606538    0.000732
      6          7           0        1.536613    0.436244   -0.000066
      7          7           0        2.422501   -0.614258    0.000025
      8          8           0        2.021028   -1.789330    0.000113
      9          1           0        1.231248    2.159082   -0.000015
     10          8           0        3.606185   -0.286721    0.000136
     11          6           0       -0.623066   -0.930459    0.000036
     12          6           0       -2.003687   -0.815684    0.000109
     13          1           0       -0.134637   -1.891916   -0.000095
     14          6           0       -2.596317    0.470478    0.000403
     15          1           0       -3.672279    0.596498    0.001049
     16          6           0       -2.877466   -2.043168   -0.000402
     17          1           0       -3.529198   -2.056039    0.880219
     18          1           0       -2.282396   -2.958162    0.000906
     19          1           0       -3.527186   -2.056730   -0.882581
 ---------------------------------------------------------------------

 SCF Done:  E(RB3LYP) =  -622.614041285     A.U. after    1 cycles

 The electronic state is 1-A.
 Alpha  occ. eigenvalues --  -19.22648 -19.15285 -19.15046 -14.57377 -14.49346
 Alpha  occ. eigenvalues --  -14.36317 -10.30823 -10.28024 -10.24891 -10.23021
 Alpha  occ. eigenvalues --  -10.22180 -10.21353  -1.21049  -1.15732  -1.02628
 Alpha  occ. eigenvalues --   -0.97266  -0.93587  -0.84784  -0.81068  -0.74196
 Alpha  occ. eigenvalues --   -0.71790  -0.65623  -0.61870  -0.58219  -0.55576
 Alpha  occ. eigenvalues --   -0.53971  -0.52598  -0.50046  -0.49987  -0.49089
 Alpha  occ. eigenvalues --   -0.48379  -0.44971  -0.44767  -0.42748  -0.40958
 Alpha  occ. eigenvalues --   -0.39333  -0.36901  -0.34515  -0.33909  -0.29161
 Alpha  occ. eigenvalues --   -0.29049  -0.28372  -0.25548  -0.23952
 Alpha virt. eigenvalues --   -0.07064  -0.05134   0.00798   0.04728   0.09453
 Alpha virt. eigenvalues --    0.10074   0.10494   0.11820   0.13340   0.13861
 Alpha virt. eigenvalues --    0.16571   0.17328   0.17677   0.20073   0.22721

 Mulliken charges:
               1
     1  O   -0.419329
     2  N   -0.239729
     3  C    0.669493
     4  C    0.175551
     5  H    0.161963
     6  N   -0.575731
     7  N    0.601446
     8  O   -0.446563
     9  H    0.377490
    10  O   -0.407273
    11  C   -0.166677
    12  C    0.154189
    13  H    0.157061
    14  C   -0.181613
    15  H    0.111952
    16  C   -0.382058
    17  H    0.137376
    18  H    0.134991
    19  H    0.137460
 Sum of Mulliken charges =  -0.00000

 Dipole moment (field-independent basis, Debye):
    X=             -7.7737    Y=              1.2075    Z=              0.0010  Tot=              7.8670
 Quadrupole moment (field-independent basis, Debye-Ang):
   XX=            -73.0042   YY=            -66.9910   ZZ=            -68.1967
   XY=              4.5251   XZ=             -0.0020   YZ=              0.0047

  Exact polarizability: 157.662   1.744 108.304  -0.003   0.002  40.224
 Approx polarizability: 266.033   8.786 191.376  -0.007  -0.003  61.509

                      1                      2                      3
                      A                      A                      A
 Frequencies --     48.8324                59.4211                93.7185
 Red. masses --     12.3692                 1.0482                 5.6408
 Frc consts  --      0.0174                 0.0022                 0.0292
 IR Inten    --      0.1703                 0.1769                 0.0559

                      4                      5                      6
                      A                      A                      A
 Frequencies --    142.5698               164.7811               232.6310
 Red. masses --      4.7752                 5.9515                 5.4347
 Frc consts  --      0.0572                 0.0952                 0.1733
 IR Inten    --      0.0279                 3.3012                 0.1423

                      7                      8                      9
                      A                      A                      A
 Frequencies --    306.4020               330.1607               330.2921
 Red. masses --      4.1376                 6.8662                 5.7297
 Frc consts  --      0.2289                 0.4410                 0.3683
 IR Inten    --      3.5549                 1.9787                 1.2613

                     10                     11                     12
                      A                      A                      A
 Frequencies --    416.0859               425.9111               472.0043
 Red. masses --      6.6018                 3.0756                 6.0651
 Frc consts  --      0.6734                 0.3287                 0.7961
 IR Inten    --      0.9903                11.9890                 1.8378

                     13                     14                     15
                      A                      A                      A
 Frequencies --    530.1558               591.2640               652.5973
 Red. masses --      4.3903                 2.7454                 1.3592
 Frc consts  --      0.7270                 0.5655                 0.3411
 IR Inten    --     12.1370                 6.3059                76.4473

                     16                     17                     18
                      A                      A                      A
 Frequencies --    685.4533               701.3556               744.5491
 Red. masses --      8.1852                 3.8669                 6.6555
 Frc consts  --      2.2659                 1.1207                 2.1738
 IR Inten    --      0.0504                26.8395                 7.5296

                     19                     20                     21
                      A                      A                      A
 Frequencies --    777.4931               792.5885               794.9811
 Red. masses --     13.2148                 1.2697                 9.4193
 Frc consts  --      4.7066                 0.4699                 3.5074
 IR Inten    --     12.1292                29.9389                14.0184

                     22                     23                     24
                      A                      A                      A
 Frequencies --    846.8899               888.4429               930.1834
 Red. masses --      7.0639                 1.2716                 1.2757
 Frc consts  --      2.9850                 0.5914                 0.6503
 IR Inten    --     11.9102                12.3286                 1.6746

                     25                     26                     27
                      A                      A                      A
 Frequencies --    960.3175              1024.4660              1062.6831
 Red. masses --      3.8523                 1.8233                 2.8691
 Frc consts  --      2.0932                 1.1275                 1.9090
 IR Inten    --     22.5303                30.9669                27.2618

                     28                     29                     30
                      A                      A                      A
 Frequencies --   1063.6183              1152.1258              1187.4082
 Red. masses --      1.5371                 1.5808                 2.6037
 Frc consts  --      1.0245                 1.2363                 2.1630
 IR Inten    --      5.8812                 2.6815                64.5164

                     31                     32                     33
                      A                      A                      A
 Frequencies --   1227.1076              1278.8006              1299.0656
 Red. masses --      3.0366                 2.4472                 2.4787
 Frc consts  --      2.6940                 2.3579                 2.4646
 IR Inten    --     39.0083               115.1325                73.9614

                     34                     35                     36
                      A                      A                      A
 Frequencies --   1348.3722              1358.2727              1426.3307
 Red. masses --      4.0527                 3.5971                 1.2513
 Frc consts  --      4.3412                 3.9100                 1.4998
 IR Inten    --    677.6708               112.3538                 0.2654

                     37                     38                     39
                      A                      A                      A
 Frequencies --   1486.8053              1495.0024              1509.5334
 Red. masses --      1.3366                 1.0435                 2.1795
 Frc consts  --      1.7408                 1.3741                 2.9261
 IR Inten    --      0.4459                 7.7177               105.2803

                     40                     41                     42
                      A                      A                      A
 Frequencies --   1542.2670              1546.1951              1623.0069
 Red. masses --      3.1767                 2.8554                 6.0908
 Frc consts  --      4.4520                 4.0221                 9.4529
 IR Inten    --    246.4051               261.1867                58.0978

                     43                     44                     45
                      A                      A                      A
 Frequencies --   1640.2740              1684.8449              3047.8973
 Red. masses --      3.0503                 6.6323                 1.0382
 Frc consts  --      4.8353                11.0926                 5.6823
 IR Inten    --    267.9554               214.0183                12.2099

                     46                     47                     48
                      A                      A                      A
 Frequencies --   3105.0132              3148.5366              3208.8479
 Red. masses --      1.1006                 1.1013                 1.0635
 Frc consts  --      6.2516                 6.4327                 6.4520
 IR Inten    --     10.3579                 8.3509               199.7710

                     49                     50                     51
                      A                      A                      A
 Frequencies --   3227.1425              3258.2928              3289.7600
 Red. masses --      1.0905                 1.0963                 1.0910
 Frc consts  --      6.6911                 6.8575                 6.9567
 IR Inten    --      0.1411                 1.1262                10.4910

 - Thermochemistry -
 -------------------
 Temperature   298.150 Kelvin.  Pressure   1.00000 Atm.
 Atom     1 has atomic number  8 and mass  15.99491

 Molecular mass:   169.04874 amu.
 Principal axes and moments of inertia in atomic units:
                           1         2         3
     Eigenvalues --  1179.169572558.250753726.23641
           X            0.99908   0.04294  -0.00000
           Y           -0.04294   0.99908   0.00002
           Z            0.00000  -0.00002   1.00000
 This molecule is an asymmetric top.
 Rotational symmetry number  1.
 Warning -- assumption of classical behavior for rotation
           may cause significant error
 Rotational temperatures (Kelvin)      0.07345     0.03386     0.02324
 Rotational constants (GHZ):           1.53052     0.70546     0.48433
 Zero-point vibrational energy     365822.5 (Joules/Mol)
                                   87.43368 (Kcal/Mol)
 Warning -- explicit consideration of  14 degrees of freedom as
           vibrations may cause significant error
 Vibrational temperatures:     70.26    85.49   134.84   205.13   237.08
          (Kelvin)            334.70   440.84   475.03   475.22   598.65
                              612.79   679.11   762.78   850.70   938.94
                              986.21  1009.09  1071.24  1118.64  1140.36
                             1143.80  1218.48  1278.27  1338.32  1381.68
                             1473.98  1528.96  1530.31  1657.65  1708.41
                             1765.53  1839.91  1869.06  1940.00  1954.25
                             2052.17  2139.18  2150.97  2171.88  2218.98
                             2224.63  2335.14  2359.99  2424.11  4385.24
                             4467.42  4530.04  4616.81  4643.13  4687.95
                             4733.22

 Zero-point correction=                           0.139334 (Hartree/Particle)
 Thermal correction to Energy=                    0.149866
 Thermal correction to Enthalpy=                  0.150810
 Thermal correction to Gibbs Free Energy=         0.102065
 Sum of electronic and zero-point Energies=           -622.474707
 Sum of electronic and thermal Energies=              -622.464175
 Sum of electronic and thermal Enthalpies=            -622.463231
 Sum of electronic and thermal Free Energies=         -622.511976

                     E (Thermal)             CV                S
                      KCal/Mol        Cal/Mol-Kelvin    Cal/Mol-Kelvin
 Total                   94.042             38.837            102.593
 Electronic               0.000              0.000              0.000
 Translational            0.889              2.981             41.283
 Rotational               0.889              2.981             30.798
 Vibrational             92.265             32.876             30.512
 Vibration     1          0.595              1.978              4.864
 Vibration     2          0.597              1.974              4.476
 Vibration     3          0.603              1.954              3.581
 Vibration     4          0.616              1.911              2.769
 Vibration     5          0.623              1.886              2.494
 Vibration     6          0.653              1.791              1.859
 Vibration     7          0.697              1.662              1.382
 Vibration     8          0.713              1.615              1.259
 Vibration     9          0.713              1.615              1.259
 Vibration    10          0.779              1.435              0.905
 Vibration    11          0.788              1.414              0.872
 Vibration    12          0.829              1.312              0.732
 Vibration    13          0.885              1.183              0.587
 Vibration    14          0.949              1.050              0.465

 Normal termination of Gaussian 09 at Fri Aug 20 15:54:22 2021.
