 Gaussian 09, Revision E.01,
 Gaussian 09:  ES64L-G09RevE.01 30-Nov-2015

 -------------------------
 #P OPT Freq B3LYP/6-31G**
 -------------------------

 ------
 QAQPIH
 ------
 Symbolic Z-matrix:
 Charge =  0 Multiplicity = 1

 SCF Done:  E(RB3LYP) =  -714.763179784     A.U. after   16 cycles
 SCF Done:  E(RB3LYP) =  -714.811788980     A.U. after   14 cycles
 SCF Done:  E(RB3LYP) =  -714.820217091     A.U. after   15 cycles
 SCF Done:  E(RB3LYP) =  -714.812487243     A.U. after   17 cycles
 SCF Done:  E(RB3LYP) =  -714.820282751     A.U. after   11 cycles
 SCF Done:  E(RB3LYP) =  -714.820527801     A.U. after   13 cycles
 SCF Done:  E(RB3LYP) =  -714.820563027     A.U. after   13 cycles
 SCF Done:  E(RB3LYP) =  -714.820573913     A.U. after   12 cycles
 SCF Done:  E(RB3LYP) =  -714.820577386     A.U. after   12 cycles
 SCF Done:  E(RB3LYP) =  -714.820578335     A.U. after    9 cycles
 SCF Done:  E(RB3LYP) =  -714.820578525     A.U. after    8 cycles
 Optimization completed.
    -- Stationary point found.
 Normal termination of Gaussian 09 at Fri Aug 20 16:04:04 2021.

 ----------------------------------------------------------------------
 #P Geom=AllCheck Guess=TCheck SCRF=Check GenChk RB3LYP/6-31G(d,p) Freq
 ----------------------------------------------------------------------

 Structure from the checkpoint file:  "/public/home/users/caep010/.cache/gau_scr/Gau-159609.chk"
 ------
 QAQPIH
 ------
 Charge =  0 Multiplicity = 1

                         Standard orientation:
 ---------------------------------------------------------------------
 Center     Atomic      Atomic             Coordinates (Angstroms)
 Number     Number       Type             X           Y           Z
 ---------------------------------------------------------------------
      1          8           0        0.343934   -0.158069   -1.651941
      2          7           0       -1.040697   -0.381697   -1.630063
      3          6           0        0.816059    0.122060   -0.350198
      4          6           0       -0.447725    0.494369    0.506638
      5          7           0        1.462111   -1.200775    0.212663
      6          8           0        2.316235   -1.048380    1.072023
      7          6           0       -0.630944    2.025273    0.606649
      8          6           0       -0.507443   -0.149163    1.901039
      9          1           0       -0.466564   -1.239488    1.855359
     10          1           0       -1.447070    0.133504    2.381995
     11          1           0       -1.612325    2.243730    1.035847
     12          8           0        1.006406   -2.245331   -0.211666
     13          6           0        1.871394    1.130739   -0.414543
     14          7           0        2.674481    1.963844   -0.485037
     15          6           0       -1.480704   -0.066767   -0.466072
     16          6           0       -2.868455   -0.176173   -0.155901
     17          7           0       -3.982168   -0.235440    0.171863
     18          1           0       -0.566932    2.508210   -0.371504
     19          1           0        0.134033    2.455487    1.258076
     20          1           0        0.317065    0.209257    2.521257
 ---------------------------------------------------------------------

 SCF Done:  E(RB3LYP) =  -714.820578525     A.U. after    1 cycles

 The electronic state is 1-A.
 Alpha  occ. eigenvalues --  -19.27272 -19.23274 -19.23074 -14.61124 -14.46140
 Alpha  occ. eigenvalues --  -14.38795 -14.38712 -10.38133 -10.31559 -10.29728
 Alpha  occ. eigenvalues --  -10.27727 -10.27644 -10.23573 -10.23390  -1.27461
 Alpha  occ. eigenvalues --   -1.18213  -1.10639  -0.96791  -0.95347  -0.93394
 Alpha  occ. eigenvalues --   -0.90163  -0.80820  -0.75105  -0.73177  -0.69453
 Alpha  occ. eigenvalues --   -0.67975  -0.61873  -0.60262  -0.58067  -0.54730
 Alpha  occ. eigenvalues --   -0.52930  -0.51479  -0.49821  -0.47248  -0.45262
 Alpha  occ. eigenvalues --   -0.44191  -0.43988  -0.41423  -0.41140  -0.40514
 Alpha  occ. eigenvalues --   -0.40390  -0.40007  -0.39231  -0.38389  -0.38067
 Alpha  occ. eigenvalues --   -0.35733  -0.35462  -0.34664  -0.33639  -0.30916
 Alpha virt. eigenvalues --   -0.11040  -0.10023  -0.04061  -0.03320  -0.02245
 Alpha virt. eigenvalues --    0.04971   0.05865   0.07032   0.09123   0.10331
 Alpha virt. eigenvalues --    0.11376   0.11812   0.12907   0.13669   0.14953

 Mulliken charges:
               1
     1  O   -0.359565
     2  N   -0.106665
     3  C    0.384860
     4  C   -0.086306
     5  N    0.450640
     6  O   -0.339459
     7  C   -0.322825
     8  C   -0.329964
     9  H    0.145280
    10  H    0.144999
    11  H    0.142573
    12  O   -0.322336
    13  C    0.364209
    14  N   -0.435892
    15  C    0.337129
    16  C    0.336109
    17  N   -0.452411
    18  H    0.144547
    19  H    0.152500
    20  H    0.152574
 Sum of Mulliken charges =  -0.00000

 Dipole moment (field-independent basis, Debye):
    X=             -0.9282    Y=              1.7325    Z=              2.1749  Tot=              2.9314
 Quadrupole moment (field-independent basis, Debye-Ang):
   XX=           -100.6447   YY=            -82.9339   ZZ=            -79.1919
   XY=             -5.3896   XZ=             -1.6325   YZ=              1.1003

  Exact polarizability: 128.068  10.549  87.569  -4.895   2.905  81.297
 Approx polarizability: 213.179  30.073 143.793 -12.056  16.800 148.118

                      1                      2                      3
                      A                      A                      A
 Frequencies --     44.8719                73.4576               109.9160
 Red. masses --      6.9395                15.4096                 7.6974
 Frc consts  --      0.0082                 0.0490                 0.0548
 IR Inten    --      2.8982                 0.2086                 3.6023

                      4                      5                      6
                      A                      A                      A
 Frequencies --    129.8471               152.9273               169.8507
 Red. masses --      7.1130                11.0095                 5.7790
 Frc consts  --      0.0707                 0.1517                 0.0982
 IR Inten    --      5.8777                 5.0030                 2.2062

                      7                      8                      9
                      A                      A                      A
 Frequencies --    195.8783               239.7405               244.3801
 Red. masses --      5.2977                 6.5010                 1.0608
 Frc consts  --      0.1198                 0.2201                 0.0373
 IR Inten    --      5.1114                 2.1739                 0.1160

                     10                     11                     12
                      A                      A                      A
 Frequencies --    281.1118               287.9007               329.7172
 Red. masses --      1.3108                 2.3662                 3.4998
 Frc consts  --      0.0610                 0.1156                 0.2242
 IR Inten    --      1.6585                 3.6811                 1.1501

                     13                     14                     15
                      A                      A                      A
 Frequencies --    357.0223               373.9215               387.3873
 Red. masses --      5.5342                 4.6111                 6.4275
 Frc consts  --      0.4156                 0.3799                 0.5683
 IR Inten    --      0.1190                 2.5182                 0.7541

                     16                     17                     18
                      A                      A                      A
 Frequencies --    457.0422               475.4732               495.0654
 Red. masses --     10.3275                10.8827                 6.3777
 Frc consts  --      1.2710                 1.4496                 0.9210
 IR Inten    --      0.8170                 3.7534                 2.8139

                     19                     20                     21
                      A                      A                      A
 Frequencies --    513.0781               604.6571               634.9451
 Red. masses --     13.2117                10.4300                 6.4671
 Frc consts  --      2.0492                 2.2467                 1.5361
 IR Inten    --      0.8183                 3.2801                 5.2091

                     22                     23                     24
                      A                      A                      A
 Frequencies --    647.3576               674.9510               725.8588
 Red. masses --      6.2870                 7.4089                 6.2141
 Frc consts  --      1.5523                 1.9886                 1.9290
 IR Inten    --      2.4588                 0.8802                 3.2463

                     25                     26                     27
                      A                      A                      A
 Frequencies --    793.9851               828.3999               896.3834
 Red. masses --      6.5033                 6.9889                 8.1231
 Frc consts  --      2.4155                 2.8258                 3.8455
 IR Inten    --     17.6822                31.2264                 4.0832

                     28                     29                     30
                      A                      A                      A
 Frequencies --    923.7289               957.9479               972.8290
 Red. masses --     12.7272                 2.2774                 1.6150
 Frc consts  --      6.3984                 1.2313                 0.9006
 IR Inten    --    138.2224                 3.5260                 0.5344

                     31                     32                     33
                      A                      A                      A
 Frequencies --   1043.2385              1072.2386              1136.8147
 Red. masses --      1.3444                 5.9834                 2.7337
 Frc consts  --      0.8621                 4.0530                 2.0815
 IR Inten    --      1.8320                28.3279                46.4554

                     34                     35                     36
                      A                      A                      A
 Frequencies --   1183.6643              1220.1351              1244.0893
 Red. masses --      3.6226                 5.5974                 3.1620
 Frc consts  --      2.9904                 4.9097                 2.8834
 IR Inten    --      0.8439                 6.3120                 6.4946

                     37                     38                     39
                      A                      A                      A
 Frequencies --   1309.0891              1399.5762              1421.3304
 Red. masses --      5.8298                11.1120                 1.2106
 Frc consts  --      5.8863                12.8243                 1.4409
 IR Inten    --     14.5421               114.4319                 2.5100

                     40                     41                     42
                      A                      A                      A
 Frequencies --   1444.7907              1493.0395              1503.2238
 Red. masses --      1.2105                 1.0463                 1.0450
 Frc consts  --      1.4887                 1.3742                 1.3913
 IR Inten    --      9.0107                 5.9690                 1.7258

                     43                     44                     45
                      A                      A                      A
 Frequencies --   1513.1618              1528.7470              1658.3968
 Red. masses --      1.0539                 1.0571                12.5892
 Frc consts  --      1.4217                 1.4556                20.3998
 IR Inten    --     19.2109                21.6143                11.9935

                     46                     47                     48
                      A                      A                      A
 Frequencies --   1706.3752              2360.3573              2380.2249
 Red. masses --     13.9135                12.6746                12.6964
 Frc consts  --     23.8690                41.6046                42.3805
 IR Inten    --    211.3015                 0.9003                 1.2501

                     49                     50                     51
                      A                      A                      A
 Frequencies --   3063.0601              3070.2385              3144.4526
 Red. masses --      1.0342                 1.0349                 1.1040
 Frc consts  --      5.7168                 5.7475                 6.4315
 IR Inten    --      3.9894                 3.3225                 2.5658

                     52                     53                     54
                      A                      A                      A
 Frequencies --   3148.8397              3149.2954              3157.4670
 Red. masses --      1.1042                 1.1039                 1.1048
 Frc consts  --      6.4507                 6.4507                 6.4894
 IR Inten    --      5.9388                 6.4221                 3.8617

 - Thermochemistry -
 -------------------
 Temperature   298.150 Kelvin.  Pressure   1.00000 Atm.
 Atom     1 has atomic number  8 and mass  15.99491

 Molecular mass:   194.04399 amu.
 Principal axes and moments of inertia in atomic units:
                           1         2         3
     Eigenvalues --  1579.913203004.765573303.11883
           X            0.99989  -0.01048  -0.01055
           Y            0.01089   0.99915   0.03983
           Z            0.01012  -0.03994   0.99915
 This molecule is an asymmetric top.
 Rotational symmetry number  1.
 Warning -- assumption of classical behavior for rotation
           may cause significant error
 Rotational temperatures (Kelvin)      0.05482     0.02883     0.02622
 Rotational constants (GHZ):           1.14230     0.60063     0.54637
 Zero-point vibrational energy     354881.1 (Joules/Mol)
                                   84.81861 (Kcal/Mol)
 Warning -- explicit consideration of  20 degrees of freedom as
           vibrations may cause significant error
 Vibrational temperatures:     64.56   105.69   158.14   186.82   220.03
          (Kelvin)            244.38   281.82   344.93   351.61   404.46
                              414.22   474.39   513.67   537.99   557.36
                              657.58   684.10   712.29   738.20   869.97
                              913.54   931.40   971.10  1044.35  1142.37
                             1191.88  1289.69  1329.04  1378.27  1399.68
                             1500.99  1542.71  1635.62  1703.03  1755.50
                             1789.96  1883.48  2013.68  2044.97  2078.73
                             2148.15  2162.80  2177.10  2199.52  2386.06
                             2455.09  3396.02  3424.61  4407.05  4417.38
                             4524.16  4530.47  4531.13  4542.89

 Zero-point correction=                           0.135167 (Hartree/Particle)
 Thermal correction to Energy=                    0.148238
 Thermal correction to Enthalpy=                  0.149182
 Thermal correction to Gibbs Free Energy=         0.095785
 Sum of electronic and zero-point Energies=           -714.685411
 Sum of electronic and thermal Energies=              -714.672340
 Sum of electronic and thermal Enthalpies=            -714.671396
 Sum of electronic and thermal Free Energies=         -714.724794

                     E (Thermal)             CV                S
                      KCal/Mol        Cal/Mol-Kelvin    Cal/Mol-Kelvin
 Total                   93.021             47.616            112.385
 Electronic               0.000              0.000              0.000
 Translational            0.889              2.981             41.694
 Rotational               0.889              2.981             31.128
 Vibrational             91.243             41.654             39.562
 Vibration     1          0.595              1.979              5.031
 Vibration     2          0.599              1.967              4.059
 Vibration     3          0.606              1.941              3.270
 Vibration     4          0.612              1.923              2.948
 Vibration     5          0.619              1.899              2.635
 Vibration     6          0.625              1.880              2.437
 Vibration     7          0.636              1.846              2.171
 Vibration     8          0.657              1.780              1.805
 Vibration     9          0.660              1.772              1.771
 Vibration    10          0.681              1.709              1.527
 Vibration    11          0.685              1.696              1.486
 Vibration    12          0.713              1.616              1.261
 Vibration    13          0.732              1.561              1.135
 Vibration    14          0.745              1.526              1.064
 Vibration    15          0.756              1.497              1.010
 Vibration    16          0.815              1.345              0.775
 Vibration    17          0.832              1.304              0.722
 Vibration    18          0.851              1.261              0.671
 Vibration    19          0.868              1.221              0.626
 Vibration    20          0.963              1.022              0.442

 Optimization completed.
    -- Stationary point found.
 Normal termination of Gaussian 09 at Fri Aug 20 16:04:43 2021.
