 Gaussian 09, Revision E.01,
 Gaussian 09:  ES64L-G09RevE.01 30-Nov-2015

 -------------------------
 #P OPT Freq B3LYP/6-31G**
 -------------------------

 ------
 RUGJUZ
 ------
 Symbolic Z-matrix:
 Charge =  0 Multiplicity = 1

 SCF Done:  E(RB3LYP) =  -674.445211178     A.U. after   17 cycles
 SCF Done:  E(RB3LYP) =  -674.500593054     A.U. after   14 cycles
 SCF Done:  E(RB3LYP) =  -674.510231083     A.U. after   16 cycles
 SCF Done:  E(RB3LYP) =  -674.497309476     A.U. after   17 cycles
 SCF Done:  E(RB3LYP) =  -674.511138494     A.U. after   13 cycles
 SCF Done:  E(RB3LYP) =  -674.511387815     A.U. after   14 cycles
 SCF Done:  E(RB3LYP) =  -674.510842161     A.U. after   15 cycles
 SCF Done:  E(RB3LYP) =  -674.511417610     A.U. after    9 cycles
 SCF Done:  E(RB3LYP) =  -674.511449184     A.U. after   13 cycles
 SCF Done:  E(RB3LYP) =  -674.511469419     A.U. after   13 cycles
 SCF Done:  E(RB3LYP) =  -674.511485237     A.U. after   13 cycles
 SCF Done:  E(RB3LYP) =  -674.511503055     A.U. after   14 cycles
 SCF Done:  E(RB3LYP) =  -674.511507691     A.U. after   13 cycles
 SCF Done:  E(RB3LYP) =  -674.511508766     A.U. after   11 cycles
 SCF Done:  E(RB3LYP) =  -674.511509065     A.U. after   10 cycles
 SCF Done:  E(RB3LYP) =  -674.511509136     A.U. after    9 cycles
 Optimization completed.
    -- Stationary point found.
 Normal termination of Gaussian 09 at Fri Aug 20 15:49:14 2021.

 ----------------------------------------------------------------------
 #P Geom=AllCheck Guess=TCheck SCRF=Check GenChk RB3LYP/6-31G(d,p) Freq
 ----------------------------------------------------------------------

 Structure from the checkpoint file:  "/public/home/users/caep010/.cache/gau_scr/Gau-16653.chk"
 ------
 RUGJUZ
 ------
 Charge =  0 Multiplicity = 1

                         Standard orientation:
 ---------------------------------------------------------------------
 Center     Atomic      Atomic             Coordinates (Angstroms)
 Number     Number       Type             X           Y           Z
 ---------------------------------------------------------------------
      1          6           0       -0.762038   -2.070795    0.057649
      2          7           0       -1.432876   -0.889079    0.019638
      3          6           0       -2.891179   -0.746555   -0.024863
      4          6           0       -0.457384    0.089723   -0.003809
      5          1           0       -3.248114   -0.239207    0.870355
      6          1           0       -3.188200   -0.167010   -0.898856
      7          6           0        0.747971   -0.593748    0.021430
      8          1           0       -1.282559   -3.018006    0.080982
      9          7           0        2.103084   -0.053783    0.082058
     10          8           0        2.288857    0.885833    0.848757
     11          7           0        0.552681   -1.925630    0.060653
     12          1           0       -3.313376   -1.750213   -0.086701
     13          7           0       -0.750764    1.487340   -0.110975
     14          8           0       -1.898544    1.846158    0.179870
     15          8           0        0.154953    2.220955   -0.489994
     16          8           0        2.942629   -0.606602   -0.617115
 ---------------------------------------------------------------------

 SCF Done:  E(RB3LYP) =  -674.511509135     A.U. after    1 cycles

 The electronic state is 1-A.
 Alpha  occ. eigenvalues --  -19.20669 -19.20525 -19.19517 -19.19477 -14.60473
 Alpha  occ. eigenvalues --  -14.58753 -14.46418 -14.37724 -10.31653 -10.30504
 Alpha  occ. eigenvalues --  -10.30224 -10.27551  -1.25325  -1.23990  -1.09007
 Alpha  occ. eigenvalues --   -1.07800  -1.06796  -0.95624  -0.86236  -0.79979
 Alpha  occ. eigenvalues --   -0.76324  -0.71376  -0.64143  -0.60909  -0.58208
 Alpha  occ. eigenvalues --   -0.56639  -0.55677  -0.54416  -0.53329  -0.52378
 Alpha  occ. eigenvalues --   -0.51844  -0.51283  -0.48210  -0.46047  -0.44861
 Alpha  occ. eigenvalues --   -0.34599  -0.34024  -0.33441  -0.33165  -0.32216
 Alpha  occ. eigenvalues --   -0.31474  -0.31249  -0.30888  -0.28423
 Alpha virt. eigenvalues --   -0.11759  -0.07379  -0.01682   0.03191   0.06623
 Alpha virt. eigenvalues --    0.07439   0.09298   0.11232   0.13609   0.14833
 Alpha virt. eigenvalues --    0.15682   0.19697   0.22567   0.23718   0.26071

 Mulliken charges:
               1
     1  C    0.288440
     2  N   -0.464755
     3  C   -0.173929
     4  C    0.539367
     5  H    0.175659
     6  H    0.165991
     7  C    0.413640
     8  H    0.148798
     9  N    0.360693
    10  O   -0.367562
    11  N   -0.436355
    12  H    0.133244
    13  N    0.339734
    14  O   -0.405662
    15  O   -0.367738
    16  O   -0.349565
 Sum of Mulliken charges =  -0.00000

 Dipole moment (field-independent basis, Debye):
    X=             -6.4457    Y=             -3.7454    Z=             -0.0443  Tot=              7.4551
 Quadrupole moment (field-independent basis, Debye-Ang):
   XX=            -67.3624   YY=            -71.1879   ZZ=            -65.6738
   XY=              8.9809   XZ=              1.2136   YZ=             -1.2433

  Exact polarizability: 106.132   0.006  94.996  -4.902   2.941  45.063
 Approx polarizability: 183.789  -9.912 174.681 -20.649  15.337  83.515

                      1                      2                      3
                      A                      A                      A
 Frequencies --     30.1351                84.5998               100.3200
 Red. masses --     13.7705                15.3395                 4.3950
 Frc consts  --      0.0074                 0.0647                 0.0261
 IR Inten    --      0.9142                 0.1714                 2.0445

                      4                      5                      6
                      A                      A                      A
 Frequencies --    171.2427               176.9876               205.3052
 Red. masses --      1.6075                 2.7100                 7.5613
 Frc consts  --      0.0278                 0.0500                 0.1878
 IR Inten    --      0.3263                 0.5239                 2.5277

                      7                      8                      9
                      A                      A                      A
 Frequencies --    240.3006               264.0041               348.8048
 Red. masses --      5.6501                 4.5700                 6.2600
 Frc consts  --      0.1922                 0.1877                 0.4487
 IR Inten    --      1.6324                 3.3125                 1.3773

                     10                     11                     12
                      A                      A                      A
 Frequencies --    386.2721               414.6878               500.9367
 Red. masses --      6.0467                12.7401                 9.7775
 Frc consts  --      0.5316                 1.2908                 1.4456
 IR Inten    --      2.1237                 0.8018                 1.6363

                     13                     14                     15
                      A                      A                      A
 Frequencies --    581.9595               630.8231               683.4321
 Red. masses --      5.7152                 4.0285                 8.0085
 Frc consts  --      1.1404                 0.9445                 2.2039
 IR Inten    --      3.1487                13.6625                 5.9848

                     16                     17                     18
                      A                      A                      A
 Frequencies --    729.3579               764.0620               787.2736
 Red. masses --      8.3397                 9.8696                11.4393
 Frc consts  --      2.6139                 3.3947                 4.1773
 IR Inten    --      2.0214                 5.5974                 3.6384

                     19                     20                     21
                      A                      A                      A
 Frequencies --    824.5357               846.2647               859.5713
 Red. masses --     13.4555                 1.4673                13.3871
 Frc consts  --      5.3898                 0.6191                 5.8277
 IR Inten    --     62.4673                 9.6708                47.9017

                     22                     23                     24
                      A                      A                      A
 Frequencies --   1038.8072              1091.6975              1151.4509
 Red. masses --      7.3034                 1.6204                 1.3102
 Frc consts  --      4.6435                 1.1378                 1.0235
 IR Inten    --      1.3044                 1.1698                 0.0773

                     25                     26                     27
                      A                      A                      A
 Frequencies --   1193.1035              1259.2671              1347.2344
 Red. masses --      5.4724                 1.5101                11.2785
 Frc consts  --      4.5897                 1.4109                12.0612
 IR Inten    --     14.6095                11.3760               109.9668

                     28                     29                     30
                      A                      A                      A
 Frequencies --   1384.4401              1392.4956              1409.2020
 Red. masses --     10.0038                 4.9011                 7.7643
 Frc consts  --     11.2970                 5.5993                 9.0844
 IR Inten    --    197.0011                62.6664                49.2051

                     31                     32                     33
                      A                      A                      A
 Frequencies --   1431.0865              1464.8936              1487.1935
 Red. masses --     12.1021                 1.3503                 1.0417
 Frc consts  --     14.6031                 1.7073                 1.3575
 IR Inten    --     81.8137                20.6031                10.6479

                     34                     35                     36
                      A                      A                      A
 Frequencies --   1518.1933              1542.4667              1561.9561
 Red. masses --      1.1404                 3.4003                 7.9803
 Frc consts  --      1.5486                 4.7665                11.4711
 IR Inten    --     43.0209               117.4028                57.0765

                     37                     38                     39
                      A                      A                      A
 Frequencies --   1636.4204              1668.8321              3088.4412
 Red. masses --     12.8049                14.5425                 1.0317
 Frc consts  --     20.2031                23.8624                 5.7979
 IR Inten    --    242.8991               178.0681                13.0487

                     40                     41                     42
                      A                      A                      A
 Frequencies --   3176.2284              3184.5912              3270.6191
 Red. masses --      1.1067                 1.1067                 1.0977
 Frc consts  --      6.5780                 6.6129                 6.9180
 IR Inten    --      4.7003                 1.9618                 1.0218

 - Thermochemistry -
 -------------------
 Temperature   298.150 Kelvin.  Pressure   1.00000 Atm.
 Atom     1 has atomic number  6 and mass  12.00000

 Molecular mass:   172.02325 amu.
 Principal axes and moments of inertia in atomic units:
                           1         2         3
     Eigenvalues --  1228.032731989.524413046.57435
           X            0.99861   0.05263   0.00042
           Y           -0.05263   0.99861  -0.00048
           Z           -0.00045   0.00045   1.00000
 This molecule is an asymmetric top.
 Rotational symmetry number  1.
 Warning -- assumption of classical behavior for rotation
           may cause significant error
 Rotational temperatures (Kelvin)      0.07053     0.04353     0.02843
 Rotational constants (GHZ):           1.46962     0.90712     0.59238
 Zero-point vibrational energy     274719.4 (Joules/Mol)
                                   65.65951 (Kcal/Mol)
 Warning -- explicit consideration of  13 degrees of freedom as
           vibrations may cause significant error
 Vibrational temperatures:     43.36   121.72   144.34   246.38   254.65
          (Kelvin)            295.39   345.74   379.84   501.85   555.76
                              596.64   720.74   837.31   907.61   983.31
                             1049.38  1099.31  1132.71  1186.32  1217.58
                             1236.73  1494.61  1570.71  1656.68  1716.61
                             1811.80  1938.37  1991.90  2003.49  2027.52
                             2059.01  2107.65  2139.74  2184.34  2219.26
                             2247.30  2354.44  2401.07  4443.57  4569.88
                             4581.91  4705.69

 Zero-point correction=                           0.104635 (Hartree/Particle)
 Thermal correction to Energy=                    0.114855
 Thermal correction to Enthalpy=                  0.115799
 Thermal correction to Gibbs Free Energy=         0.067468
 Sum of electronic and zero-point Energies=           -674.406874
 Sum of electronic and thermal Energies=              -674.396654
 Sum of electronic and thermal Enthalpies=            -674.395710
 Sum of electronic and thermal Free Energies=         -674.444041

                     E (Thermal)             CV                S
                      KCal/Mol        Cal/Mol-Kelvin    Cal/Mol-Kelvin
 Total                   72.072             35.750            101.721
 Electronic               0.000              0.000              0.000
 Translational            0.889              2.981             41.335
 Rotational               0.889              2.981             30.388
 Vibrational             70.295             29.788             29.998
 Vibration     1          0.594              1.984              5.821
 Vibration     2          0.601              1.960              3.781
 Vibration     3          0.604              1.949              3.448
 Vibration     4          0.626              1.878              2.422
 Vibration     5          0.628              1.871              2.360
 Vibration     6          0.640              1.832              2.085
 Vibration     7          0.657              1.779              1.801
 Vibration     8          0.671              1.739              1.635
 Vibration     9          0.726              1.578              1.172
 Vibration    10          0.755              1.499              1.015
 Vibration    11          0.778              1.438              0.910
 Vibration    12          0.856              1.248              0.656
 Vibration    13          0.939              1.070              0.482

 Optimization completed.
    -- Stationary point found.
 Normal termination of Gaussian 09 at Fri Aug 20 15:49:36 2021.
