 Gaussian 09, Revision E.01,
 Gaussian 09:  ES64L-G09RevE.01 30-Nov-2015

 -------------------------
 #P OPT Freq B3LYP/6-31G**
 -------------------------

 ------
 MUTSAW
 ------
 Symbolic Z-matrix:
 Charge =  0 Multiplicity = 1

 SCF Done:  E(RB3LYP) =  -624.900863217     A.U. after   15 cycles
 SCF Done:  E(RB3LYP) =  -625.014264067     A.U. after   14 cycles
 SCF Done:  E(RB3LYP) =  -625.081294992     A.U. after   15 cycles
 SCF Done:  E(RB3LYP) =  -625.084134729     A.U. after   14 cycles
 SCF Done:  E(RB3LYP) =  -625.085552251     A.U. after   13 cycles
 SCF Done:  E(RB3LYP) =  -625.086175848     A.U. after   12 cycles
 SCF Done:  E(RB3LYP) =  -625.086254203     A.U. after   13 cycles
 SCF Done:  E(RB3LYP) =  -625.086508549     A.U. after   13 cycles
 SCF Done:  E(RB3LYP) =  -625.086723229     A.U. after   11 cycles
 SCF Done:  E(RB3LYP) =  -625.086896108     A.U. after   12 cycles
 SCF Done:  E(RB3LYP) =  -625.088105867     A.U. after   12 cycles
 SCF Done:  E(RB3LYP) =  -625.088258635     A.U. after   12 cycles
 SCF Done:  E(RB3LYP) =  -625.088381617     A.U. after   12 cycles
 SCF Done:  E(RB3LYP) =  -625.088451665     A.U. after   11 cycles
 SCF Done:  E(RB3LYP) =  -625.088474406     A.U. after   11 cycles
 SCF Done:  E(RB3LYP) =  -625.088480084     A.U. after    9 cycles
 SCF Done:  E(RB3LYP) =  -625.088482972     A.U. after    9 cycles
 SCF Done:  E(RB3LYP) =  -625.088483648     A.U. after    8 cycles
 SCF Done:  E(RB3LYP) =  -625.088483795     A.U. after    7 cycles
 Optimization completed.
    -- Stationary point found.
 Normal termination of Gaussian 09 at Fri Aug 20 15:46:30 2021.

 ----------------------------------------------------------------------
 #P Geom=AllCheck Guess=TCheck SCRF=Check GenChk RB3LYP/6-31G(d,p) Freq
 ----------------------------------------------------------------------

 Structure from the checkpoint file:  "/public/home/users/caep010/.cache/gau_scr/Gau-123109.chk"
 ------
 MUTSAW
 ------
 Charge =  0 Multiplicity = 1

                         Standard orientation:
 ---------------------------------------------------------------------
 Center     Atomic      Atomic             Coordinates (Angstroms)
 Number     Number       Type             X           Y           Z
 ---------------------------------------------------------------------
      1          6           0       -0.210915    0.464175   -0.115500
      2          7           0       -0.654618    1.729399    0.094394
      3          6           0        0.446151    2.612044    0.456238
      4          1           0        0.311084    3.615581    0.045548
      5          1           0        0.560953    2.692668    1.546749
      6          6           0        1.634507    1.870465   -0.174336
      7          1           0        1.821122    2.215193   -1.202591
      8          1           0        2.556826    1.980789    0.401929
      9          6           0       -0.989620   -0.672618   -0.231533
     10          1           0       -0.573565   -1.654833   -0.379441
     11          7           0        1.169122    0.475635   -0.176105
     12          6           0        1.957826   -0.554245   -0.854607
     13          1           0        2.732514   -0.053491   -1.448827
     14          1           0        1.316250   -1.105497   -1.550226
     15          6           0        2.612765   -1.533625    0.121368
     16          1           0        3.237247   -2.234166   -0.443052
     17          8           0        1.665911   -2.319740    0.821619
     18          1           0        1.134521   -1.725557    1.369710
     19          1           0        3.271912   -0.981975    0.810472
     20          7           0       -2.382127   -0.640468   -0.079602
     21          8           0       -2.999303   -1.707436   -0.201643
     22          1           0       -1.624877    1.817236    0.384592
     23          8           0       -2.963471    0.447791    0.178093
 ---------------------------------------------------------------------

 SCF Done:  E(RB3LYP) =  -625.088483795     A.U. after    1 cycles

 The electronic state is 1-A.
 Alpha  occ. eigenvalues --  -19.15926 -19.13747 -19.13526 -14.53531 -14.38969
 Alpha  occ. eigenvalues --  -14.37286 -10.29481 -10.25817 -10.25620 -10.25081
 Alpha  occ. eigenvalues --  -10.24618 -10.20763  -1.17574  -1.03674  -1.02613
 Alpha  occ. eigenvalues --   -0.99934  -0.91936  -0.82669  -0.77967  -0.76000
 Alpha  occ. eigenvalues --   -0.66818  -0.66681  -0.63166  -0.58478  -0.53876
 Alpha  occ. eigenvalues --   -0.53170  -0.51754  -0.50693  -0.49451  -0.49029
 Alpha  occ. eigenvalues --   -0.48332  -0.47104  -0.44734  -0.42933  -0.42643
 Alpha  occ. eigenvalues --   -0.41853  -0.41503  -0.40077  -0.37551  -0.34457
 Alpha  occ. eigenvalues --   -0.29149  -0.27480  -0.27152  -0.25823  -0.25129
 Alpha  occ. eigenvalues --   -0.22114
 Alpha virt. eigenvalues --   -0.04201   0.05341   0.06561   0.08287   0.08794
 Alpha virt. eigenvalues --    0.09501   0.11026   0.11602   0.12077   0.13698
 Alpha virt. eigenvalues --    0.14422   0.14830   0.16511   0.17361   0.18460

 Mulliken charges:
               1
     1  C    0.594205
     2  N   -0.570873
     3  C   -0.050286
     4  H    0.130284
     5  H    0.125323
     6  C   -0.044980
     7  H    0.122577
     8  H    0.124810
     9  C   -0.054444
    10  H    0.131765
    11  N   -0.531928
    12  C   -0.075522
    13  H    0.107645
    14  H    0.139140
    15  C    0.069922
    16  H    0.114520
    17  O   -0.525904
    18  H    0.313714
    19  H    0.086368
    20  N    0.409931
    21  O   -0.426751
    22  H    0.302696
    23  O   -0.492211
 Sum of Mulliken charges =  -0.00000

 Dipole moment (field-independent basis, Debye):
    X=              7.2628    Y=              4.7944    Z=             -0.0194  Tot=              8.7026
 Quadrupole moment (field-independent basis, Debye-Ang):
   XX=            -82.7838   YY=            -70.9775   ZZ=            -67.6503
   XY=             -1.5777   XZ=             -2.9834   YZ=              2.8949

  Exact polarizability: 126.904  14.568 111.943  -4.603   6.657  62.509
 Approx polarizability: 186.504  29.056 183.537  -6.134  12.958  93.388

                      1                      2                      3
                      A                      A                      A
 Frequencies --     46.9473                75.2605                98.4770
 Red. masses --      4.6039                 7.0690                 5.0467
 Frc consts  --      0.0060                 0.0236                 0.0288
 IR Inten    --      0.5223                 1.1015                 0.7670

                      4                      5                      6
                      A                      A                      A
 Frequencies --    107.9720               146.0859               191.0265
 Red. masses --      3.7277                 3.2763                 5.1820
 Frc consts  --      0.0256                 0.0412                 0.1114
 IR Inten    --      0.9162                 0.2751                 3.8420

                      7                      8                      9
                      A                      A                      A
 Frequencies --    211.7288               219.8895               272.9813
 Red. masses --      2.3441                 4.1244                 5.1395
 Frc consts  --      0.0619                 0.1175                 0.2257
 IR Inten    --      9.0881                 3.7791                 2.8558

                     10                     11                     12
                      A                      A                      A
 Frequencies --    323.4184               390.0778               413.2170
 Red. masses --      3.3255                 1.2365                 3.7045
 Frc consts  --      0.2049                 0.1109                 0.3727
 IR Inten    --     13.2444               205.7816                24.3181

                     13                     14                     15
                      A                      A                      A
 Frequencies --    468.5472               495.9073               612.2738
 Red. masses --      3.9407                 2.5888                 2.8243
 Frc consts  --      0.5097                 0.3751                 0.6238
 IR Inten    --      3.7545                10.5606                 3.6325

                     16                     17                     18
                      A                      A                      A
 Frequencies --    648.3664               681.5621               715.8630
 Red. masses --      1.2163                 9.3414                 1.1597
 Frc consts  --      0.3013                 2.5567                 0.3501
 IR Inten    --     86.3074                13.3844                 5.5361

                     19                     20                     21
                      A                      A                      A
 Frequencies --    738.0430               750.5116               762.2278
 Red. masses --      2.7666                 3.7317                13.4555
 Frc consts  --      0.8879                 1.2384                 4.6059
 IR Inten    --     10.2362                18.7107                25.9869

                     22                     23                     24
                      A                      A                      A
 Frequencies --    846.3607               873.3482               922.3543
 Red. masses --      3.1879                 2.3863                 1.8795
 Frc consts  --      1.3455                 1.0724                 0.9421
 IR Inten    --      2.7504                 6.7108                 0.7838

                     25                     26                     27
                      A                      A                      A
 Frequencies --    951.3489               972.4865              1011.0957
 Red. masses --      2.2468                 2.1194                 3.2266
 Frc consts  --      1.1981                 1.1809                 1.9435
 IR Inten    --     13.3838                20.7797                20.2807

                     28                     29                     30
                      A                      A                      A
 Frequencies --   1064.2170              1071.0652              1091.9626
 Red. masses --      2.5614                 2.0403                 3.2104
 Frc consts  --      1.7092                 1.3791                 2.2554
 IR Inten    --      9.7414                46.6349               103.5210

                     31                     32                     33
                      A                      A                      A
 Frequencies --   1131.0007              1140.8717              1193.1496
 Red. masses --      1.6469                 2.2418                 1.7062
 Frc consts  --      1.2412                 1.7192                 1.4311
 IR Inten    --     15.9602                 5.3922                 4.9583

                     34                     35                     36
                      A                      A                      A
 Frequencies --   1220.9433              1232.6941              1253.0098
 Red. masses --      1.1652                 1.3918                 1.4731
 Frc consts  --      1.0234                 1.2461                 1.3627
 IR Inten    --     18.4677                 4.9502                 3.7622

                     37                     38                     39
                      A                      A                      A
 Frequencies --   1272.6623              1310.7486              1330.7831
 Red. masses --      1.9573                 1.7657                 1.5311
 Frc consts  --      1.8678                 1.7873                 1.5976
 IR Inten    --    186.8481                23.7818                64.5688

                     40                     41                     42
                      A                      A                      A
 Frequencies --   1350.3880              1394.1972              1395.7474
 Red. masses --      1.5719                 1.4213                 1.2581
 Frc consts  --      1.6888                 1.6278                 1.4441
 IR Inten    --    147.3870                 4.0291                82.5641

                     43                     44                     45
                      A                      A                      A
 Frequencies --   1411.2013              1427.0762              1429.6829
 Red. masses --      2.1523                 2.2616                 1.4024
 Frc consts  --      2.5254                 2.7137                 1.6888
 IR Inten    --    141.7490               147.6509                80.0199

                     46                     47                     48
                      A                      A                      A
 Frequencies --   1487.5160              1508.4854              1513.2328
 Red. masses --      1.1854                 1.3868                 1.2058
 Frc consts  --      1.5454                 1.8593                 1.6268
 IR Inten    --     40.5089                59.3855                23.4288

                     49                     50                     51
                      A                      A                      A
 Frequencies --   1541.3251              1548.3601              1573.4854
 Red. masses --      1.1080                 1.5847                 6.4336
 Frc consts  --      1.5509                 2.2384                 9.3849
 IR Inten    --     16.0446               115.7353               173.6711

                     52                     53                     54
                      A                      A                      A
 Frequencies --   1669.2648              2995.1465              3006.0397
 Red. masses --      5.5678                 1.0704                 1.0728
 Frc consts  --      9.1408                 5.6577                 5.7117
 IR Inten    --    621.5016                52.6535                49.2437

                     55                     56                     57
                      A                      A                      A
 Frequencies --   3017.6138              3040.3840              3092.7628
 Red. masses --      1.0691                 1.0622                 1.0946
 Frc consts  --      5.7358                 5.7853                 6.1689
 IR Inten    --     56.8282                35.5291                33.5326

                     58                     59                     60
                      A                      A                      A
 Frequencies --   3101.0396              3104.3104              3113.0760
 Red. masses --      1.1026                 1.0943                 1.0974
 Frc consts  --      6.2472                 6.2133                 6.2659
 IR Inten    --     10.3548                39.5083                24.7774

                     61                     62                     63
                      A                      A                      A
 Frequencies --   3296.4459              3535.7685              3802.3592
 Red. masses --      1.0920                 1.0794                 1.0662
 Frc consts  --      6.9916                 7.9503                 9.0819
 IR Inten    --      7.4171               124.6204                20.5667

 - Thermochemistry -
 -------------------
 Temperature   298.150 Kelvin.  Pressure   1.00000 Atm.
 Atom     1 has atomic number  6 and mass  12.00000

 Molecular mass:   173.08004 amu.
 Principal axes and moments of inertia in atomic units:
                           1         2         3
     Eigenvalues --  1545.614502460.007483743.02230
           X            0.99987  -0.01495  -0.00642
           Y            0.01501   0.99984   0.00943
           Z            0.00628  -0.00953   0.99993
 This molecule is an asymmetric top.
 Rotational symmetry number  1.
 Warning -- assumption of classical behavior for rotation
           may cause significant error
 Rotational temperatures (Kelvin)      0.05604     0.03521     0.02314
 Rotational constants (GHZ):           1.16765     0.73363     0.48216
 Zero-point vibrational energy     494149.8 (Joules/Mol)
                                  118.10464 (Kcal/Mol)
 Warning -- explicit consideration of  15 degrees of freedom as
           vibrations may cause significant error
 Vibrational temperatures:     67.55   108.28   141.69   155.35   210.18
          (Kelvin)            274.84   304.63   316.37   392.76   465.33
                              561.23   594.53   674.13   713.50   880.92
                              932.85   980.61  1029.97  1061.88  1079.82
                             1096.67  1217.72  1256.55  1327.06  1368.78
                             1399.19  1454.74  1531.17  1541.02  1571.09
                             1627.26  1641.46  1716.67  1756.66  1773.57
                             1802.80  1831.07  1885.87  1914.70  1942.90
                             2005.94  2008.17  2030.40  2053.24  2056.99
                             2140.20  2170.37  2177.20  2217.62  2227.74
                             2263.89  2401.70  4309.34  4325.02  4341.67
                             4374.43  4449.79  4461.70  4466.40  4479.02
                             4742.84  5087.18  5470.74

 Zero-point correction=                           0.188212 (Hartree/Particle)
 Thermal correction to Energy=                    0.199748
 Thermal correction to Enthalpy=                  0.200692
 Thermal correction to Gibbs Free Energy=         0.149895
 Sum of electronic and zero-point Energies=           -624.900272
 Sum of electronic and thermal Energies=              -624.888736
 Sum of electronic and thermal Enthalpies=            -624.887791
 Sum of electronic and thermal Free Energies=         -624.938589

                     E (Thermal)             CV                S
                      KCal/Mol        Cal/Mol-Kelvin    Cal/Mol-Kelvin
 Total                  125.344             42.345            106.912
 Electronic               0.000              0.000              0.000
 Translational            0.889              2.981             41.353
 Rotational               0.889              2.981             31.032
 Vibrational            123.566             36.384             34.526
 Vibration     1          0.595              1.979              4.942
 Vibration     2          0.599              1.966              4.011
 Vibration     3          0.604              1.950              3.484
 Vibration     4          0.606              1.943              3.305
 Vibration     5          0.617              1.907              2.723
 Vibration     6          0.634              1.852              2.218
 Vibration     7          0.643              1.823              2.029
 Vibration     8          0.647              1.811              1.960
 Vibration     9          0.676              1.723              1.577
 Vibration    10          0.708              1.629              1.293
 Vibration    11          0.758              1.491              1.000
 Vibration    12          0.777              1.442              0.915
 Vibration    13          0.826              1.320              0.742
 Vibration    14          0.851              1.259              0.668
 Vibration    15          0.972              1.006              0.429

 Optimization completed.
    -- Stationary point found.
 Normal termination of Gaussian 09 at Fri Aug 20 15:47:07 2021.
