 Gaussian 09, Revision E.01,
 Gaussian 09:  ES64L-G09RevE.01 30-Nov-2015

 -------------------------
 #P OPT Freq B3LYP/6-31G**
 -------------------------

 ------
 MUZNEC
 ------
 Symbolic Z-matrix:
 Charge =  0 Multiplicity = 1

 SCF Done:  E(RB3LYP) =  -485.959327636     A.U. after   15 cycles
 SCF Done:  E(RB3LYP) =  -486.028393680     A.U. after   14 cycles
 SCF Done:  E(RB3LYP) =  -486.049155283     A.U. after   15 cycles
 SCF Done:  E(RB3LYP) =  -486.042524862     A.U. after   17 cycles
 SCF Done:  E(RB3LYP) =  -486.049962437     A.U. after   11 cycles
 SCF Done:  E(RB3LYP) =  -486.050030714     A.U. after   14 cycles
 SCF Done:  E(RB3LYP) =  -486.050544078     A.U. after   13 cycles
 SCF Done:  E(RB3LYP) =  -486.050599477     A.U. after   12 cycles
 SCF Done:  E(RB3LYP) =  -486.050709481     A.U. after   14 cycles
 SCF Done:  E(RB3LYP) =  -486.050770458     A.U. after   13 cycles
 SCF Done:  E(RB3LYP) =  -486.050800912     A.U. after   12 cycles
 SCF Done:  E(RB3LYP) =  -486.050808255     A.U. after   10 cycles
 SCF Done:  E(RB3LYP) =  -486.050808941     A.U. after    9 cycles
 Optimization completed.
    -- Stationary point found.
 Normal termination of Gaussian 09 at Fri Aug 20 15:39:58 2021.

 ----------------------------------------------------------------------
 #P Geom=AllCheck Guess=TCheck SCRF=Check GenChk RB3LYP/6-31G(d,p) Freq
 ----------------------------------------------------------------------

 Structure from the checkpoint file:  "/public/home/users/caep010/.cache/gau_scr/Gau-86621.chk"
 ------
 MUZNEC
 ------
 Charge =  0 Multiplicity = 1

                         Standard orientation:
 ---------------------------------------------------------------------
 Center     Atomic      Atomic             Coordinates (Angstroms)
 Number     Number       Type             X           Y           Z
 ---------------------------------------------------------------------
      1          7           0       -1.539359   -0.068585   -0.000064
      2          8           0       -2.293360   -1.034118    0.002513
      3          8           0       -1.884456    1.117589   -0.002426
      4          6           0       -0.115555   -0.306514   -0.000238
      5          7           0        0.371230   -1.547178   -0.001419
      6          7           0        1.668344   -1.326889   -0.000503
      7          1           0        2.330001   -2.090235   -0.000996
      8          7           0        2.073921   -0.052414    0.000769
      9          6           0        0.933620    0.644498    0.000271
     10          6           0        0.911375    2.135657    0.000896
     11          1           0        0.380603    2.515887   -0.875787
     12          1           0        1.934534    2.514883    0.000445
     13          1           0        0.381794    2.515314    0.878578
 ---------------------------------------------------------------------

 SCF Done:  E(RB3LYP) =  -486.050808941     A.U. after    1 cycles

 The electronic state is 1-A.
 Alpha  occ. eigenvalues --  -19.18894 -19.18828 -14.58453 -14.48373 -14.41311
 Alpha  occ. eigenvalues --  -14.39994 -10.28404 -10.26420 -10.20743  -1.23448
 Alpha  occ. eigenvalues --   -1.14543  -1.06090  -0.93630  -0.88201  -0.77128
 Alpha  occ. eigenvalues --   -0.75159  -0.63164  -0.61269  -0.57923  -0.54845
 Alpha  occ. eigenvalues --   -0.54637  -0.50949  -0.50271  -0.44819  -0.43271
 Alpha  occ. eigenvalues --   -0.42037  -0.36630  -0.33474  -0.32426  -0.31526
 Alpha  occ. eigenvalues --   -0.31322  -0.29949  -0.29673
 Alpha virt. eigenvalues --   -0.09245  -0.02892   0.04581   0.05132   0.11096
 Alpha virt. eigenvalues --    0.13002   0.16306   0.17443   0.19050   0.21740
 Alpha virt. eigenvalues --    0.24047   0.25505   0.26859   0.34470   0.37295

 Mulliken charges:
               1
     1  N    0.352527
     2  O   -0.373135
     3  O   -0.403193
     4  C    0.422827
     5  N   -0.284929
     6  N   -0.084461
     7  H    0.317092
     8  N   -0.312154
     9  C    0.294529
    10  C   -0.360008
    11  H    0.148564
    12  H    0.133875
    13  H    0.148467
 Sum of Mulliken charges =  -0.00000

 Dipole moment (field-independent basis, Debye):
    X=              4.0338    Y=             -0.1222    Z=             -0.0005  Tot=              4.0356
 Quadrupole moment (field-independent basis, Debye-Ang):
   XX=            -55.7308   YY=            -46.8446   ZZ=            -48.7984
   XY=             -5.7493   XZ=             -0.0039   YZ=              0.0106

  Exact polarizability:  76.229  -1.264  75.726  -0.003  -0.010  30.741
 Approx polarizability: 126.746  -0.130 144.492  -0.003  -0.067  46.897

                      1                      2                      3
                      A                      A                      A
 Frequencies --     59.6584               137.2093               203.7695
 Red. masses --      8.6082                 1.0530                 5.1326
 Frc consts  --      0.0181                 0.0117                 0.1256
 IR Inten    --      0.0021                 0.5518                 2.0503

                      4                      5                      6
                      A                      A                      A
 Frequencies --    215.4832               289.6542               338.5524
 Red. masses --      8.0423                 3.7029                 4.4533
 Frc consts  --      0.2200                 0.1830                 0.3007
 IR Inten    --      1.9485                 0.7368                 1.5652

                      7                      8                      9
                      A                      A                      A
 Frequencies --    446.0808               549.2965               572.9398
 Red. masses --     10.3736                 6.0172                 1.9716
 Frc consts  --      1.2162                 1.0697                 0.3813
 IR Inten    --      0.3473                 1.3951                39.0754

                     10                     11                     12
                      A                      A                      A
 Frequencies --    676.7637               700.7577               720.7981
 Red. masses --      6.3886                 5.3566                 2.1769
 Frc consts  --      1.7240                 1.5498                 0.6664
 IR Inten    --      9.7763                 9.7619                57.8075

                     13                     14                     15
                      A                      A                      A
 Frequencies --    784.1995               849.2004               987.8253
 Red. masses --     10.1896                12.9592                 4.2192
 Frc consts  --      3.6920                 5.5062                 2.4257
 IR Inten    --      3.0478                51.9768                10.5615

                     16                     17                     18
                      A                      A                      A
 Frequencies --   1027.8880              1071.5529              1165.6054
 Red. masses --      2.0326                 1.5044                 3.5351
 Frc consts  --      1.2653                 1.0177                 2.8298
 IR Inten    --      7.6675                 2.0424                38.4423

                     19                     20                     21
                      A                      A                      A
 Frequencies --   1197.8658              1273.9924              1382.4867
 Red. masses --      7.7949                 4.4656                 6.9465
 Frc consts  --      6.5898                 4.2703                 7.8224
 IR Inten    --      2.1701                24.7062                 7.4479

                     22                     23                     24
                      A                      A                      A
 Frequencies --   1407.0425              1428.7218              1439.7683
 Red. masses --      6.1295                 1.3368                 3.2394
 Frc consts  --      7.1497                 1.6078                 3.9564
 IR Inten    --     44.9556                16.6405               160.4037

                     25                     26                     27
                      A                      A                      A
 Frequencies --   1487.6241              1491.7571              1508.5674
 Red. masses --      1.0427                 1.2051                 2.9017
 Frc consts  --      1.3596                 1.5801                 3.8907
 IR Inten    --      7.9415                18.3564                 2.1734

                     28                     29                     30
                      A                      A                      A
 Frequencies --   1572.5758              1652.1438              3069.4530
 Red. masses --      4.7088                13.5153                 1.0355
 Frc consts  --      6.8610                21.7356                 5.7478
 IR Inten    --      2.0236               245.0553                 4.7366

                     31                     32                     33
                      A                      A                      A
 Frequencies --   3133.9651              3162.2586              3660.9030
 Red. masses --      1.1009                 1.1047                 1.0827
 Frc consts  --      6.3707                 6.5084                 8.5495
 IR Inten    --      3.9672                 7.8064               140.3416

 - Thermochemistry -
 -------------------
 Temperature   298.150 Kelvin.  Pressure   1.00000 Atm.
 Atom     1 has atomic number  7 and mass  14.00307

 Molecular mass:   128.03343 amu.
 Principal axes and moments of inertia in atomic units:
                           1         2         3
     Eigenvalues --   646.449971095.463241730.83441
           X            0.99986   0.01685   0.00000
           Y           -0.01685   0.99986   0.00005
           Z           -0.00000  -0.00005   1.00000
 This molecule is an asymmetric top.
 Rotational symmetry number  1.
 Warning -- assumption of classical behavior for rotation
           may cause significant error
 Rotational temperatures (Kelvin)      0.13398     0.07907     0.05004
 Rotational constants (GHZ):           2.79177     1.64747     1.04270
 Zero-point vibrational energy     237257.5 (Joules/Mol)
                                   56.70591 (Kcal/Mol)
 Warning -- explicit consideration of   9 degrees of freedom as
           vibrations may cause significant error
 Vibrational temperatures:     85.84   197.41   293.18   310.03   416.75
          (Kelvin)            487.10   641.81   790.31   824.33   973.71
                             1008.23  1037.07  1128.29  1221.81  1421.26
                             1478.90  1541.72  1677.04  1723.46  1832.99
                             1989.09  2024.42  2055.61  2071.50  2140.36
                             2146.30  2170.49  2262.58  2377.06  4416.25
                             4509.07  4549.78  5267.22

 Zero-point correction=                           0.090367 (Hartree/Particle)
 Thermal correction to Energy=                    0.097897
 Thermal correction to Enthalpy=                  0.098841
 Thermal correction to Gibbs Free Energy=         0.057596
 Sum of electronic and zero-point Energies=           -485.960442
 Sum of electronic and thermal Energies=              -485.952912
 Sum of electronic and thermal Enthalpies=            -485.951968
 Sum of electronic and thermal Free Energies=         -485.993213

                     E (Thermal)             CV                S
                      KCal/Mol        Cal/Mol-Kelvin    Cal/Mol-Kelvin
 Total                   61.431             26.511             86.808
 Electronic               0.000              0.000              0.000
 Translational            0.889              2.981             40.455
 Rotational               0.889              2.981             28.596
 Vibrational             59.654             20.549             17.757
 Vibration     1          0.597              1.974              4.468
 Vibration     2          0.614              1.916              2.842
 Vibration     3          0.639              1.835              2.099
 Vibration     4          0.645              1.817              1.997
 Vibration     5          0.686              1.693              1.476
 Vibration     6          0.719              1.598              1.219
 Vibration     7          0.805              1.370              0.808
 Vibration     8          0.905              1.141              0.546
 Vibration     9          0.929              1.090              0.499

 Normal termination of Gaussian 09 at Fri Aug 20 15:40:12 2021.
