 Gaussian 09, Revision E.01,
 Gaussian 09:  ES64L-G09RevE.01 30-Nov-2015

 -------------------------
 #P OPT Freq B3LYP/6-31G**
 -------------------------

 ------
 NMBZAX
 ------
 Symbolic Z-matrix:
 Charge =  0 Multiplicity = 1

 SCF Done:  E(RB3LYP) =  -644.645488867     A.U. after   16 cycles
 SCF Done:  E(RB3LYP) =  -644.687499481     A.U. after   14 cycles
 SCF Done:  E(RB3LYP) =  -644.693447688     A.U. after   15 cycles
 SCF Done:  E(RB3LYP) =  -644.681652900     A.U. after   17 cycles
 SCF Done:  E(RB3LYP) =  -644.693660968     A.U. after   12 cycles
 SCF Done:  E(RB3LYP) =  -644.693685330     A.U. after   13 cycles
 SCF Done:  E(RB3LYP) =  -644.693832700     A.U. after   12 cycles
 SCF Done:  E(RB3LYP) =  -644.693835300     A.U. after   11 cycles
 SCF Done:  E(RB3LYP) =  -644.693836332     A.U. after   10 cycles
 SCF Done:  E(RB3LYP) =  -644.693836437     A.U. after    8 cycles
 Optimization completed.
    -- Stationary point found.
 Normal termination of Gaussian 09 at Fri Aug 20 15:53:10 2021.

 ----------------------------------------------------------------------
 #P Geom=AllCheck Guess=TCheck SCRF=Check GenChk RB3LYP/6-31G(d,p) Freq
 ----------------------------------------------------------------------

 Structure from the checkpoint file:  "/public/home/users/caep010/.cache/gau_scr/Gau-213329.chk"
 ------
 NMBZAX
 ------
 Charge =  0 Multiplicity = 1

                         Standard orientation:
 ---------------------------------------------------------------------
 Center     Atomic      Atomic             Coordinates (Angstroms)
 Number     Number       Type             X           Y           Z
 ---------------------------------------------------------------------
      1          6           0        0.864723    0.413650    0.000201
      2          6           0        0.324846   -0.892969    0.000185
      3          6           0       -1.051961   -1.081513    0.000056
      4          6           0       -1.896399    0.027223   -0.000004
      5          6           0        2.279484    0.715057    0.000197
      6          6           0       -1.396941    1.330624    0.000041
      7          1           0       -2.085829    2.165519   -0.000011
      8          6           0       -0.024100    1.514290    0.000127
      9          1           0        0.999888   -1.736566    0.000268
     10          1           0        0.376416    2.524043    0.000138
     11          1           0       -1.482540   -2.074921    0.000015
     12          7           0        3.267759   -0.162482    0.000133
     13          6           0        4.670607    0.315293   -0.000550
     14          1           0        5.151000   -0.093812   -0.890362
     15          1           0        4.722610    1.403897    0.001637
     16          8           0        3.150798   -1.427587    0.000298
     17          1           0        5.152880   -0.097552    0.886475
     18          1           0        2.585164    1.753038    0.000131
     19          7           0       -3.349479   -0.177079   -0.000099
     20          8           0       -4.068279    0.824052    0.000020
     21          8           0       -3.766158   -1.336045   -0.000324
 ---------------------------------------------------------------------

 SCF Done:  E(RB3LYP) =  -644.693836437     A.U. after    1 cycles

 The electronic state is 1-A.
 Alpha  occ. eigenvalues --  -19.17581 -19.17569 -19.14707 -14.56711 -14.49650
 Alpha  occ. eigenvalues --  -10.25140 -10.25124 -10.25119 -10.23426 -10.21991
 Alpha  occ. eigenvalues --  -10.21927 -10.21673 -10.20885  -1.21839  -1.12510
 Alpha  occ. eigenvalues --   -1.04539  -0.89707  -0.87957  -0.81904  -0.77358
 Alpha  occ. eigenvalues --   -0.76534  -0.70614  -0.63751  -0.61588  -0.58470
 Alpha  occ. eigenvalues --   -0.55383  -0.54192  -0.52659  -0.52232  -0.50825
 Alpha  occ. eigenvalues --   -0.50500  -0.46920  -0.46361  -0.44873  -0.44678
 Alpha  occ. eigenvalues --   -0.43803  -0.41293  -0.39548  -0.38706  -0.36763
 Alpha  occ. eigenvalues --   -0.30527  -0.30484  -0.30326  -0.28595  -0.27650
 Alpha  occ. eigenvalues --   -0.26594  -0.22918
 Alpha virt. eigenvalues --   -0.09694  -0.04365  -0.02381   0.03701   0.06294
 Alpha virt. eigenvalues --    0.08719   0.10757   0.12160   0.13270   0.14398
 Alpha virt. eigenvalues --    0.15160   0.15947   0.17096   0.19781   0.20379

 Mulliken charges:
               1
     1  C    0.130612
     2  C   -0.127484
     3  C   -0.092508
     4  C    0.247316
     5  C    0.049918
     6  C   -0.094779
     7  H    0.137614
     8  C   -0.141509
     9  H    0.149623
    10  H    0.095823
    11  H    0.140090
    12  N    0.031492
    13  C   -0.186446
    14  H    0.160956
    15  H    0.122791
    16  O   -0.478391
    17  H    0.160957
    18  H    0.110332
    19  N    0.383807
    20  O   -0.401237
    21  O   -0.398976
 Sum of Mulliken charges =  -0.00000

 Dipole moment (field-independent basis, Debye):
    X=              6.3680    Y=              3.4827    Z=             -0.0010  Tot=              7.2581
 Quadrupole moment (field-independent basis, Debye-Ang):
   XX=            -78.8002   YY=            -72.6088   ZZ=            -74.0546
   XY=              8.2527   XZ=             -0.0062   YZ=             -0.0004

  Exact polarizability: 216.287  -7.569 116.044  -0.002   0.001  43.731
 Approx polarizability: 341.093 -42.362 250.954   0.004   0.004  67.089

                      1                      2                      3
                      A                      A                      A
 Frequencies --     53.6984                63.2314                86.3201
 Red. masses --      8.4545                 5.4558                 4.5010
 Frc consts  --      0.0144                 0.0129                 0.0198
 IR Inten    --      1.9940                 0.8315                 5.4450

                      4                      5                      6
                      A                      A                      A
 Frequencies --    133.3773               140.8519               183.6722
 Red. masses --      6.3577                 1.5118                 2.1831
 Frc consts  --      0.0666                 0.0177                 0.0434
 IR Inten    --      1.7928                 2.8717                 0.6625

                      7                      8                      9
                      A                      A                      A
 Frequencies --    247.2657               291.4374               332.0510
 Red. masses --      8.8157                 5.5919                 4.4349
 Frc consts  --      0.3176                 0.2798                 0.2881
 IR Inten    --      4.3550                 3.8694                 1.1058

                     10                     11                     12
                      A                      A                      A
 Frequencies --    361.3973               425.6226               459.8328
 Red. masses --      5.9196                 3.1115                 4.9990
 Frc consts  --      0.4555                 0.3321                 0.6228
 IR Inten    --      6.2536                 0.0053                 7.4319

                     13                     14                     15
                      A                      A                      A
 Frequencies --    496.9876               533.6490               576.1956
 Red. masses --      3.1621                 7.5758                 4.6828
 Frc consts  --      0.4602                 1.2711                 0.9160
 IR Inten    --      5.1766                 1.3774                 9.7986

                     16                     17                     18
                      A                      A                      A
 Frequencies --    605.5983               644.0662               705.1064
 Red. masses --      4.4457                 7.0361                 3.9402
 Frc consts  --      0.9606                 1.7197                 1.1542
 IR Inten    --      0.1929                 0.2804                17.1453

                     19                     20                     21
                      A                      A                      A
 Frequencies --    705.3974               757.7068               790.8034
 Red. masses --      6.6783                 3.2894                 1.4177
 Frc consts  --      1.9579                 1.1127                 0.5224
 IR Inten    --     12.5440                 8.3311                11.6966

                     22                     23                     24
                      A                      A                      A
 Frequencies --    846.6420               853.8087               882.0622
 Red. masses --      6.8248                 1.3018                 1.6327
 Frc consts  --      2.8823                 0.5592                 0.7484
 IR Inten    --     22.8046                 6.6461                34.7102

                     25                     26                     27
                      A                      A                      A
 Frequencies --    884.4045               981.1738               983.2730
 Red. masses --      6.1543                 6.3897                 1.3205
 Frc consts  --      2.8362                 3.6243                 0.7522
 IR Inten    --     25.0503                15.8766                 0.2530

                     28                     29                     30
                      A                      A                      A
 Frequencies --   1007.1293              1028.2533              1105.6641
 Red. masses --      1.3045                 2.8477                 1.4490
 Frc consts  --      0.7796                 1.7740                 1.0437
 IR Inten    --      0.0031                 0.5321                 2.3786

                     31                     32                     33
                      A                      A                      A
 Frequencies --   1128.6638              1138.3245              1145.3159
 Red. masses --      2.6694                 1.3073                 1.4005
 Frc consts  --      2.0035                 0.9981                 1.0824
 IR Inten    --     78.7857                14.1468                 0.4276

                     34                     35                     36
                      A                      A                      A
 Frequencies --   1206.6162              1229.4986              1259.1113
 Red. masses --      1.3428                 2.3005                 2.9787
 Frc consts  --      1.1519                 2.0489                 2.7823
 IR Inten    --     15.4864                74.0362                 5.1533

                     37                     38                     39
                      A                      A                      A
 Frequencies --   1333.8077              1378.9295              1390.3234
 Red. masses --      1.3272                 8.3969                13.5615
 Frc consts  --      1.3911                 9.4070                15.4451
 IR Inten    --      0.8168                12.8310               580.9382

                     40                     41                     42
                      A                      A                      A
 Frequencies --   1439.0020              1449.0311              1480.1286
 Red. masses --      1.3054                 2.7526                 1.0433
 Frc consts  --      1.5927                 3.4053                 1.3467
 IR Inten    --      2.4448                12.6340                 8.9505

                     43                     44                     45
                      A                      A                      A
 Frequencies --   1484.5964              1521.6037              1531.0883
 Red. masses --      1.3963                 1.5736                 2.2372
 Frc consts  --      1.8131                 2.1466                 3.0900
 IR Inten    --     74.2977                 9.7585                 1.7700

                     46                     47                     48
                      A                      A                      A
 Frequencies --   1601.4016              1634.7822              1656.4831
 Red. masses --      8.6700                 5.5148                 6.1936
 Frc consts  --     13.1000                 8.6836                10.0131
 IR Inten    --    123.2944               140.3998                 8.2402

                     49                     50                     51
                      A                      A                      A
 Frequencies --   1659.5606              3079.9700              3171.2664
 Red. masses --      9.7028                 1.0302                 1.1059
 Frc consts  --     15.7446                 5.7577                 6.5528
 IR Inten    --    136.7549                20.4731                 3.4251

                     52                     53                     54
                      A                      A                      A
 Frequencies --   3181.6029              3190.1054              3231.9922
 Red. masses --      1.1080                 1.0901                 1.0902
 Frc consts  --      6.6079                 6.5363                 6.7098
 IR Inten    --      6.4742                 8.2763                 8.6514

                     55                     56                     57
                      A                      A                      A
 Frequencies --   3243.7005              3247.1721              3268.9976
 Red. masses --      1.0908                 1.0929                 1.0929
 Frc consts  --      6.7623                 6.7897                 6.8810
 IR Inten    --      1.2602                 1.0486                 3.5536

 - Thermochemistry -
 -------------------
 Temperature   298.150 Kelvin.  Pressure   1.00000 Atm.
 Atom     1 has atomic number  6 and mass  12.00000

 Molecular mass:   180.05349 amu.
 Principal axes and moments of inertia in atomic units:
                           1         2         3
     Eigenvalues --   641.590195221.101825851.32926
           X            0.99998   0.00639  -0.00001
           Y           -0.00639   0.99998  -0.00000
           Z            0.00001   0.00000   1.00000
 This molecule is an asymmetric top.
 Rotational symmetry number  1.
 Warning -- assumption of classical behavior for rotation
           may cause significant error
 Rotational temperatures (Kelvin)      0.13500     0.01659     0.01480
 Rotational constants (GHZ):           2.81292     0.34566     0.30843
 Zero-point vibrational energy     415401.8 (Joules/Mol)
                                   99.28341 (Kcal/Mol)
 Warning -- explicit consideration of  16 degrees of freedom as
           vibrations may cause significant error
 Vibrational temperatures:     77.26    90.98   124.20   191.90   202.65
          (Kelvin)            264.26   355.76   419.31   477.75   519.97
                              612.38   661.60   715.05   767.80   829.02
                              871.32   926.67  1014.49  1014.91  1090.17
                             1137.79  1218.13  1228.44  1269.09  1272.46
                             1411.69  1414.71  1449.03  1479.43  1590.80
                             1623.89  1637.79  1647.85  1736.05  1768.97
                             1811.58  1919.05  1983.97  2000.36  2070.40
                             2084.83  2129.57  2136.00  2189.25  2202.89
                             2304.06  2352.08  2383.31  2387.73  4431.38
                             4562.74  4577.61  4589.84  4650.11  4666.96
                             4671.95  4703.35

 Zero-point correction=                           0.158218 (Hartree/Particle)
 Thermal correction to Energy=                    0.169441
 Thermal correction to Enthalpy=                  0.170385
 Thermal correction to Gibbs Free Energy=         0.120059
 Sum of electronic and zero-point Energies=           -644.535618
 Sum of electronic and thermal Energies=              -644.524396
 Sum of electronic and thermal Enthalpies=            -644.523451
 Sum of electronic and thermal Free Energies=         -644.573777

                     E (Thermal)             CV                S
                      KCal/Mol        Cal/Mol-Kelvin    Cal/Mol-Kelvin
 Total                  106.326             41.738            105.920
 Electronic               0.000              0.000              0.000
 Translational            0.889              2.981             41.471
 Rotational               0.889              2.981             31.350
 Vibrational            104.548             35.776             33.099
 Vibration     1          0.596              1.976              4.676
 Vibration     2          0.597              1.972              4.354
 Vibration     3          0.601              1.959              3.742
 Vibration     4          0.613              1.920              2.897
 Vibration     5          0.615              1.912              2.792
 Vibration     6          0.631              1.862              2.291
 Vibration     7          0.661              1.767              1.750
 Vibration     8          0.687              1.690              1.466
 Vibration     9          0.714              1.611              1.250
 Vibration    10          0.736              1.552              1.116
 Vibration    11          0.787              1.414              0.873
 Vibration    12          0.818              1.339              0.767
 Vibration    13          0.853              1.257              0.666
 Vibration    14          0.889              1.176              0.579
 Vibration    15          0.933              1.083              0.492
 Vibration    16          0.964              1.020              0.440

 Normal termination of Gaussian 09 at Fri Aug 20 15:53:41 2021.
