 Gaussian 09, Revision E.01,
 Gaussian 09:  ES64L-G09RevE.01 30-Nov-2015

 -------------------------
 #P OPT Freq B3LYP/6-31G**
 -------------------------

 ------
 LOLFEX
 ------
 Symbolic Z-matrix:
 Charge =  0 Multiplicity = 1

 SCF Done:  E(RB3LYP) =  -752.012805898     A.U. after   16 cycles
 SCF Done:  E(RB3LYP) =  -752.095738680     A.U. after   14 cycles
 SCF Done:  E(RB3LYP) =  -752.127444316     A.U. after   15 cycles
 SCF Done:  E(RB3LYP) =  -752.128907010     A.U. after   14 cycles
 SCF Done:  E(RB3LYP) =  -752.128766098     A.U. after   13 cycles
 SCF Done:  E(RB3LYP) =  -752.129186604     A.U. after   10 cycles
 SCF Done:  E(RB3LYP) =  -752.129169956     A.U. after   14 cycles
 SCF Done:  E(RB3LYP) =  -752.129510554     A.U. after   10 cycles
 SCF Done:  E(RB3LYP) =  -752.129559021     A.U. after   13 cycles
 SCF Done:  E(RB3LYP) =  -752.129040578     A.U. after   14 cycles
 SCF Done:  E(RB3LYP) =  -752.129663395     A.U. after   10 cycles
 SCF Done:  E(RB3LYP) =  -752.129763361     A.U. after   11 cycles
 SCF Done:  E(RB3LYP) =  -752.129788699     A.U. after   12 cycles
 SCF Done:  E(RB3LYP) =  -752.129796723     A.U. after   10 cycles
 SCF Done:  E(RB3LYP) =  -752.129799861     A.U. after   10 cycles
 SCF Done:  E(RB3LYP) =  -752.129801440     A.U. after   10 cycles
 SCF Done:  E(RB3LYP) =  -752.129801859     A.U. after    9 cycles
 Optimization completed.
    -- Stationary point found.
 Normal termination of Gaussian 09 at Fri Aug 20 15:38:04 2021.

 ----------------------------------------------------------------------
 #P Geom=AllCheck Guess=TCheck SCRF=Check GenChk RB3LYP/6-31G(d,p) Freq
 ----------------------------------------------------------------------

 Structure from the checkpoint file:  "/public/home/users/caep010/.cache/gau_scr/Gau-76972.chk"
 ------
 LOLFEX
 ------
 Charge =  0 Multiplicity = 1

                         Standard orientation:
 ---------------------------------------------------------------------
 Center     Atomic      Atomic             Coordinates (Angstroms)
 Number     Number       Type             X           Y           Z
 ---------------------------------------------------------------------
      1          7           0       -1.218087    0.093390    0.758379
      2          7           0       -1.927779   -0.678355   -0.187048
      3          8           0       -1.733314   -1.888297   -0.169502
      4          8           0       -2.737258   -0.085575   -0.887523
      5          6           0       -1.140912    1.538075    0.525271
      6          1           0       -1.242216    2.042177    1.493529
      7          1           0       -1.979437    1.821134   -0.107117
      8          6           0       -0.071489   -0.531752    1.405382
      9          1           0       -0.075783   -0.223915    2.455283
     10          1           0       -0.156507   -1.610971    1.332343
     11          7           0        1.214136   -0.099216    0.851915
     12          7           0        1.757996   -0.894542   -0.173620
     13          8           0        1.472506   -2.081656   -0.165486
     14          8           0        2.543537   -0.345103   -0.949943
     15          6           0        1.354305    1.351175    0.693898
     16          1           0        2.323980    1.560214    0.244929
     17          1           0        1.348347    1.782159    1.701542
     18          6           0        0.192068    1.919314   -0.135701
     19          1           0        0.273555    3.018454   -0.153581
     20          8           0        0.161305    1.368462   -1.438151
     21          1           0        1.066153    1.258291   -1.762561
 ---------------------------------------------------------------------

 SCF Done:  E(RB3LYP) =  -752.129801859     A.U. after    1 cycles

 The electronic state is 1-A.
 Alpha  occ. eigenvalues --  -19.19747 -19.19612 -19.18567 -19.18510 -19.16962
 Alpha  occ. eigenvalues --  -14.61548 -14.60592 -14.43111 -14.42321 -10.29314
 Alpha  occ. eigenvalues --  -10.27503 -10.26128 -10.25357  -1.25728  -1.24715
 Alpha  occ. eigenvalues --   -1.07715  -1.06730  -1.05302  -1.01328  -0.96395
 Alpha  occ. eigenvalues --   -0.81769  -0.77837  -0.75510  -0.67044  -0.64640
 Alpha  occ. eigenvalues --   -0.59195  -0.58796  -0.57147  -0.56710  -0.55117
 Alpha  occ. eigenvalues --   -0.54268  -0.52986  -0.52006  -0.48889  -0.48807
 Alpha  occ. eigenvalues --   -0.48132  -0.47222  -0.43843  -0.42204  -0.40982
 Alpha  occ. eigenvalues --   -0.37156  -0.34962  -0.33392  -0.32715  -0.31462
 Alpha  occ. eigenvalues --   -0.31256  -0.30683  -0.29488  -0.29247  -0.28065
 Alpha virt. eigenvalues --   -0.07010  -0.05123   0.04974   0.06617   0.09833
 Alpha virt. eigenvalues --    0.10264   0.10815   0.11002   0.12743   0.13452
 Alpha virt. eigenvalues --    0.13888   0.15175   0.17360   0.18436   0.20403

 Mulliken charges:
               1
     1  N   -0.308062
     2  N    0.665007
     3  O   -0.404849
     4  O   -0.401904
     5  C   -0.072105
     6  H    0.120073
     7  H    0.183367
     8  C    0.063469
     9  H    0.147890
    10  H    0.214726
    11  N   -0.289012
    12  N    0.653114
    13  O   -0.381110
    14  O   -0.430436
    15  C   -0.113235
    16  H    0.162950
    17  H    0.127320
    18  C    0.176385
    19  H    0.097278
    20  O   -0.536023
    21  H    0.325156
 Sum of Mulliken charges =  -0.00000

 Dipole moment (field-independent basis, Debye):
    X=              1.5931    Y=              4.8921    Z=              4.2697  Tot=              6.6859
 Quadrupole moment (field-independent basis, Debye-Ang):
   XX=            -82.6487   YY=            -74.1306   ZZ=            -71.8053
   XY=              2.0686   XZ=             -2.4061   YZ=             -0.2058

  Exact polarizability:  85.313   0.907  95.775   0.141   4.817  74.086
 Approx polarizability: 128.033   1.643 170.660   0.744   4.464 127.739

                      1                      2                      3
                      A                      A                      A
 Frequencies --     48.4418                77.8163               101.6817
 Red. masses --      9.9979                12.7867                11.0881
 Frc consts  --      0.0138                 0.0456                 0.0675
 IR Inten    --      0.3117                 0.7045                 4.1515

                      4                      5                      6
                      A                      A                      A
 Frequencies --    111.4442               135.7832               259.0387
 Red. masses --      9.1376                 6.4745                 7.4555
 Frc consts  --      0.0669                 0.0703                 0.2948
 IR Inten    --      1.7267                 3.6642                 6.4987

                      7                      8                      9
                      A                      A                      A
 Frequencies --    279.1368               313.1287               358.5817
 Red. masses --      7.7661                 5.6870                 1.1595
 Frc consts  --      0.3565                 0.3285                 0.0878
 IR Inten    --     15.9582                 9.6691               147.4446

                     10                     11                     12
                      A                      A                      A
 Frequencies --    384.7508               402.0154               448.4552
 Red. masses --      3.2951                 2.3931                 2.1037
 Frc consts  --      0.2874                 0.2279                 0.2493
 IR Inten    --      3.4685                 9.8979                22.1016

                     13                     14                     15
                      A                      A                      A
 Frequencies --    469.5678               490.0538               566.0067
 Red. masses --      4.4174                 2.3328                 6.6019
 Frc consts  --      0.5739                 0.3301                 1.2461
 IR Inten    --      1.3180                 0.4556                12.9836

                     16                     17                     18
                      A                      A                      A
 Frequencies --    596.4263               646.3234               672.2627
 Red. masses --      5.6522                 5.9874                 5.4178
 Frc consts  --      1.1846                 1.4736                 1.4426
 IR Inten    --     13.1840                 0.2236                 8.6544

                     19                     20                     21
                      A                      A                      A
 Frequencies --    757.8380               762.7972               810.5871
 Red. masses --     13.2150                11.0999                 5.2174
 Frc consts  --      4.4717                 3.8053                 2.0198
 IR Inten    --      8.0160                 5.1113                65.4399

                     22                     23                     24
                      A                      A                      A
 Frequencies --    823.2146               850.6992               897.1938
 Red. masses --      5.0088                 5.5004                 2.0101
 Frc consts  --      1.9999                 2.3453                 0.9533
 IR Inten    --      0.8068                 1.1578                57.8447

                     25                     26                     27
                      A                      A                      A
 Frequencies --    922.6124               952.6787               957.4421
 Red. masses --      4.2386                 2.4816                 3.0488
 Frc consts  --      2.1257                 1.3270                 1.6466
 IR Inten    --     13.0500                18.5476               135.8347

                     28                     29                     30
                      A                      A                      A
 Frequencies --    963.9102              1063.4602              1083.2190
 Red. masses --      3.5339                 1.8512                 2.7248
 Frc consts  --      1.9345                 1.2335                 1.8837
 IR Inten    --    133.6577                63.0378                37.8319

                     31                     32                     33
                      A                      A                      A
 Frequencies --   1152.1506              1196.0902              1240.7161
 Red. masses --      2.4360                 2.4566                 1.1564
 Frc consts  --      1.9052                 2.0707                 1.0488
 IR Inten    --      9.8054                10.1234                32.5197

                     34                     35                     36
                      A                      A                      A
 Frequencies --   1269.5673              1281.8586              1312.9072
 Red. masses --      5.1124                 1.6639                 2.2710
 Frc consts  --      4.8550                 1.6109                 2.3065
 IR Inten    --      8.9850                42.9302               133.4631

                     37                     38                     39
                      A                      A                      A
 Frequencies --   1317.8979              1348.4300              1352.3572
 Red. masses --      1.7921                 4.1308                 1.2531
 Frc consts  --      1.8339                 4.4253                 1.3503
 IR Inten    --     84.2225               248.6346                 6.3717

                     40                     41                     42
                      A                      A                      A
 Frequencies --   1376.0740              1389.3448              1404.1204
 Red. masses --      1.5661                 1.2560                 1.5606
 Frc consts  --      1.7472                 1.4284                 1.8128
 IR Inten    --     57.8342                 5.1498                63.4770

                     43                     44                     45
                      A                      A                      A
 Frequencies --   1409.0485              1434.5519              1474.3883
 Red. masses --      1.4855                 1.6018                 1.1063
 Frc consts  --      1.7377                 1.9422                 1.4170
 IR Inten    --     23.0622                11.4149                43.0744

                     46                     47                     48
                      A                      A                      A
 Frequencies --   1481.4010              1501.1269              1664.5622
 Red. masses --      1.1111                 1.1418                12.7903
 Frc consts  --      1.4366                 1.5159                20.8800
 IR Inten    --      8.6163                57.1688               123.4262

                     49                     50                     51
                      A                      A                      A
 Frequencies --   1688.2232              2993.2295              3062.4473
 Red. masses --     12.6653                 1.0842                 1.0719
 Frc consts  --     21.2679                 5.7233                 5.9229
 IR Inten    --    340.7517                52.7799                 8.2127

                     52                     53                     54
                      A                      A                      A
 Frequencies --   3071.2669              3084.9387              3167.0966
 Red. masses --      1.0714                 1.0729                 1.0953
 Frc consts  --      5.9544                 6.0158                 6.4732
 IR Inten    --     31.8907                30.6742                 1.0736

                     55                     56                     57
                      A                      A                      A
 Frequencies --   3185.7292              3223.5106              3801.8000
 Red. masses --      1.0936                 1.0942                 1.0666
 Frc consts  --      6.5394                 6.6986                 9.0831
 IR Inten    --      2.3970                10.9269                41.7529

 - Thermochemistry -
 -------------------
 Temperature   298.150 Kelvin.  Pressure   1.00000 Atm.
 Atom     1 has atomic number  7 and mass  14.00307

 Molecular mass:   192.04947 amu.
 Principal axes and moments of inertia in atomic units:
                           1         2         3
     Eigenvalues --  1533.878062230.694462841.37243
           X            0.99992   0.01225  -0.00282
           Y           -0.01223   0.99990   0.00660
           Z            0.00290  -0.00657   0.99997
 This molecule is an asymmetric top.
 Rotational symmetry number  1.
 Warning -- assumption of classical behavior for rotation
           may cause significant error
 Rotational temperatures (Kelvin)      0.05647     0.03883     0.03048
 Rotational constants (GHZ):           1.17659     0.80905     0.63517
 Zero-point vibrational energy     413258.4 (Joules/Mol)
                                   98.77112 (Kcal/Mol)
 Warning -- explicit consideration of  16 degrees of freedom as
           vibrations may cause significant error
 Vibrational temperatures:     69.70   111.96   146.30   160.34   195.36
          (Kelvin)            372.70   401.62   450.52   515.92   553.57
                              578.41   645.23   675.60   705.08   814.36
                              858.12   929.91   967.23  1090.36  1097.49
                             1166.25  1184.42  1223.96  1290.86  1327.43
                             1370.69  1377.54  1386.85  1530.08  1558.51
                             1657.69  1720.90  1785.11  1826.62  1844.31
                             1888.98  1896.16  1940.09  1945.74  1979.86
                             1998.95  2020.21  2027.30  2064.00  2121.31
                             2131.40  2159.78  2394.93  2428.97  4306.58
                             4406.17  4418.86  4438.53  4556.74  4583.55
                             4637.91  5469.94

 Zero-point correction=                           0.157402 (Hartree/Particle)
 Thermal correction to Energy=                    0.168474
 Thermal correction to Enthalpy=                  0.169418
 Thermal correction to Gibbs Free Energy=         0.119796
 Sum of electronic and zero-point Energies=           -751.972400
 Sum of electronic and thermal Energies=              -751.961328
 Sum of electronic and thermal Enthalpies=            -751.960384
 Sum of electronic and thermal Free Energies=         -752.010005

                     E (Thermal)             CV                S
                      KCal/Mol        Cal/Mol-Kelvin    Cal/Mol-Kelvin
 Total                  105.719             41.693            104.438
 Electronic               0.000              0.000              0.000
 Translational            0.889              2.981             41.663
 Rotational               0.889              2.981             30.653
 Vibrational            103.942             35.732             32.121
 Vibration     1          0.595              1.978              4.880
 Vibration     2          0.599              1.964              3.945
 Vibration     3          0.604              1.948              3.422
 Vibration     4          0.607              1.940              3.244
 Vibration     5          0.614              1.918              2.862
 Vibration     6          0.668              1.747              1.668
 Vibration     7          0.679              1.712              1.539
 Vibration     8          0.701              1.649              1.346
 Vibration     9          0.733              1.558              1.128
 Vibration    10          0.754              1.503              1.020
 Vibration    11          0.768              1.466              0.955
 Vibration    12          0.807              1.364              0.800
 Vibration    13          0.827              1.318              0.739
 Vibration    14          0.846              1.272              0.683
 Vibration    15          0.922              1.105              0.512
 Vibration    16          0.954              1.039              0.456

 Normal termination of Gaussian 09 at Fri Aug 20 15:38:44 2021.
