 Gaussian 09, Revision E.01,
 Gaussian 09:  ES64L-G09RevE.01 30-Nov-2015

 -------------------------
 #P OPT Freq B3LYP/6-31G**
 -------------------------

 ------
 DIDHIJ
 ------
 Symbolic Z-matrix:
 Charge =  0 Multiplicity = 1

 SCF Done:  E(RB3LYP) =  -649.342173579     A.U. after   14 cycles
 SCF Done:  E(RB3LYP) =  -649.456841172     A.U. after   12 cycles
 SCF Done:  E(RB3LYP) =  -649.539151646     A.U. after   13 cycles
 SCF Done:  E(RB3LYP) =  -649.539937933     A.U. after   13 cycles
 SCF Done:  E(RB3LYP) =  -649.531974034     A.U. after   15 cycles
 SCF Done:  E(RB3LYP) =  -649.541251583     A.U. after   11 cycles
 SCF Done:  E(RB3LYP) =  -649.542223614     A.U. after   13 cycles
 SCF Done:  E(RB3LYP) =  -649.542527723     A.U. after   13 cycles
 SCF Done:  E(RB3LYP) =  -649.542626354     A.U. after   12 cycles
 SCF Done:  E(RB3LYP) =  -649.542647251     A.U. after   10 cycles
 SCF Done:  E(RB3LYP) =  -649.509369726     A.U. after   14 cycles
 SCF Done:  E(RB3LYP) =  -649.542698396     A.U. after    8 cycles
 SCF Done:  E(RB3LYP) =  -649.542779126     A.U. after   12 cycles
 SCF Done:  E(RB3LYP) =  -649.542868363     A.U. after   13 cycles
 SCF Done:  E(RB3LYP) =  -649.542888465     A.U. after   11 cycles
 SCF Done:  E(RB3LYP) =  -649.542889442     A.U. after   11 cycles
 SCF Done:  E(RB3LYP) =  -649.542892755     A.U. after   11 cycles
 SCF Done:  E(RB3LYP) =  -649.542893003     A.U. after    8 cycles
 SCF Done:  E(RB3LYP) =  -649.542893019     A.U. after    7 cycles
 Optimization completed.
    -- Stationary point found.
 Normal termination of Gaussian 09 at Fri Aug 20 16:06:58 2021.

 ----------------------------------------------------------------------
 #P Geom=AllCheck Guess=TCheck SCRF=Check GenChk RB3LYP/6-31G(d,p) Freq
 ----------------------------------------------------------------------

 Structure from the checkpoint file:  "/public/home/users/caep010/.cache/gau_scr/Gau-38167.chk"
 ------
 DIDHIJ
 ------
 Charge =  0 Multiplicity = 1

                         Standard orientation:
 ---------------------------------------------------------------------
 Center     Atomic      Atomic             Coordinates (Angstroms)
 Number     Number       Type             X           Y           Z
 ---------------------------------------------------------------------
      1          6           0       -1.096553   -0.151769    0.165264
      2          6           0       -0.028022   -0.370815   -0.918765
      3          6           0       -1.880902   -1.384281    0.579966
      4          1           0        0.057965    0.508360   -1.568003
      5          6           0        0.063278    0.215691    1.118851
      6          1           0        0.185436    1.305747    1.200555
      7          1           0        0.027615   -0.212995    2.126584
      8          8           0       -2.679321   -1.778747   -0.523855
      9          1           0       -3.299492   -2.455242   -0.225707
     10          1           0       -2.485566   -1.134497    1.461477
     11          1           0       -0.135803   -1.269584   -1.531885
     12          7           0        0.974871   -0.457731    0.171510
     13          6           0        2.366499   -0.001767   -0.018281
     14          6           0        2.993392   -0.910535   -1.088758
     15          1           0        2.915084   -1.960423   -0.791858
     16          1           0        4.050388   -0.665077   -1.231038
     17          6           0        2.481773    1.474831   -0.457970
     18          1           0        3.533387    1.751600   -0.583140
     19          1           0        1.980759    1.654901   -1.414356
     20          6           0        3.092645   -0.201239    1.322532
     21          1           0        4.152353    0.055196    1.228834
     22          1           0        2.667724    0.436082    2.105859
     23          7           0       -2.069623    0.983514   -0.071688
     24          8           0       -2.747997    1.314432    0.899460
     25          8           0       -2.116598    1.503824   -1.179238
     26          1           0        2.493231   -0.790822   -2.055755
     27          1           0        3.012747   -1.242396    1.648590
     28          1           0        2.052986    2.156141    0.284225
     29          1           0       -1.146881   -2.154235    0.858889
 ---------------------------------------------------------------------

 SCF Done:  E(RB3LYP) =  -649.542893019     A.U. after    1 cycles

 The electronic state is 1-A.
 Alpha  occ. eigenvalues --  -19.18266 -19.17902 -19.16104 -14.56302 -14.33147
 Alpha  occ. eigenvalues --  -10.25508 -10.25293 -10.23161 -10.22922 -10.21993
 Alpha  occ. eigenvalues --  -10.17895 -10.17810 -10.17774  -1.22096  -1.05021
 Alpha  occ. eigenvalues --   -1.03543  -0.95825  -0.83856  -0.77866  -0.70603
 Alpha  occ. eigenvalues --   -0.69654  -0.69122  -0.68134  -0.65892  -0.56521
 Alpha  occ. eigenvalues --   -0.54768  -0.53883  -0.52417  -0.52112  -0.50592
 Alpha  occ. eigenvalues --   -0.48576  -0.45938  -0.45729  -0.44634  -0.44185
 Alpha  occ. eigenvalues --   -0.42811  -0.40286  -0.39790  -0.38574  -0.37755
 Alpha  occ. eigenvalues --   -0.36998  -0.36640  -0.35413  -0.34408  -0.33017
 Alpha  occ. eigenvalues --   -0.32550  -0.30795  -0.29561  -0.29169  -0.28208
 Alpha  occ. eigenvalues --   -0.22289
 Alpha virt. eigenvalues --   -0.06217   0.05876   0.06683   0.09466   0.09641
 Alpha virt. eigenvalues --    0.11704   0.12030   0.13206   0.13549   0.14701
 Alpha virt. eigenvalues --    0.15032   0.15784   0.16759   0.17222   0.17636

 Mulliken charges:
               1
     1  C    0.074160
     2  C   -0.004723
     3  C    0.057470
     4  H    0.117942
     5  C   -0.000608
     6  H    0.103750
     7  H    0.111489
     8  O   -0.537062
     9  H    0.317565
    10  H    0.118443
    11  H    0.123683
    12  N   -0.455390
    13  C    0.164072
    14  C   -0.302598
    15  H    0.110460
    16  H    0.101013
    17  C   -0.315233
    18  H    0.104817
    19  H    0.105792
    20  C   -0.303045
    21  H    0.102208
    22  H    0.099276
    23  N    0.441901
    24  O   -0.385807
    25  O   -0.371143
    26  H    0.103530
    27  H    0.110279
    28  H    0.099993
    29  H    0.107766
 Sum of Mulliken charges =   0.00000

 Dipole moment (field-independent basis, Debye):
    X=              2.2924    Y=             -2.6522    Z=              1.4375  Tot=              3.7889
 Quadrupole moment (field-independent basis, Debye-Ang):
   XX=            -79.9761   YY=            -77.7946   ZZ=            -80.0639
   XY=             12.3908   XZ=             -3.4688   YZ=             -0.9970

  Exact polarizability: 120.732   0.468  96.315  -2.973  -0.844 102.806
 Approx polarizability: 151.974  -2.296 140.091  -9.713  -3.788 178.416

                      1                      2                      3
                      A                      A                      A
 Frequencies --     41.7869                52.2292                53.9348
 Red. masses --      8.5412                 3.4330                 4.2228
 Frc consts  --      0.0088                 0.0055                 0.0072
 IR Inten    --      0.2773                 1.0849                 1.9090

                      4                      5                      6
                      A                      A                      A
 Frequencies --     99.5498               135.6487               199.9861
 Red. masses --      4.5191                 4.3926                 1.1607
 Frc consts  --      0.0264                 0.0476                 0.0274
 IR Inten    --      1.8565                 0.3035               113.7885

                      7                      8                      9
                      A                      A                      A
 Frequencies --    206.0479               218.7493               231.5276
 Red. masses --      1.4638                 2.3968                 2.0612
 Frc consts  --      0.0366                 0.0676                 0.0651
 IR Inten    --      2.3867                 1.2629                 6.2885

                     10                     11                     12
                      A                      A                      A
 Frequencies --    243.9366               264.9966               269.8662
 Red. masses --      2.3081                 2.5902                 1.1027
 Frc consts  --      0.0809                 0.1072                 0.0473
 IR Inten    --      2.4017                 2.4308                 0.1717

                     13                     14                     15
                      A                      A                      A
 Frequencies --    282.2522               328.0293               354.9776
 Red. masses --      1.2053                 2.7775                 2.5103
 Frc consts  --      0.0566                 0.1761                 0.1864
 IR Inten    --      1.1066                 0.8017                 1.1425

                     16                     17                     18
                      A                      A                      A
 Frequencies --    358.5378               373.4602               447.8326
 Red. masses --      2.6489                 2.1120                 3.1994
 Frc consts  --      0.2006                 0.1736                 0.3780
 IR Inten    --      0.1075                 2.4738                 8.9172

                     19                     20                     21
                      A                      A                      A
 Frequencies --    475.2495               481.7593               520.6274
 Red. masses --      3.2748                 2.7040                 3.9420
 Frc consts  --      0.4358                 0.3698                 0.6295
 IR Inten    --      0.3806                 6.1015                13.7401

                     22                     23                     24
                      A                      A                      A
 Frequencies --    554.4799               633.8587               748.2260
 Red. masses --      3.9269                 3.3466                 6.9018
 Frc consts  --      0.7113                 0.7922                 2.2766
 IR Inten    --      3.0266                12.2428                 0.6497

                     25                     26                     27
                      A                      A                      A
 Frequencies --    798.7725               821.8229               878.8281
 Red. masses --      3.0208                 3.8146                 2.6003
 Frc consts  --      1.1356                 1.5179                 1.1833
 IR Inten    --     10.7845                16.6109                 1.7711

                     28                     29                     30
                      A                      A                      A
 Frequencies --    908.8973               916.6798               933.5161
 Red. masses --      3.5000                 1.7020                 1.6262
 Frc consts  --      1.7035                 0.8427                 0.8349
 IR Inten    --     13.1303                 0.4044                 0.2769

                     31                     32                     33
                      A                      A                      A
 Frequencies --    962.3644               982.4907               995.9840
 Red. masses --      1.2087                 1.7564                 1.5841
 Frc consts  --      0.6595                 0.9989                 0.9258
 IR Inten    --      0.0427                 5.8661                 1.2678

                     34                     35                     36
                      A                      A                      A
 Frequencies --   1026.7309              1044.3203              1064.4657
 Red. masses --      1.8294                 1.4062                 3.3499
 Frc consts  --      1.1363                 0.9035                 2.2364
 IR Inten    --      7.5039                 1.2625                24.6475

                     37                     38                     39
                      A                      A                      A
 Frequencies --   1095.4649              1100.5928              1121.5091
 Red. masses --      3.5365                 3.3772                 1.0588
 Frc consts  --      2.5005                 2.4103                 0.7846
 IR Inten    --     67.9673                 8.0143                 2.4313

                     40                     41                     42
                      A                      A                      A
 Frequencies --   1145.4064              1158.2465              1191.3351
 Red. masses --      2.7300                 1.4982                 2.2029
 Frc consts  --      2.1102                 1.1842                 1.8421
 IR Inten    --      2.8110                 9.3453                 5.0470

                     43                     44                     45
                      A                      A                      A
 Frequencies --   1245.6711              1250.0478              1268.0395
 Red. masses --      1.4985                 2.4453                 1.7316
 Frc consts  --      1.3700                 2.2513                 1.6405
 IR Inten    --     67.2131                14.7388                27.6615

                     46                     47                     48
                      A                      A                      A
 Frequencies --   1269.6405              1290.7706              1296.8943
 Red. masses --      2.5862                 2.0552                 1.4315
 Frc consts  --      2.4562                 2.0175                 1.4186
 IR Inten    --     60.8176                10.9965                12.4162

                     49                     50                     51
                      A                      A                      A
 Frequencies --   1309.0291              1357.1917              1409.7603
 Red. masses --      1.8088                 1.7760                 1.2582
 Frc consts  --      1.8261                 1.9274                 1.4733
 IR Inten    --     34.6739                 0.3435                 9.6051

                     52                     53                     54
                      A                      A                      A
 Frequencies --   1411.4399              1422.0640              1438.6366
 Red. masses --      1.2724                 5.2466                 1.2286
 Frc consts  --      1.4934                 6.2513                 1.4982
 IR Inten    --     10.2084                86.7059                 7.3282

                     55                     56                     57
                      A                      A                      A
 Frequencies --   1461.5151              1491.5203              1497.7928
 Red. masses --      1.7794                 1.0497                 1.0472
 Frc consts  --      2.2393                 1.3759                 1.3842
 IR Inten    --     18.5940                 0.2585                 0.4567

                     58                     59                     60
                      A                      A                      A
 Frequencies --   1503.2188              1512.9256              1515.7804
 Red. masses --      1.0442                 1.0724                 1.0579
 Frc consts  --      1.3902                 1.4463                 1.4321
 IR Inten    --      0.0844                 1.4723                 3.4367

                     61                     62                     63
                      A                      A                      A
 Frequencies --   1523.2701              1529.4079              1532.3283
 Red. masses --      1.0675                 1.0908                 1.0678
 Frc consts  --      1.4594                 1.5033                 1.4773
 IR Inten    --      6.1371                12.7235                 1.5477

                     64                     65                     66
                      A                      A                      A
 Frequencies --   1543.7046              1660.7405              3008.9321
 Red. masses --      1.1068                13.3420                 1.0619
 Frc consts  --      1.5540                21.6808                 5.6645
 IR Inten    --     15.3345               206.3775                27.3886

                     67                     68                     69
                      A                      A                      A
 Frequencies --   3012.4856              3041.8421              3043.2688
 Red. masses --      1.0585                 1.0392                 1.0353
 Frc consts  --      5.6599                 5.6655                 5.6492
 IR Inten    --     30.8632                 6.9448                29.8799

                     70                     71                     72
                      A                      A                      A
 Frequencies --   3047.1381              3053.2944              3064.1848
 Red. masses --      1.0465                 1.0456                 1.1056
 Frc consts  --      5.7247                 5.7434                 6.1161
 IR Inten    --     13.2554                12.5923                24.3291

                     73                     74                     75
                      A                      A                      A
 Frequencies --   3075.9203              3110.8669              3111.5143
 Red. masses --      1.1015                 1.1044                 1.1017
 Frc consts  --      6.1404                 6.2970                 6.2841
 IR Inten    --     33.8580                 9.7392                 5.3531

                     76                     77                     78
                      A                      A                      A
 Frequencies --   3114.4004              3117.3837              3119.9928
 Red. masses --      1.1033                 1.1016                 1.1016
 Frc consts  --      6.3048                 6.3076                 6.3181
 IR Inten    --     23.8786                41.6923                52.5596

                     79                     80                     81
                      A                      A                      A
 Frequencies --   3126.2280              3131.8315              3837.7351
 Red. masses --      1.1037                 1.1028                 1.0667
 Frc consts  --      6.3552                 6.3729                 9.2568
 IR Inten    --      0.7944                50.9682                33.4014

 - Thermochemistry -
 -------------------
 Temperature   298.150 Kelvin.  Pressure   1.00000 Atm.
 Atom     1 has atomic number  6 and mass  12.00000

 Molecular mass:   188.11609 amu.
 Principal axes and moments of inertia in atomic units:
                           1         2         3
     Eigenvalues --  1300.270483721.840094031.81315
           X            0.99976   0.02127  -0.00574
           Y           -0.02131   0.99975  -0.00706
           Z            0.00559   0.00718   0.99996
 This molecule is an asymmetric top.
 Rotational symmetry number  1.
 Warning -- assumption of classical behavior for rotation
           may cause significant error
 Rotational temperatures (Kelvin)      0.06661     0.02327     0.02148
 Rotational constants (GHZ):           1.38797     0.48491     0.44763
 Zero-point vibrational energy     648874.7 (Joules/Mol)
                                  155.08479 (Kcal/Mol)
 Warning -- explicit consideration of  22 degrees of freedom as
           vibrations may cause significant error
 Vibrational temperatures:     60.12    75.15    77.60   143.23   195.17
          (Kelvin)            287.74   296.46   314.73   333.12   350.97
                              381.27   388.28   406.10   471.96   510.73
                              515.86   537.33   644.33   683.78   693.14
                              749.07   797.77   911.98  1076.53  1149.25
                             1182.42  1264.44  1307.70  1318.90  1343.12
                             1384.63  1413.58  1433.00  1477.23  1502.54
                             1531.53  1576.13  1583.51  1613.60  1647.98
                             1666.46  1714.06  1792.24  1798.54  1824.42
                             1826.73  1857.13  1865.94  1883.40  1952.69
                             2028.33  2030.74  2046.03  2069.87  2102.79
                             2145.96  2154.99  2162.79  2176.76  2180.87
                             2191.64  2200.47  2204.68  2221.04  2389.43
                             4329.18  4334.29  4376.53  4378.58  4384.15
                             4393.00  4408.67  4425.56  4475.84  4476.77
                             4480.92  4485.21  4488.97  4497.94  4506.00
                             5521.64

 Zero-point correction=                           0.247143 (Hartree/Particle)
 Thermal correction to Energy=                    0.261595
 Thermal correction to Enthalpy=                  0.262539
 Thermal correction to Gibbs Free Energy=         0.205872
 Sum of electronic and zero-point Energies=           -649.295750
 Sum of electronic and thermal Energies=              -649.281298
 Sum of electronic and thermal Enthalpies=            -649.280354
 Sum of electronic and thermal Free Energies=         -649.337021

                     E (Thermal)             CV                S
                      KCal/Mol        Cal/Mol-Kelvin    Cal/Mol-Kelvin
 Total                  164.153             53.581            119.266
 Electronic               0.000              0.000              0.000
 Translational            0.889              2.981             41.602
 Rotational               0.889              2.981             31.346
 Vibrational            162.376             47.620             46.319
 Vibration     1          0.594              1.980              5.173
 Vibration     2          0.596              1.977              4.731
 Vibration     3          0.596              1.976              4.668
 Vibration     4          0.604              1.949              3.463
 Vibration     5          0.613              1.918              2.864
 Vibration     6          0.638              1.840              2.133
 Vibration     7          0.641              1.831              2.078
 Vibration     8          0.647              1.813              1.969
 Vibration     9          0.653              1.793              1.867
 Vibration    10          0.659              1.773              1.774
 Vibration    11          0.671              1.737              1.629
 Vibration    12          0.674              1.729              1.597
 Vibration    13          0.681              1.707              1.520
 Vibration    14          0.711              1.619              1.270
 Vibration    15          0.731              1.565              1.144
 Vibration    16          0.733              1.558              1.128
 Vibration    17          0.745              1.527              1.066
 Vibration    18          0.807              1.366              0.802
 Vibration    19          0.832              1.305              0.723
 Vibration    20          0.838              1.291              0.705
 Vibration    21          0.876              1.204              0.609
 Vibration    22          0.910              1.130              0.535

 Optimization completed.
    -- Stationary point found.
 Normal termination of Gaussian 09 at Fri Aug 20 16:08:01 2021.
