 Gaussian 09, Revision E.01,
 Gaussian 09:  ES64L-G09RevE.01 30-Nov-2015

 -------------------------
 #P OPT Freq B3LYP/6-31G**
 -------------------------

 ------
 OROYUR
 ------
 Symbolic Z-matrix:
 Charge =  0 Multiplicity = 1

 SCF Done:  E(RB3LYP) =  -643.401035765     A.U. after   16 cycles
 SCF Done:  E(RB3LYP) =  -643.482586654     A.U. after   14 cycles
 SCF Done:  E(RB3LYP) =  -643.507795457     A.U. after   16 cycles
 SCF Done:  E(RB3LYP) =  -643.500226713     A.U. after   18 cycles
 SCF Done:  E(RB3LYP) =  -643.512984449     A.U. after   13 cycles
 SCF Done:  E(RB3LYP) =  -643.513921484     A.U. after   14 cycles
 SCF Done:  E(RB3LYP) =  -643.514107622     A.U. after   13 cycles
 SCF Done:  E(RB3LYP) =  -643.514158932     A.U. after   13 cycles
 SCF Done:  E(RB3LYP) =  -643.514195491     A.U. after   14 cycles
 SCF Done:  E(RB3LYP) =  -643.514226062     A.U. after   14 cycles
 SCF Done:  E(RB3LYP) =  -643.514234466     A.U. after   13 cycles
 SCF Done:  E(RB3LYP) =  -643.514239233     A.U. after   12 cycles
 SCF Done:  E(RB3LYP) =  -643.514241095     A.U. after   12 cycles
 SCF Done:  E(RB3LYP) =  -643.514242017     A.U. after   10 cycles
 SCF Done:  E(RB3LYP) =  -643.514242094     A.U. after    8 cycles
 SCF Done:  E(RB3LYP) =  -643.514242102     A.U. after    8 cycles
 Optimization completed.
    -- Stationary point found.
 Normal termination of Gaussian 09 at Fri Aug 20 16:02:00 2021.

 ----------------------------------------------------------------------
 #P Geom=AllCheck Guess=TCheck SCRF=Check GenChk RB3LYP/6-31G(d,p) Freq
 ----------------------------------------------------------------------

 Structure from the checkpoint file:  "/public/home/users/caep010/.cache/gau_scr/Gau-54524.chk"
 ------
 OROYUR
 ------
 Charge =  0 Multiplicity = 1

                         Standard orientation:
 ---------------------------------------------------------------------
 Center     Atomic      Atomic             Coordinates (Angstroms)
 Number     Number       Type             X           Y           Z
 ---------------------------------------------------------------------
      1          6           0        0.868288    0.942555    0.000007
      2          6           0        0.625438   -0.447373   -0.000001
      3          6           0       -0.656350   -0.967863   -0.000003
      4          1           0       -0.801724   -2.039731    0.000002
      5          6           0       -1.762082   -0.105212   -0.000013
      6          6           0       -1.553474    1.281011   -0.000018
      7          1           0       -2.386506    1.972484   -0.000036
      8          6           0       -0.255966    1.783492    0.000000
      9          1           0       -0.096662    2.855952    0.000012
     10          6           0        2.155634    1.569197    0.000059
     11          7           0        3.118664    2.221841    0.000098
     12          7           0        1.742837   -1.415653   -0.000015
     13          8           0        1.456599   -2.611345    0.000207
     14          8           0        2.883793   -0.964462   -0.000274
     15          8           0       -2.971753   -0.708446   -0.000018
     16          6           0       -4.142926    0.104481   -0.000009
     17          1           0       -4.191365    0.734678   -0.895701
     18          1           0       -4.191327    0.734714    0.895660
     19          1           0       -4.983405   -0.589121    0.000023
 ---------------------------------------------------------------------

 SCF Done:  E(RB3LYP) =  -643.514242102     A.U. after    1 cycles

 The electronic state is 1-A.
 Alpha  occ. eigenvalues --  -19.21966 -19.19521 -19.19338 -14.58635 -14.33789
 Alpha  occ. eigenvalues --  -10.29834 -10.28191 -10.27319 -10.26371 -10.24438
 Alpha  occ. eigenvalues --  -10.23730 -10.23519 -10.23483  -1.23919  -1.10697
 Alpha  occ. eigenvalues --   -1.06651  -0.92168  -0.89779  -0.82779  -0.81112
 Alpha  occ. eigenvalues --   -0.75014  -0.72200  -0.66156  -0.62463  -0.59060
 Alpha  occ. eigenvalues --   -0.56224  -0.54594  -0.54002  -0.53510  -0.51182
 Alpha  occ. eigenvalues --   -0.50347  -0.47469  -0.45740  -0.44589  -0.42753
 Alpha  occ. eigenvalues --   -0.42184  -0.38527  -0.36922  -0.36161  -0.34356
 Alpha  occ. eigenvalues --   -0.33665  -0.32032  -0.31564  -0.30429  -0.29774
 Alpha  occ. eigenvalues --   -0.25991
 Alpha virt. eigenvalues --   -0.10602  -0.05688  -0.01619   0.03385   0.05984
 Alpha virt. eigenvalues --    0.06938   0.07810   0.09835   0.12019   0.13021
 Alpha virt. eigenvalues --    0.13819   0.14578   0.15920   0.17427   0.19835

 Mulliken charges:
               1
     1  C    0.109611
     2  C    0.261536
     3  C   -0.135562
     4  H    0.159045
     5  C    0.367320
     6  C   -0.120554
     7  H    0.113038
     8  C   -0.098747
     9  H    0.133147
    10  C    0.278321
    11  N   -0.470449
    12  N    0.374245
    13  O   -0.388783
    14  O   -0.375936
    15  O   -0.506804
    16  C   -0.092216
    17  H    0.124834
    18  H    0.124834
    19  H    0.143120
 Sum of Mulliken charges =  -0.00000

 Dipole moment (field-independent basis, Debye):
    X=             -8.4780    Y=              1.4725    Z=             -0.0001  Tot=              8.6049
 Quadrupole moment (field-independent basis, Debye-Ang):
   XX=            -76.7631   YY=            -78.9942   ZZ=            -72.1660
   XY=             -8.2572   XZ=              0.0003   YZ=              0.0002

  Exact polarizability: 162.947  13.859 116.671  -0.001  -0.001  43.772
 Approx polarizability: 268.322  47.491 216.981  -0.005  -0.006  66.524

                      1                      2                      3
                      A                      A                      A
 Frequencies --     21.1093                75.0431               100.3349
 Red. masses --     15.3017                 3.9502                 4.5384
 Frc consts  --      0.0040                 0.0131                 0.0269
 IR Inten    --      0.1749                 0.1401                 4.2340

                      4                      5                      6
                      A                      A                      A
 Frequencies --    157.5729               183.6019               186.2773
 Red. masses --      8.7340                 6.9857                 5.9749
 Frc consts  --      0.1278                 0.1387                 0.1222
 IR Inten    --      2.9756                 0.0406                 7.5652

                      7                      8                      9
                      A                      A                      A
 Frequencies --    220.6816               286.7960               290.2989
 Red. masses --      1.2322                 3.7199                 4.1455
 Frc consts  --      0.0354                 0.1803                 0.2058
 IR Inten    --      0.0764                 0.0020                 6.3319

                     10                     11                     12
                      A                      A                      A
 Frequencies --    354.4210               385.6890               438.5970
 Red. masses --      9.6022                 8.6517                 3.5059
 Frc consts  --      0.7107                 0.7583                 0.3974
 IR Inten    --      4.4114                 0.2348                 0.0452

                     13                     14                     15
                      A                      A                      A
 Frequencies --    451.8352               495.8361               546.4713
 Red. masses --     12.5121                10.5927                 6.0680
 Frc consts  --      1.5050                 1.5344                 1.0676
 IR Inten    --      1.4325                 0.9938                 4.2532

                     16                     17                     18
                      A                      A                      A
 Frequencies --    595.2244               622.1472               700.9399
 Red. masses --      3.5804                 5.6938                 4.6270
 Frc consts  --      0.7474                 1.2985                 1.3394
 IR Inten    --     12.9942                 0.6278                 2.0797

                     19                     20                     21
                      A                      A                      A
 Frequencies --    702.6280               723.2480               764.3887
 Red. masses --      6.9643                 6.2660                 7.7085
 Frc consts  --      2.0257                 1.9312                 2.6537
 IR Inten    --      7.8108                12.6142                 6.1283

                     22                     23                     24
                      A                      A                      A
 Frequencies --    822.9276               846.2492               917.7321
 Red. masses --     10.1265                 1.4767                 1.4378
 Frc consts  --      4.0405                 0.6231                 0.7135
 IR Inten    --     37.3305                30.7688                15.4345

                     25                     26                     27
                      A                      A                      A
 Frequencies --    935.0134               971.4350              1062.2322
 Red. masses --      6.2616                 1.3214                 2.4949
 Frc consts  --      3.2253                 0.7347                 1.6586
 IR Inten    --     23.6523                 1.1287                46.0099

                     28                     29                     30
                      A                      A                      A
 Frequencies --   1093.7592              1174.9145              1176.4777
 Red. masses --      6.5077                 1.4847                 1.2703
 Frc consts  --      4.5869                 1.2075                 1.0359
 IR Inten    --     28.3861                 5.7818                 0.7625

                     31                     32                     33
                      A                      A                      A
 Frequencies --   1212.1499              1226.1212              1275.5085
 Red. masses --      1.3889                 2.2330                 1.9630
 Frc consts  --      1.2023                 1.9779                 1.8816
 IR Inten    --      5.8390                 3.7626                57.0471

                     34                     35                     36
                      A                      A                      A
 Frequencies --   1323.7600              1354.1889              1394.3982
 Red. masses --      4.0027                 4.5928                14.2954
 Frc consts  --      4.1326                 4.9624                16.3764
 IR Inten    --    292.9831                35.0217               216.6990

                     37                     38                     39
                      A                      A                      A
 Frequencies --   1468.1093              1486.6177              1506.4107
 Red. masses --      3.8249                 1.2326                 1.0459
 Frc consts  --      4.8573                 1.6050                 1.3984
 IR Inten    --      3.4258                22.8934                 7.8055

                     40                     41                     42
                      A                      A                      A
 Frequencies --   1514.1942              1545.2878              1602.3946
 Red. masses --      1.0651                 2.9729                 7.1758
 Frc consts  --      1.4388                 4.1826                10.8558
 IR Inten    --     44.4626                85.0844                41.4906

                     43                     44                     45
                      A                      A                      A
 Frequencies --   1645.3405              1680.6485              2346.6235
 Red. masses --      9.6624                 8.2173                12.6775
 Frc consts  --     15.4116                13.6752                41.1311
 IR Inten    --    333.5250                25.4303                17.0477

                     46                     47                     48
                      A                      A                      A
 Frequencies --   3029.3187              3098.1809              3167.5342
 Red. masses --      1.0344                 1.1071                 1.1009
 Frc consts  --      5.5927                 6.2610                 6.5081
 IR Inten    --     44.3823                30.4396                14.5782

                     49                     50                     51
                      A                      A                      A
 Frequencies --   3218.7233              3238.5742              3258.9157
 Red. masses --      1.0900                 1.0934                 1.0914
 Frc consts  --      6.6536                 6.7565                 6.8296
 IR Inten    --      1.3357                 3.3972                11.1593

 - Thermochemistry -
 -------------------
 Temperature   298.150 Kelvin.  Pressure   1.00000 Atm.
 Atom     1 has atomic number  6 and mass  12.00000

 Molecular mass:   178.03784 amu.
 Principal axes and moments of inertia in atomic units:
                           1         2         3
     Eigenvalues --  1286.918853219.627604494.99730
           X            0.99992  -0.01273   0.00000
           Y            0.01273   0.99992  -0.00000
           Z           -0.00000   0.00000   1.00000
 This molecule is an asymmetric top.
 Rotational symmetry number  1.
 Warning -- assumption of classical behavior for rotation
           may cause significant error
 Rotational temperatures (Kelvin)      0.06730     0.02690     0.01927
 Rotational constants (GHZ):           1.40237     0.56054     0.40150
 Zero-point vibrational energy     352281.6 (Joules/Mol)
                                   84.19732 (Kcal/Mol)
 Warning -- explicit consideration of  16 degrees of freedom as
           vibrations may cause significant error
 Vibrational temperatures:     30.37   107.97   144.36   226.71   264.16
          (Kelvin)            268.01   317.51   412.63   417.67   509.93
                              554.92   631.04   650.09   713.40   786.25
                              856.39   895.13  1008.49  1010.92  1040.59
                             1099.78  1184.01  1217.56  1320.41  1345.27
                             1397.68  1528.31  1573.67  1690.44  1692.69
                             1744.01  1764.11  1835.17  1904.59  1948.37
                             2006.23  2112.28  2138.91  2167.39  2178.59
                             2223.32  2305.49  2367.28  2418.08  3376.26
                             4358.51  4457.59  4557.37  4631.02  4659.58
                             4688.85

 Zero-point correction=                           0.134177 (Hartree/Particle)
 Thermal correction to Energy=                    0.145456
 Thermal correction to Enthalpy=                  0.146400
 Thermal correction to Gibbs Free Energy=         0.095571
 Sum of electronic and zero-point Energies=           -643.380065
 Sum of electronic and thermal Energies=              -643.368786
 Sum of electronic and thermal Enthalpies=            -643.367842
 Sum of electronic and thermal Free Energies=         -643.418671

                     E (Thermal)             CV                S
                      KCal/Mol        Cal/Mol-Kelvin    Cal/Mol-Kelvin
 Total                   91.275             41.065            106.979
 Electronic               0.000              0.000              0.000
 Translational            0.889              2.981             41.437
 Rotational               0.889              2.981             31.299
 Vibrational             89.497             35.104             34.243
 Vibration     1          0.593              1.985              6.527
 Vibration     2          0.599              1.966              4.017
 Vibration     3          0.604              1.949              3.448
 Vibration     4          0.621              1.894              2.579
 Vibration     5          0.631              1.862              2.291
 Vibration     6          0.632              1.859              2.265
 Vibration     7          0.647              1.810              1.953
 Vibration     8          0.684              1.698              1.493
 Vibration     9          0.686              1.692              1.472
 Vibration    10          0.730              1.566              1.146
 Vibration    11          0.754              1.501              1.017
 Vibration    12          0.799              1.386              0.831
 Vibration    13          0.811              1.357              0.790
 Vibration    14          0.851              1.259              0.669
 Vibration    15          0.902              1.147              0.552
 Vibration    16          0.953              1.042              0.458

 Optimization completed.
    -- Stationary point found.
 Normal termination of Gaussian 09 at Fri Aug 20 16:02:30 2021.
