 Gaussian 09, Revision E.01,
 Gaussian 09:  ES64L-G09RevE.01 30-Nov-2015

 -------------------------
 #P OPT Freq B3LYP/6-31G**
 -------------------------

 ------
 ACOWIY
 ------
 Symbolic Z-matrix:
 Charge =  0 Multiplicity = 1

 SCF Done:  E(RB3LYP) =  -582.152792053     A.U. after   16 cycles
 SCF Done:  E(RB3LYP) =  -582.216313005     A.U. after   14 cycles
 SCF Done:  E(RB3LYP) =  -582.227473564     A.U. after   15 cycles
 SCF Done:  E(RB3LYP) =  -582.212628589     A.U. after   17 cycles
 SCF Done:  E(RB3LYP) =  -582.228420076     A.U. after   13 cycles
 SCF Done:  E(RB3LYP) =  -582.228696703     A.U. after   15 cycles
 SCF Done:  E(RB3LYP) =  -582.217662614     A.U. after   17 cycles
 SCF Done:  E(RB3LYP) =  -582.228996915     A.U. after   11 cycles
 SCF Done:  E(RB3LYP) =  -582.229572772     A.U. after   14 cycles
 SCF Done:  E(RB3LYP) =  -582.229584993     A.U. after   11 cycles
 SCF Done:  E(RB3LYP) =  -582.229747162     A.U. after   14 cycles
 SCF Done:  E(RB3LYP) =  -582.229726809     A.U. after   14 cycles
 SCF Done:  E(RB3LYP) =  -582.229724140     A.U. after   13 cycles
 SCF Done:  E(RB3LYP) =  -582.229757598     A.U. after   14 cycles
 SCF Done:  E(RB3LYP) =  -582.229770404     A.U. after   12 cycles
 SCF Done:  E(RB3LYP) =  -582.229770525     A.U. after   10 cycles
 SCF Done:  E(RB3LYP) =  -582.229770038     A.U. after    8 cycles
 SCF Done:  E(RB3LYP) =  -582.229770414     A.U. after    8 cycles
 SCF Done:  E(RB3LYP) =  -582.229770233     A.U. after    7 cycles
 Optimization completed.
    -- Stationary point found.
 Normal termination of Gaussian 09 at Fri Aug 20 15:39:47 2021.

 ----------------------------------------------------------------------
 #P Geom=AllCheck Guess=TCheck SCRF=Check GenChk RB3LYP/6-31G(d,p) Freq
 ----------------------------------------------------------------------

 Structure from the checkpoint file:  "/public/home/users/caep010/.cache/gau_scr/Gau-197851.chk"
 ------
 ACOWIY
 ------
 Charge =  0 Multiplicity = 1

                         Standard orientation:
 ---------------------------------------------------------------------
 Center     Atomic      Atomic             Coordinates (Angstroms)
 Number     Number       Type             X           Y           Z
 ---------------------------------------------------------------------
      1          7           0        1.950037   -1.287713   -0.000014
      2          1           0        2.948211   -1.099922   -0.000008
      3          6           0        1.199480   -0.574492    1.064652
      4          6           0        0.203179   -0.081124   -0.000005
      5          1           0        0.758971   -1.216688    1.830380
      6          6           0        1.199486   -0.574463   -1.064664
      7          1           0        0.758994   -1.216640   -1.830420
      8          1           0        1.719730    0.267900   -1.531563
      9          7           0       -1.142559   -0.777722   -0.000017
     10          8           0       -1.632237   -1.020772   -1.094246
     11          8           0       -1.632176   -1.020948    1.094202
     12          7           0       -0.075792    1.412310    0.000019
     13          8           0       -1.237695    1.786240    0.000081
     14          8           0        0.922070    2.124210   -0.000009
     15          1           0        1.719724    0.267853    1.531588
 ---------------------------------------------------------------------

 SCF Done:  E(RB3LYP) =  -582.229770233     A.U. after    1 cycles

 The electronic state is 1-A.
 Alpha  occ. eigenvalues --  -19.22209 -19.22029 -19.21200 -19.21199 -14.60855
 Alpha  occ. eigenvalues --  -14.59765 -14.35832 -10.32554 -10.26137 -10.26137
 Alpha  occ. eigenvalues --   -1.26827  -1.25101  -1.09530  -1.08510  -0.98396
 Alpha  occ. eigenvalues --   -0.85697  -0.73038  -0.72695  -0.69466  -0.60251
 Alpha  occ. eigenvalues --   -0.58653  -0.56945  -0.56652  -0.54279  -0.53697
 Alpha  occ. eigenvalues --   -0.53385  -0.49738  -0.45143  -0.44766  -0.43027
 Alpha  occ. eigenvalues --   -0.38342  -0.34795  -0.34418  -0.33415  -0.33307
 Alpha  occ. eigenvalues --   -0.32151  -0.31822  -0.26584
 Alpha virt. eigenvalues --   -0.10148  -0.09723   0.03997   0.05068   0.09087
 Alpha virt. eigenvalues --    0.11392   0.13222   0.14112   0.14942   0.16302
 Alpha virt. eigenvalues --    0.18467   0.20302   0.24329   0.25188   0.27072

 Mulliken charges:
               1
     1  N   -0.519900
     2  H    0.256555
     3  C   -0.011223
     4  C    0.205462
     5  H    0.157657
     6  C   -0.011224
     7  H    0.157653
     8  H    0.137707
     9  N    0.440367
    10  O   -0.350553
    11  O   -0.350552
    12  N    0.460720
    13  O   -0.346986
    14  O   -0.363387
    15  H    0.137704
 Sum of Mulliken charges =   0.00000

 Dipole moment (field-independent basis, Debye):
    X=              4.0114    Y=             -0.4863    Z=             -0.0000  Tot=              4.0408
 Quadrupole moment (field-independent basis, Debye-Ang):
   XX=            -56.6532   YY=            -64.8983   ZZ=            -53.7915
   XY=             -1.6660   XZ=              0.0000   YZ=              0.0001

  Exact polarizability:  70.029   1.125  55.945  -0.000  -0.001  60.787
 Approx polarizability: 123.727   7.419  81.603  -0.001  -0.004 115.459

                      1                      2                      3
                      A                      A                      A
 Frequencies --     27.9482                62.5937                81.5035
 Red. masses --     12.4581                 3.1360                14.6286
 Frc consts  --      0.0057                 0.0072                 0.0573
 IR Inten    --      0.4172                 4.9944                 0.0003

                      4                      5                      6
                      A                      A                      A
 Frequencies --    196.3803               253.0013               268.8988
 Red. masses --     12.5404                 2.6238                 6.4963
 Frc consts  --      0.2849                 0.0990                 0.2768
 IR Inten    --      4.2168                 1.7536                 7.3971

                      7                      8                      9
                      A                      A                      A
 Frequencies --    330.7827               395.0722               433.7155
 Red. masses --      2.8034                10.5889                10.3787
 Frc consts  --      0.1807                 0.9738                 1.1503
 IR Inten    --      2.4793                 3.7853                 0.6064

                     10                     11                     12
                      A                      A                      A
 Frequencies --    520.4880               656.6440               676.9001
 Red. masses --      6.0009                 6.3759                 2.0428
 Frc consts  --      0.9578                 1.6198                 0.5515
 IR Inten    --      4.5002                38.2685                58.0572

                     13                     14                     15
                      A                      A                      A
 Frequencies --    710.7667               729.9857               850.2619
 Red. masses --      7.1654                 3.4963                10.4411
 Frc consts  --      2.1328                 1.0977                 4.4474
 IR Inten    --      1.0392                47.0819                12.0760

                     16                     17                     18
                      A                      A                      A
 Frequencies --    873.5559               911.4963               931.6036
 Red. masses --      5.3295                 2.8511                 1.4322
 Frc consts  --      2.3962                 1.3957                 0.7323
 IR Inten    --     36.5996                31.4271                 0.1148

                     19                     20                     21
                      A                      A                      A
 Frequencies --    992.5976              1040.4606              1128.3057
 Red. masses --      2.1303                 3.8487                 1.2678
 Frc consts  --      1.2367                 2.4548                 0.9509
 IR Inten    --      2.8918                11.0206                 7.6971

                     22                     23                     24
                      A                      A                      A
 Frequencies --   1131.9607              1144.9677              1173.5278
 Red. masses --      3.1817                 3.7334                 2.3970
 Frc consts  --      2.4020                 2.8836                 1.9449
 IR Inten    --      1.4127                 0.1608                 1.4226

                     25                     26                     27
                      A                      A                      A
 Frequencies --   1244.9598              1285.7358              1351.8707
 Red. masses --      1.5543                 1.2532                 1.7195
 Frc consts  --      1.4194                 1.2206                 1.8515
 IR Inten    --      4.6283                19.9258                14.5004

                     28                     29                     30
                      A                      A                      A
 Frequencies --   1383.4239              1387.9561              1434.3091
 Red. masses --      1.2702                11.1755                 7.0114
 Frc consts  --      1.4323                12.6844                 8.4985
 IR Inten    --     14.5416               134.7396                57.4277

                     31                     32                     33
                      A                      A                      A
 Frequencies --   1500.9927              1524.6227              1682.4466
 Red. masses --      1.0784                 1.1218                13.6886
 Frc consts  --      1.4314                 1.5364                22.8293
 IR Inten    --      4.9617                17.6713               213.9105

                     34                     35                     36
                      A                      A                      A
 Frequencies --   1685.9226              3066.3199              3072.0033
 Red. masses --     13.9138                 1.0580                 1.0617
 Frc consts  --     23.3009                 5.8608                 5.9032
 IR Inten    --    215.7511                26.6071                 5.0237

                     37                     38                     39
                      A                      A                      A
 Frequencies --   3136.4342              3136.9699              3547.1328
 Red. masses --      1.1085                 1.1065                 1.0766
 Frc consts  --      6.4245                 6.4157                 7.9814
 IR Inten    --      6.6954                 2.3238                 4.0823

 - Thermochemistry -
 -------------------
 Temperature   298.150 Kelvin.  Pressure   1.00000 Atm.
 Atom     1 has atomic number  7 and mass  14.00307

 Molecular mass:   147.02801 amu.
 Principal axes and moments of inertia in atomic units:
                           1         2         3
     Eigenvalues --  1087.127701154.985141692.25812
           X            0.97293  -0.23109  -0.00000
           Y            0.23109   0.97293  -0.00000
           Z            0.00000   0.00000   1.00000
 This molecule is an asymmetric top.
 Rotational symmetry number  1.
 Warning -- assumption of classical behavior for rotation
           may cause significant error
 Rotational temperatures (Kelvin)      0.07967     0.07499     0.05118
 Rotational constants (GHZ):           1.66010     1.56257     1.06647
 Zero-point vibrational energy     274928.9 (Joules/Mol)
                                   65.70958 (Kcal/Mol)
 Warning -- explicit consideration of  10 degrees of freedom as
           vibrations may cause significant error
 Vibrational temperatures:     40.21    90.06   117.27   282.55   364.01
          (Kelvin)            386.88   475.92   568.42   624.02   748.87
                              944.76   973.91  1022.63  1050.29  1223.34
                             1256.85  1311.44  1340.37  1428.12  1496.99
                             1623.38  1628.64  1647.35  1688.44  1791.22
                             1849.88  1945.04  1990.44  1996.96  2063.65
                             2159.59  2193.59  2420.66  2425.66  4411.74
                             4419.92  4512.62  4513.39  5103.53

 Zero-point correction=                           0.104715 (Hartree/Particle)
 Thermal correction to Energy=                    0.113614
 Thermal correction to Enthalpy=                  0.114559
 Thermal correction to Gibbs Free Energy=         0.069050
 Sum of electronic and zero-point Energies=           -582.125055
 Sum of electronic and thermal Energies=              -582.116156
 Sum of electronic and thermal Enthalpies=            -582.115212
 Sum of electronic and thermal Free Energies=         -582.160720

                     E (Thermal)             CV                S
                      KCal/Mol        Cal/Mol-Kelvin    Cal/Mol-Kelvin
 Total                   71.294             31.023             95.780
 Electronic               0.000              0.000              0.000
 Translational            0.889              2.981             40.867
 Rotational               0.889              2.981             29.142
 Vibrational             69.517             25.061             25.771
 Vibration     1          0.593              1.984              5.970
 Vibration     2          0.597              1.972              4.374
 Vibration     3          0.600              1.962              3.854
 Vibration     4          0.636              1.845              2.167
 Vibration     5          0.664              1.758              1.710
 Vibration     6          0.673              1.730              1.603
 Vibration     7          0.713              1.614              1.256
 Vibration     8          0.762              1.481              0.981
 Vibration     9          0.794              1.397              0.847
 Vibration    10          0.875              1.205              0.609

 Optimization completed.
    -- Stationary point found.
 Normal termination of Gaussian 09 at Fri Aug 20 15:40:06 2021.
