 Gaussian 09, Revision E.01,
 Gaussian 09:  ES64L-G09RevE.01 30-Nov-2015

 -------------------------
 #P OPT Freq B3LYP/6-31G**
 -------------------------

 ------
 TIXQUM
 ------
 Symbolic Z-matrix:
 Charge =  0 Multiplicity = 1

 SCF Done:  E(RB3LYP) =  -531.312406399     A.U. after   15 cycles
 SCF Done:  E(RB3LYP) =  -531.402219032     A.U. after   14 cycles
 SCF Done:  E(RB3LYP) =  -531.436261685     A.U. after   15 cycles
 SCF Done:  E(RB3LYP) =  -531.436646156     A.U. after   14 cycles
 SCF Done:  E(RB3LYP) =  -531.431081730     A.U. after   16 cycles
 SCF Done:  E(RB3LYP) =  -531.437813956     A.U. after   11 cycles
 SCF Done:  E(RB3LYP) =  -531.438466552     A.U. after   13 cycles
 SCF Done:  E(RB3LYP) =  -531.438540225     A.U. after   11 cycles
 SCF Done:  E(RB3LYP) =  -531.438818234     A.U. after   13 cycles
 SCF Done:  E(RB3LYP) =  -531.438967216     A.U. after   13 cycles
 SCF Done:  E(RB3LYP) =  -531.439370940     A.U. after    9 cycles
 SCF Done:  E(RB3LYP) =  -531.438201465     A.U. after   14 cycles
 SCF Done:  E(RB3LYP) =  -531.439509095     A.U. after   10 cycles
 SCF Done:  E(RB3LYP) =  -531.439564724     A.U. after   12 cycles
 SCF Done:  E(RB3LYP) =  -531.439592621     A.U. after   10 cycles
 SCF Done:  E(RB3LYP) =  -531.439606839     A.U. after   12 cycles
 SCF Done:  E(RB3LYP) =  -531.439608436     A.U. after    9 cycles
 SCF Done:  E(RB3LYP) =  -531.439609144     A.U. after    9 cycles
 SCF Done:  E(RB3LYP) =  -531.439609228     A.U. after    8 cycles
 Optimization completed.
    -- Stationary point found.
 Normal termination of Gaussian 09 at Fri Aug 20 15:47:18 2021.

 ----------------------------------------------------------------------
 #P Geom=AllCheck Guess=TCheck SCRF=Check GenChk RB3LYP/6-31G(d,p) Freq
 ----------------------------------------------------------------------

 Structure from the checkpoint file:  "/public/home/users/caep010/.cache/gau_scr/Gau-68938.chk"
 ------
 TIXQUM
 ------
 Charge =  0 Multiplicity = 1

                         Standard orientation:
 ---------------------------------------------------------------------
 Center     Atomic      Atomic             Coordinates (Angstroms)
 Number     Number       Type             X           Y           Z
 ---------------------------------------------------------------------
      1          6           0       -1.274195    0.783417   -0.002318
      2          7           0       -2.136492    1.874965   -0.067261
      3          6           0       -1.792162   -0.536718    0.001799
      4          6           0       -3.281726   -0.759797   -0.014096
      5          6           0        0.112100    0.979938   -0.003487
      6          1           0        0.540449    1.975047   -0.008479
      7          6           0       -0.899366   -1.611590    0.009875
      8          1           0       -1.301046   -2.620933    0.014282
      9          1           0       -3.048067    1.748224    0.348310
     10          6           0        0.481866   -1.430788    0.007867
     11          1           0        1.174514   -2.261374    0.011679
     12          6           0        0.957987   -0.123866   -0.001383
     13          7           0        2.410361    0.107340   -0.000919
     14          8           0        2.807933    1.273671   -0.001819
     15          8           0        3.148267   -0.878343    0.001275
     16          1           0       -1.725211    2.765028    0.176653
     17          1           0       -3.521285   -1.823891   -0.069747
     18          1           0       -3.748723   -0.259977   -0.871563
     19          1           0       -3.764337   -0.364449    0.890922
 ---------------------------------------------------------------------

 SCF Done:  E(RB3LYP) =  -531.439609228     A.U. after    1 cycles

 The electronic state is 1-A.
 Alpha  occ. eigenvalues --  -19.17160 -19.17153 -14.56257 -14.35964 -10.24851
 Alpha  occ. eigenvalues --  -10.24333 -10.21572 -10.20597 -10.20595 -10.20373
 Alpha  occ. eigenvalues --  -10.20214  -1.21412  -1.04094  -0.93962  -0.86969
 Alpha  occ. eigenvalues --   -0.80890  -0.75024  -0.74040  -0.66206  -0.62805
 Alpha  occ. eigenvalues --   -0.58896  -0.55138  -0.53465  -0.52183  -0.49782
 Alpha  occ. eigenvalues --   -0.48864  -0.47929  -0.45683  -0.44083  -0.43987
 Alpha  occ. eigenvalues --   -0.40808  -0.38656  -0.37662  -0.36659  -0.32975
 Alpha  occ. eigenvalues --   -0.30051  -0.29865  -0.28144  -0.26613  -0.22278
 Alpha virt. eigenvalues --   -0.07904  -0.00735   0.01593   0.06033   0.09104
 Alpha virt. eigenvalues --    0.09946   0.13099   0.13572   0.15013   0.17344
 Alpha virt. eigenvalues --    0.17942   0.18910   0.20378   0.22097   0.24987

 Mulliken charges:
               1
     1  C    0.234931
     2  N   -0.663636
     3  C    0.134393
     4  C   -0.402932
     5  C   -0.122725
     6  H    0.123098
     7  C   -0.145515
     8  H    0.091599
     9  H    0.262730
    10  C   -0.098132
    11  H    0.127715
    12  C    0.237688
    13  N    0.382553
    14  O   -0.404095
    15  O   -0.399070
    16  H    0.265216
    17  H    0.122027
    18  H    0.136440
    19  H    0.117715
 Sum of Mulliken charges =  -0.00000

 Dipole moment (field-independent basis, Debye):
    X=             -5.9631    Y=              0.4516    Z=              0.9645  Tot=              6.0574
 Quadrupole moment (field-independent basis, Debye-Ang):
   XX=            -68.9238   YY=            -56.4503   ZZ=            -64.5617
   XY=             -2.7785   XZ=             -2.6551   YZ=              2.3325

  Exact polarizability: 137.171  -1.958 109.024  -0.638   0.085  39.634
 Approx polarizability: 210.302  -9.137 210.432  -0.292  -1.206  60.711

                      1                      2                      3
                      A                      A                      A
 Frequencies --     59.1369               109.9543               180.1388
 Red. masses --     10.0226                 4.3459                 1.0876
 Frc consts  --      0.0207                 0.0310                 0.0208
 IR Inten    --      0.1031                 0.5119                 2.1569

                      4                      5                      6
                      A                      A                      A
 Frequencies --    210.1779               212.0884               287.3351
 Red. masses --      3.7014                 5.2611                 2.1844
 Frc consts  --      0.0963                 0.1394                 0.1063
 IR Inten    --      0.0939                 1.6111                 8.3555

                      7                      8                      9
                      A                      A                      A
 Frequencies --    310.7269               352.2156               362.6959
 Red. masses --      2.8476                 1.3078                 7.8533
 Frc consts  --      0.1620                 0.0956                 0.6087
 IR Inten    --      1.9796                26.7147                 0.8334

                     10                     11                     12
                      A                      A                      A
 Frequencies --    418.5424               449.8010               544.1989
 Red. masses --      4.6525                 2.9443                 2.4549
 Frc consts  --      0.4802                 0.3510                 0.4284
 IR Inten    --      0.5562                 7.0031               131.9716

                     13                     14                     15
                      A                      A                      A
 Frequencies --    556.5541               561.0895               593.3422
 Red. masses --      3.5124                 3.9817                 2.4157
 Frc consts  --      0.6410                 0.7386                 0.5011
 IR Inten    --     38.4403                 4.2426               134.0936

                     16                     17                     18
                      A                      A                      A
 Frequencies --    652.4145               716.6725               750.8378
 Red. masses --      6.1673                 3.7054                 4.1422
 Frc consts  --      1.5467                 1.1213                 1.3759
 IR Inten    --      3.5896                 4.8174                34.0389

                     19                     20                     21
                      A                      A                      A
 Frequencies --    769.1100               827.3133               834.4948
 Red. masses --      4.2477                 8.7969                 1.4398
 Frc consts  --      1.4804                 3.5475                 0.5908
 IR Inten    --      0.4418                35.0036                 4.0762

                     22                     23                     24
                      A                      A                      A
 Frequencies --    892.2090               960.0341               960.8810
 Red. masses --      1.5501                 1.2931                 3.4795
 Frc consts  --      0.7270                 0.7022                 1.8928
 IR Inten    --     23.0476                 0.2500                13.5805

                     25                     26                     27
                      A                      A                      A
 Frequencies --   1018.5484              1061.6016              1087.0352
 Red. masses --      1.6736                 1.5051                 1.7819
 Frc consts  --      1.0230                 0.9994                 1.2406
 IR Inten    --      7.2988                 2.6649                 3.5156

                     28                     29                     30
                      A                      A                      A
 Frequencies --   1122.4269              1168.4730              1222.7326
 Red. masses --      1.5529                 1.2933                 3.4077
 Frc consts  --      1.1527                 1.0404                 3.0017
 IR Inten    --     35.7222                 4.2025                 0.4863

                     31                     32                     33
                      A                      A                      A
 Frequencies --   1303.0374              1319.8293              1387.7845
 Red. masses --      1.8315                 1.9741                 5.6717
 Frc consts  --      1.8322                 2.0261                 6.4359
 IR Inten    --     23.4112                34.0552                19.7216

                     34                     35                     36
                      A                      A                      A
 Frequencies --   1396.9438              1425.8438              1467.3092
 Red. masses --     12.9439                 1.3154                 2.7710
 Frc consts  --     14.8824                 1.5757                 3.5150
 IR Inten    --    350.2274                 7.8553                19.5636

                     37                     38                     39
                      A                      A                      A
 Frequencies --   1496.0746              1515.8921              1539.9946
 Red. masses --      1.0440                 1.2180                 2.9011
 Frc consts  --      1.3767                 1.6490                 4.0537
 IR Inten    --      7.3845                 5.2019                45.0926

                     40                     41                     42
                      A                      A                      A
 Frequencies --   1616.9115              1646.1505              1664.4304
 Red. masses --      9.5092                 4.4243                 1.8777
 Frc consts  --     14.6477                 7.0637                 3.0648
 IR Inten    --    205.3852                30.8111                96.7985

                     43                     44                     45
                      A                      A                      A
 Frequencies --   1683.8347              3018.9490              3073.5780
 Red. masses --      2.7204                 1.0446                 1.0949
 Frc consts  --      4.5445                 5.6093                 6.0941
 IR Inten    --     44.3240                28.0773                17.3866

                     46                     47                     48
                      A                      A                      A
 Frequencies --   3135.0736              3190.5343              3230.4603
 Red. masses --      1.0985                 1.0902                 1.0909
 Frc consts  --      6.3614                 6.5384                 6.7077
 IR Inten    --     11.0692                13.6358                 2.7348

                     49                     50                     51
                      A                      A                      A
 Frequencies --   3254.8991              3581.0542              3688.4399
 Red. masses --      1.0928                 1.0476                 1.0991
 Frc consts  --      6.8216                 7.9150                 8.8102
 IR Inten    --      1.9918                19.9807                15.6801

 - Thermochemistry -
 -------------------
 Temperature   298.150 Kelvin.  Pressure   1.00000 Atm.
 Atom     1 has atomic number  6 and mass  12.00000

 Molecular mass:   152.05858 amu.
 Principal axes and moments of inertia in atomic units:
                           1         2         3
     Eigenvalues --   732.058392491.857223211.17825
           X            1.00000   0.00120  -0.00181
           Y           -0.00120   0.99999   0.00513
           Z            0.00181  -0.00513   0.99999
 This molecule is an asymmetric top.
 Rotational symmetry number  1.
 Warning -- assumption of classical behavior for rotation
           may cause significant error
 Rotational temperatures (Kelvin)      0.11832     0.03476     0.02697
 Rotational constants (GHZ):           2.46530     0.72426     0.56202
 Zero-point vibrational energy     388127.2 (Joules/Mol)
                                   92.76464 (Kcal/Mol)
 Warning -- explicit consideration of  15 degrees of freedom as
           vibrations may cause significant error
 Vibrational temperatures:     85.08   158.20   259.18   302.40   305.15
          (Kelvin)            413.41   447.07   506.76   521.84   602.19
                              647.16   782.98   800.76   807.28   853.69
                              938.68  1031.13  1080.29  1106.58  1190.32
                             1200.65  1283.69  1381.27  1382.49  1465.46
                             1527.41  1564.00  1614.92  1681.17  1759.24
                             1874.78  1898.94  1996.71  2009.89  2051.47
                             2111.13  2152.51  2181.03  2215.71  2326.37
                             2368.44  2394.74  2422.66  4343.59  4422.19
                             4510.67  4590.46  4647.91  4683.07  5152.33
                             5306.84

 Zero-point correction=                           0.147830 (Hartree/Particle)
 Thermal correction to Energy=                    0.157626
 Thermal correction to Enthalpy=                  0.158570
 Thermal correction to Gibbs Free Energy=         0.112692
 Sum of electronic and zero-point Energies=           -531.291779
 Sum of electronic and thermal Energies=              -531.281983
 Sum of electronic and thermal Enthalpies=            -531.281039
 Sum of electronic and thermal Free Energies=         -531.326917

                     E (Thermal)             CV                S
                      KCal/Mol        Cal/Mol-Kelvin    Cal/Mol-Kelvin
 Total                   98.912             37.521             96.560
 Electronic               0.000              0.000              0.000
 Translational            0.889              2.981             40.967
 Rotational               0.889              2.981             30.150
 Vibrational             97.134             31.559             25.442
 Vibration     1          0.597              1.974              4.486
 Vibration     2          0.606              1.941              3.270
 Vibration     3          0.629              1.867              2.327
 Vibration     4          0.642              1.825              2.042
 Vibration     5          0.643              1.822              2.026
 Vibration     6          0.685              1.697              1.490
 Vibration     7          0.700              1.653              1.358
 Vibration     8          0.729              1.571              1.156
 Vibration     9          0.737              1.549              1.111
 Vibration    10          0.781              1.430              0.897
 Vibration    11          0.809              1.361              0.796
 Vibration    12          0.899              1.152              0.556
 Vibration    13          0.912              1.125              0.531
 Vibration    14          0.917              1.115              0.522
 Vibration    15          0.951              1.046              0.461

 Optimization completed.
    -- Stationary point found.
 Normal termination of Gaussian 09 at Fri Aug 20 15:47:43 2021.
