 Gaussian 09, Revision E.01,
 Gaussian 09:  ES64L-G09RevE.01 30-Nov-2015

 -------------------------
 #P OPT Freq B3LYP/6-31G**
 -------------------------

 ------
 AFEXEP
 ------
 Symbolic Z-matrix:
 Charge =  0 Multiplicity = 1

 SCF Done:  E(RB3LYP) =  -683.915838528     A.U. after   16 cycles
 SCF Done:  E(RB3LYP) =  -684.028921602     A.U. after   13 cycles
 SCF Done:  E(RB3LYP) =  -684.098397417     A.U. after   15 cycles
 SCF Done:  E(RB3LYP) =  -684.099564886     A.U. after   13 cycles
 SCF Done:  E(RB3LYP) =  -684.091102494     A.U. after   16 cycles
 SCF Done:  E(RB3LYP) =  -684.099887617     A.U. after   11 cycles
 SCF Done:  E(RB3LYP) =  -684.100185255     A.U. after   13 cycles
 SCF Done:  E(RB3LYP) =  -684.100285531     A.U. after   12 cycles
 SCF Done:  E(RB3LYP) =  -684.100315969     A.U. after   11 cycles
 SCF Done:  E(RB3LYP) =  -684.100335040     A.U. after   11 cycles
 SCF Done:  E(RB3LYP) =  -684.100346270     A.U. after    9 cycles
 SCF Done:  E(RB3LYP) =  -684.100346954     A.U. after    9 cycles
 SCF Done:  E(RB3LYP) =  -684.100348023     A.U. after    9 cycles
 SCF Done:  E(RB3LYP) =  -684.100350060     A.U. after    9 cycles
 SCF Done:  E(RB3LYP) =  -684.100352625     A.U. after   11 cycles
 SCF Done:  E(RB3LYP) =  -684.100353447     A.U. after   10 cycles
 SCF Done:  E(RB3LYP) =  -684.100353602     A.U. after    8 cycles
 SCF Done:  E(RB3LYP) =  -684.100353642     A.U. after    8 cycles
 SCF Done:  E(RB3LYP) =  -684.100353665     A.U. after    8 cycles
 Optimization completed on the basis of negligible forces.
    -- Stationary point found.
 Normal termination of Gaussian 09 at Fri Aug 20 15:44:42 2021.

 ----------------------------------------------------------------------
 #P Geom=AllCheck Guess=TCheck SCRF=Check GenChk RB3LYP/6-31G(d,p) Freq
 ----------------------------------------------------------------------

 Structure from the checkpoint file:  "/public/home/users/caep010/.cache/gau_scr/Gau-223810.chk"
 ------
 AFEXEP
 ------
 Charge =  0 Multiplicity = 1

                         Standard orientation:
 ---------------------------------------------------------------------
 Center     Atomic      Atomic             Coordinates (Angstroms)
 Number     Number       Type             X           Y           Z
 ---------------------------------------------------------------------
      1          7           0        1.758462    0.744243    0.000043
      2          6           0        0.390210    0.444052    0.000111
      3          6           0       -0.508552    1.528790    0.000618
      4          6           0        2.845873   -0.118423   -0.001901
      5          1           0        1.980066    1.730407    0.000418
      6          8           0        2.743018   -1.333620   -0.002241
      7          6           0       -1.877680    1.315931    0.000701
      8          6           0       -2.355357    0.005640    0.000265
      9          1           0       -2.579844    2.139781    0.001065
     10          6           0       -1.484363   -1.082500   -0.000202
     11          1           0       -1.891832   -2.085672   -0.000511
     12          7           0       -3.800057   -0.226854    0.000306
     13          8           0       -4.194716   -1.394014   -0.000163
     14          8           0       -4.539762    0.759675    0.000797
     15          6           0       -0.111002   -0.871419   -0.000255
     16          1           0        0.578809   -1.702280   -0.000592
     17          1           0       -0.125879    2.546178    0.000897
     18          6           0        4.192016    0.604786   -0.004742
     19          1           0        4.228995    1.273229    0.866372
     20          6           0        5.373373   -0.361956    0.006086
     21          1           0        6.317119    0.190200    0.000025
     22          1           0        4.232294    1.257077   -0.887947
     23          1           0        5.348167   -0.998428    0.893673
     24          1           0        5.347849   -1.017952   -0.867074
 ---------------------------------------------------------------------

 SCF Done:  E(RB3LYP) =  -684.100353665     A.U. after    1 cycles

 The electronic state is 1-A.
 Alpha  occ. eigenvalues --  -19.17315 -19.17297 -19.14414 -14.56508 -14.40070
 Alpha  occ. eigenvalues --  -10.31576 -10.26832 -10.24663 -10.22206 -10.22016
 Alpha  occ. eigenvalues --  -10.21855 -10.21847 -10.20842 -10.19115  -1.21585
 Alpha  occ. eigenvalues --   -1.06262  -1.04265  -0.96721  -0.88511  -0.81224
 Alpha  occ. eigenvalues --   -0.78666  -0.77571  -0.71455  -0.66073  -0.64884
 Alpha  occ. eigenvalues --   -0.60623  -0.58763  -0.56271  -0.54288  -0.52445
 Alpha  occ. eigenvalues --   -0.51192  -0.50219  -0.48746  -0.46679  -0.46532
 Alpha  occ. eigenvalues --   -0.44895  -0.43937  -0.43221  -0.42347  -0.39115
 Alpha  occ. eigenvalues --   -0.38939  -0.38041  -0.37267  -0.36290  -0.33248
 Alpha  occ. eigenvalues --   -0.30276  -0.30148  -0.28367  -0.27824  -0.27455
 Alpha  occ. eigenvalues --   -0.24698
 Alpha virt. eigenvalues --   -0.08346  -0.02627  -0.01415   0.03122   0.04942
 Alpha virt. eigenvalues --    0.08624   0.09106   0.13522   0.13596   0.14894
 Alpha virt. eigenvalues --    0.15209   0.15456   0.15810   0.18498   0.18657

 Mulliken charges:
               1
     1  N   -0.635664
     2  C    0.341920
     3  C   -0.147676
     4  C    0.602272
     5  H    0.265936
     6  O   -0.483328
     7  C   -0.092545
     8  C    0.249858
     9  H    0.138135
    10  C   -0.108200
    11  H    0.140988
    12  N    0.380327
    13  O   -0.402608
    14  O   -0.405378
    15  C   -0.105540
    16  H    0.150560
    17  H    0.092502
    18  C   -0.291696
    19  H    0.126667
    20  C   -0.304329
    21  H    0.102185
    22  H    0.127562
    23  H    0.128729
    24  H    0.129322
 Sum of Mulliken charges =  -0.00000

 Dipole moment (field-independent basis, Debye):
    X=              5.9622    Y=              3.8951    Z=             -0.0027  Tot=              7.1217
 Quadrupole moment (field-independent basis, Debye-Ang):
   XX=            -97.0218   YY=            -77.1552   ZZ=            -80.3452
   XY=              6.5481   XZ=             -0.0118   YZ=             -0.0053

  Exact polarizability: 201.578   1.393 120.420  -0.027   0.010  53.500
 Approx polarizability: 274.991  -1.920 237.703  -0.057   0.057  82.070

                      1                      2                      3
                      A                      A                      A
 Frequencies --     11.8616                43.6299                53.7963
 Red. masses --      1.8920                 5.3883                 6.8757
 Frc consts  --      0.0002                 0.0060                 0.0117
 IR Inten    --      0.0800                 0.6708                 4.3545

                      4                      5                      6
                      A                      A                      A
 Frequencies --     76.0666               104.1455               134.0480
 Red. masses --      5.8682                 4.9936                 4.9341
 Frc consts  --      0.0200                 0.0319                 0.0522
 IR Inten    --      1.0274                 1.1434                 1.0994

                      7                      8                      9
                      A                      A                      A
 Frequencies --    206.1296               216.1835               254.1797
 Red. masses --      1.2051                 5.8047                 7.3381
 Frc consts  --      0.0302                 0.1598                 0.2793
 IR Inten    --      1.4871                 2.1067                 0.5691

                     10                     11                     12
                      A                      A                      A
 Frequencies --    307.8666               313.5377               372.5855
 Red. masses --      4.3329                 5.5756                 6.2702
 Frc consts  --      0.2420                 0.3229                 0.5128
 IR Inten    --     14.3723                 1.2534                 4.4919

                     13                     14                     15
                      A                      A                      A
 Frequencies --    425.3526               445.2404               507.1942
 Red. masses --      3.1974                 6.7301                 2.6424
 Frc consts  --      0.3408                 0.7861                 0.4005
 IR Inten    --      0.0134                 3.3352                14.9944

                     16                     17                     18
                      A                      A                      A
 Frequencies --    536.5036               548.1930               597.2652
 Red. masses --      7.4414                 1.8678                 1.3717
 Frc consts  --      1.2620                 0.3307                 0.2883
 IR Inten    --      1.5280                28.4848                27.9698

                     19                     20                     21
                      A                      A                      A
 Frequencies --    634.2494               658.1334               697.8655
 Red. masses --      5.9736                 5.9298                 4.6569
 Frc consts  --      1.4158                 1.5133                 1.3362
 IR Inten    --      0.2485                 0.4596                 7.4219

                     22                     23                     24
                      A                      A                      A
 Frequencies --    702.6692               759.0967               818.0563
 Red. masses --      3.8523                 6.2270                 1.3917
 Frc consts  --      1.1207                 2.1141                 0.5487
 IR Inten    --     12.2958                21.7671                 9.8552

                     25                     26                     27
                      A                      A                      A
 Frequencies --    830.1047               836.0838               877.6179
 Red. masses --      6.5128                 1.3633                 8.2580
 Frc consts  --      2.6441                 0.5615                 3.7475
 IR Inten    --     16.4432                 7.6965                26.8296

                     28                     29                     30
                      A                      A                      A
 Frequencies --    882.8040               928.9565               973.6196
 Red. masses --      1.5531                 3.9392                 1.3136
 Frc consts  --      0.7131                 2.0028                 0.7337
 IR Inten    --     32.0998                12.4526                 0.7369

                     31                     32                     33
                      A                      A                      A
 Frequencies --   1006.4351              1022.0007              1027.8981
 Red. masses --      1.2918                 1.9297                 2.7989
 Frc consts  --      0.7709                 1.1875                 1.7424
 IR Inten    --      0.0742                 6.2371                 0.5377

                     34                     35                     36
                      A                      A                      A
 Frequencies --   1093.4405              1100.3396              1133.5305
 Red. masses --      2.3384                 1.6237                 2.3329
 Frc consts  --      1.6472                 1.1583                 1.7661
 IR Inten    --     18.0594                 0.0014               100.0505

                     37                     38                     39
                      A                      A                      A
 Frequencies --   1141.9487              1187.5923              1211.0347
 Red. masses --      1.3234                 2.4867                 1.3604
 Frc consts  --      1.0168                 2.0664                 1.1756
 IR Inten    --     17.9007               258.9537                 1.7570

                     40                     41                     42
                      A                      A                      A
 Frequencies --   1283.7905              1292.8063              1325.8506
 Red. masses --      2.4344                 1.1756                 1.4312
 Frc consts  --      2.3639                 1.1576                 1.4823
 IR Inten    --    111.4624                 0.1225                71.0678

                     43                     44                     45
                      A                      A                      A
 Frequencies --   1368.6239              1384.6745              1395.2675
 Red. masses --      2.9244                 2.9114                 7.9542
 Frc consts  --      3.2274                 3.2889                 9.1235
 IR Inten    --     81.6888               336.4144               264.7238

                     46                     47                     48
                      A                      A                      A
 Frequencies --   1431.9766              1447.3764              1480.4696
 Red. masses --      1.2384                 3.1439                 1.0989
 Frc consts  --      1.4962                 3.8805                 1.4190
 IR Inten    --      4.5435                64.2248                 3.2702

                     49                     50                     51
                      A                      A                      A
 Frequencies --   1506.6627              1513.1542              1536.9534
 Red. masses --      1.0373                 1.0508                 2.3234
 Frc consts  --      1.3874                 1.4176                 3.2336
 IR Inten    --      5.9255                10.8361                14.9269

                     52                     53                     54
                      A                      A                      A
 Frequencies --   1558.8487              1617.6502              1655.2882
 Red. masses --      2.3592                 6.4203                 5.7886
 Frc consts  --      3.3778                 9.8986                 9.3448
 IR Inten    --    499.6422               112.8445               132.5283

                     55                     56                     57
                      A                      A                      A
 Frequencies --   1666.4412              1800.4089              3028.1997
 Red. masses --      7.9038                 9.0203                 1.0604
 Frc consts  --     12.9320                17.2271                 5.7293
 IR Inten    --    122.2031               151.7758                18.4266

                     58                     59                     60
                      A                      A                      A
 Frequencies --   3061.7293              3066.1934              3139.8420
 Red. masses --      1.1016                 1.0359                 1.1029
 Frc consts  --      6.0844                 5.7381                 6.4060
 IR Inten    --     12.0238                23.6496                20.7734

                     61                     62                     63
                      A                      A                      A
 Frequencies --   3147.8850              3180.8239              3243.8101
 Red. masses --      1.1032                 1.0904                 1.0910
 Frc consts  --      6.4407                 6.5000                 6.7638
 IR Inten    --     18.1134                12.3199                 1.4910

                     64                     65                     66
                      A                      A                      A
 Frequencies --   3247.0405              3274.8845              3616.1656
 Red. masses --      1.0928                 1.0929                 1.0767
 Frc consts  --      6.7882                 6.9059                 8.2952
 IR Inten    --      1.4385                 6.7520                21.4999

 - Thermochemistry -
 -------------------
 Temperature   298.150 Kelvin.  Pressure   1.00000 Atm.
 Atom     1 has atomic number  7 and mass  14.00307

 Molecular mass:   194.06914 amu.
 Principal axes and moments of inertia in atomic units:
                           1         2         3
     Eigenvalues --   669.835966859.258417506.84980
           X            1.00000   0.00118   0.00002
           Y           -0.00118   1.00000  -0.00008
           Z           -0.00002   0.00008   1.00000
 This molecule is an asymmetric top.
 Rotational symmetry number  1.
 Warning -- assumption of classical behavior for rotation
           may cause significant error
 Rotational temperatures (Kelvin)      0.12931     0.01263     0.01154
 Rotational constants (GHZ):           2.69430     0.26311     0.24041
 Zero-point vibrational energy     490170.3 (Joules/Mol)
                                  117.15351 (Kcal/Mol)
 Warning -- explicit consideration of  18 degrees of freedom as
           vibrations may cause significant error
 Vibrational temperatures:     17.07    62.77    77.40   109.44   149.84
          (Kelvin)            192.86   296.57   311.04   365.71   442.95
                              451.11   536.07   611.99   640.60   729.74
                              771.91   788.73   859.33   912.54   946.91
                             1004.07  1010.98  1092.17  1177.00  1194.33
                             1202.94  1262.69  1270.16  1336.56  1400.82
                             1448.03  1470.43  1478.91  1573.22  1583.14
                             1630.90  1643.01  1708.68  1742.41  1847.09
                             1860.06  1907.60  1969.14  1992.24  2007.48
                             2060.29  2082.45  2130.06  2167.75  2177.09
                             2211.33  2242.83  2327.43  2381.59  2397.63
                             2590.38  4356.90  4405.14  4411.56  4517.53
                             4529.10  4576.49  4667.11  4671.76  4711.82
                             5202.85

 Zero-point correction=                           0.186696 (Hartree/Particle)
 Thermal correction to Energy=                    0.199681
 Thermal correction to Enthalpy=                  0.200625
 Thermal correction to Gibbs Free Energy=         0.144433
 Sum of electronic and zero-point Energies=           -683.913658
 Sum of electronic and thermal Energies=              -683.900672
 Sum of electronic and thermal Enthalpies=            -683.899728
 Sum of electronic and thermal Free Energies=         -683.955921

                     E (Thermal)             CV                S
                      KCal/Mol        Cal/Mol-Kelvin    Cal/Mol-Kelvin
 Total                  125.302             47.358            118.267
 Electronic               0.000              0.000              0.000
 Translational            0.889              2.981             41.694
 Rotational               0.889              2.981             31.912
 Vibrational            123.524             41.396             44.660
 Vibration     1          0.593              1.987              7.672
 Vibration     2          0.595              1.980              5.087
 Vibration     3          0.596              1.976              4.673
 Vibration     4          0.599              1.965              3.990
 Vibration     5          0.605              1.946              3.375
 Vibration     6          0.613              1.919              2.887
 Vibration     7          0.641              1.831              2.078
 Vibration     8          0.645              1.816              1.991
 Vibration     9          0.665              1.756              1.701
 Vibration    10          0.698              1.659              1.374
 Vibration    11          0.701              1.648              1.344
 Vibration    12          0.744              1.528              1.069
 Vibration    13          0.787              1.415              0.874
 Vibration    14          0.805              1.371              0.810
 Vibration    15          0.862              1.234              0.640
 Vibration    16          0.892              1.169              0.573
 Vibration    17          0.903              1.144              0.548
 Vibration    18          0.955              1.038              0.454

 Optimization completed on the basis of negligible forces.
    -- Stationary point found.
 Normal termination of Gaussian 09 at Fri Aug 20 15:45:22 2021.
