 Gaussian 09, Revision E.01,
 Gaussian 09:  ES64L-G09RevE.01 30-Nov-2015

 -------------------------
 #P OPT Freq B3LYP/6-31G**
 -------------------------

 --------
 EWEVIM02
 --------
 Symbolic Z-matrix:
 Charge =  0 Multiplicity = 1

 SCF Done:  E(RB3LYP) =  -680.598558808     A.U. after   16 cycles
 SCF Done:  E(RB3LYP) =  -680.676655293     A.U. after   14 cycles
 SCF Done:  E(RB3LYP) =  -680.696815538     A.U. after   16 cycles
 SCF Done:  E(RB3LYP) =  -680.682092462     A.U. after   17 cycles
 SCF Done:  E(RB3LYP) =  -680.699260552     A.U. after   13 cycles
 SCF Done:  E(RB3LYP) =  -680.699703704     A.U. after   13 cycles
 SCF Done:  E(RB3LYP) =  -680.699786909     A.U. after   13 cycles
 SCF Done:  E(RB3LYP) =  -680.699783237     A.U. after   12 cycles
 SCF Done:  E(RB3LYP) =  -680.699828433     A.U. after   11 cycles
 SCF Done:  E(RB3LYP) =  -680.699829545     A.U. after   10 cycles
 SCF Done:  E(RB3LYP) =  -680.699829782     A.U. after   10 cycles
 Optimization completed.
    -- Stationary point found.
 Normal termination of Gaussian 09 at Fri Aug 20 15:39:19 2021.

 ----------------------------------------------------------------------
 #P Geom=AllCheck Guess=TCheck SCRF=Check GenChk RB3LYP/6-31G(d,p) Freq
 ----------------------------------------------------------------------

 Structure from the checkpoint file:  "/public/home/users/caep010/.cache/gau_scr/Gau-53445.chk"
 --------
 EWEVIM02
 --------
 Charge =  0 Multiplicity = 1

                         Standard orientation:
 ---------------------------------------------------------------------
 Center     Atomic      Atomic             Coordinates (Angstroms)
 Number     Number       Type             X           Y           Z
 ---------------------------------------------------------------------
      1          8           0        3.202069   -1.556848   -0.001786
      2          1           0        4.169210   -1.464996    0.004709
      3          6           0        2.713476   -0.294412    0.002775
      4          8           0        3.472430    0.668833    0.012773
      5          6           0        1.242186   -0.227438   -0.003857
      6          6           0        0.478081   -1.409673   -0.003934
      7          1           0        1.002089   -2.357572   -0.003637
      8          6           0        0.585869    1.042304   -0.004851
      9          6           0       -0.828427    1.055207   -0.001830
     10          1           0       -1.374075    1.990765   -0.001708
     11          7           0        1.271311    2.212551   -0.015901
     12          1           0        2.282038    2.180371    0.013711
     13          1           0        0.777914    3.087728    0.028063
     14          6           0       -1.525777   -0.135928   -0.000836
     15          7           0       -3.003655   -0.074956    0.002282
     16          8           0       -3.532896    1.035702    0.005185
     17          6           0       -0.905761   -1.389508   -0.002732
     18          1           0       -1.500377   -2.292066   -0.002318
     19          8           0       -3.615137   -1.141525    0.002340
 ---------------------------------------------------------------------

 SCF Done:  E(RB3LYP) =  -680.699829782     A.U. after    1 cycles

 The electronic state is 1-A.
 Alpha  occ. eigenvalues --  -19.21084 -19.18463 -19.18416 -19.15699 -14.57466
 Alpha  occ. eigenvalues --  -14.36382 -10.33996 -10.27069 -10.26010 -10.22416
 Alpha  occ. eigenvalues --  -10.21982 -10.21736 -10.20872  -1.22722  -1.12181
 Alpha  occ. eigenvalues --   -1.05456  -1.02900  -0.94929  -0.88024  -0.81442
 Alpha  occ. eigenvalues --   -0.76003  -0.73027  -0.65300  -0.63302  -0.60488
 Alpha  occ. eigenvalues --   -0.56429  -0.54788  -0.53396  -0.53220  -0.51393
 Alpha  occ. eigenvalues --   -0.49925  -0.49781  -0.46591  -0.46063  -0.44925
 Alpha  occ. eigenvalues --   -0.43358  -0.40698  -0.40554  -0.38245  -0.34275
 Alpha  occ. eigenvalues --   -0.33219  -0.31232  -0.31012  -0.29612  -0.29348
 Alpha  occ. eigenvalues --   -0.28555  -0.22760
 Alpha virt. eigenvalues --   -0.09868  -0.03587  -0.00945   0.05105   0.06552
 Alpha virt. eigenvalues --    0.07734   0.09712   0.13603   0.16219   0.16537
 Alpha virt. eigenvalues --    0.17925   0.18794   0.22934   0.23390   0.24726

 Mulliken charges:
               1
     1  O   -0.497926
     2  H    0.329442
     3  C    0.580970
     4  O   -0.516569
     5  C    0.026320
     6  C   -0.125017
     7  H    0.128719
     8  C    0.307472
     9  C   -0.139268
    10  H    0.130160
    11  N   -0.681961
    12  H    0.308363
    13  H    0.271683
    14  C    0.249748
    15  N    0.389636
    16  O   -0.396172
    17  C   -0.110653
    18  H    0.132365
    19  O   -0.387313
 Sum of Mulliken charges =  -0.00000

 Dipole moment (field-independent basis, Debye):
    X=              4.0794    Y=              0.5903    Z=              0.0943  Tot=              4.1229
 Quadrupole moment (field-independent basis, Debye-Ang):
   XX=            -85.0817   YY=            -63.4701   ZZ=            -73.1161
   XY=             -4.2356   XZ=              0.1485   YZ=              0.2816

  Exact polarizability: 150.535   1.908 119.834  -0.014   0.034  35.817
 Approx polarizability: 229.864  11.598 243.604  -0.094  -0.076  56.209

                      1                      2                      3
                      A                      A                      A
 Frequencies --     47.5567                57.7806                80.8719
 Red. masses --     13.9754                 8.1423                 6.9958
 Frc consts  --      0.0186                 0.0160                 0.0270
 IR Inten    --      2.1173                13.5789                 0.8597

                      4                      5                      6
                      A                      A                      A
 Frequencies --    155.4440               178.5002               229.3077
 Red. masses --      2.5630                 9.1043                 1.5694
 Frc consts  --      0.0365                 0.1709                 0.0486
 IR Inten    --    107.9705                 1.6811                82.4956

                      7                      8                      9
                      A                      A                      A
 Frequencies --    270.0587               277.9265               313.2747
 Red. masses --      5.8044                 6.3908                10.7948
 Frc consts  --      0.2494                 0.2908                 0.6242
 IR Inten    --      2.5677                 1.7463                 0.4142

                     10                     11                     12
                      A                      A                      A
 Frequencies --    385.8138               438.0963               470.6302
 Red. masses --      4.4769                 3.1276                 9.6012
 Frc consts  --      0.3926                 0.3537                 1.2530
 IR Inten    --     10.5251                 5.4315                 4.8273

                     13                     14                     15
                      A                      A                      A
 Frequencies --    509.4313               572.5452               574.9199
 Red. masses --      7.1578                 5.2062                 4.9383
 Frc consts  --      1.0945                 1.0055                 0.9617
 IR Inten    --     10.5475                 1.0559                 5.2935

                     16                     17                     18
                      A                      A                      A
 Frequencies --    586.3413               594.6734               625.2502
 Red. masses --      5.4583                 1.2683                 1.0350
 Frc consts  --      1.1056                 0.2643                 0.2384
 IR Inten    --      2.2971                84.6538                22.9995

                     19                     20                     21
                      A                      A                      A
 Frequencies --    683.2916               701.9819               748.2729
 Red. masses --      5.5358                 3.7023                 3.3800
 Frc consts  --      1.5228                 1.0749                 1.1150
 IR Inten    --     26.2086                27.1591                46.2653

                     22                     23                     24
                      A                      A                      A
 Frequencies --    756.9075               783.5300               830.3714
 Red. masses --      4.2391                 4.5112                10.9691
 Frc consts  --      1.4309                 1.6317                 4.4562
 IR Inten    --     32.1735                18.9422                63.9178

                     25                     26                     27
                      A                      A                      A
 Frequencies --    839.7800               893.8676               973.5061
 Red. masses --      1.8140                 1.5875                 4.8957
 Frc consts  --      0.7537                 0.7473                 2.7336
 IR Inten    --      0.2480                21.0564                11.1602

                     28                     29                     30
                      A                      A                      A
 Frequencies --    976.4509              1065.7751              1106.8350
 Red. masses --      1.2993                 2.2213                 3.1279
 Frc consts  --      0.7299                 1.4866                 2.2577
 IR Inten    --      0.0062                 5.6582               103.6184

                     31                     32                     33
                      A                      A                      A
 Frequencies --   1121.0324              1173.3304              1203.8457
 Red. masses --      1.6962                 1.3765                 1.8946
 Frc consts  --      1.2559                 1.1165                 1.6178
 IR Inten    --     20.2725                36.4424               385.2146

                     34                     35                     36
                      A                      A                      A
 Frequencies --   1309.8602              1328.3632              1377.6018
 Red. masses --      1.3606                 3.1351                 3.5978
 Frc consts  --      1.3754                 3.2593                 4.0229
 IR Inten    --      5.3715                11.6400               162.0386

                     37                     38                     39
                      A                      A                      A
 Frequencies --   1399.0767              1419.5564              1486.1513
 Red. masses --     12.5890                 4.9029                 3.7646
 Frc consts  --     14.5186                 5.8211                 4.8988
 IR Inten    --    297.8742                21.9778                 8.3001

                     40                     41                     42
                      A                      A                      A
 Frequencies --   1524.8413              1601.3066              1630.5615
 Red. masses --      2.4612                 4.0009                 2.1660
 Frc consts  --      3.3717                 6.0445                 3.3929
 IR Inten    --     16.9404                60.2650               239.6910

                     43                     44                     45
                      A                      A                      A
 Frequencies --   1648.8257              1687.2052              1776.5546
 Red. masses --      7.4799                 5.2096                 7.1562
 Frc consts  --     11.9811                 8.7375                13.3074
 IR Inten    --    311.4518                38.6707               299.4369

                     46                     47                     48
                      A                      A                      A
 Frequencies --   3233.4291              3234.7947              3262.6785
 Red. masses --      1.0902                 1.0908                 1.0937
 Frc consts  --      6.7153                 6.7249                 6.8596
 IR Inten    --      2.1949                 2.0135                 3.1331

                     49                     50                     51
                      A                      A                      A
 Frequencies --   3554.7504              3731.7250              3766.6393
 Red. masses --      1.0503                 1.1006                 1.0644
 Frc consts  --      7.8198                 9.0303                 8.8977
 IR Inten    --    129.8326                77.4573                97.1888

 - Thermochemistry -
 -------------------
 Temperature   298.150 Kelvin.  Pressure   1.00000 Atm.
 Atom     1 has atomic number  8 and mass  15.99491

 Molecular mass:   182.03276 amu.
 Principal axes and moments of inertia in atomic units:
                           1         2         3
     Eigenvalues --   925.988223937.715254863.64186
           X            1.00000  -0.00044   0.00007
           Y            0.00044   1.00000   0.00046
           Z           -0.00007  -0.00046   1.00000
 This molecule is an asymmetric top.
 Rotational symmetry number  1.
 Warning -- assumption of classical behavior for rotation
           may cause significant error
 Rotational temperatures (Kelvin)      0.09354     0.02200     0.01781
 Rotational constants (GHZ):           1.94899     0.45832     0.37107
 Zero-point vibrational energy     354101.3 (Joules/Mol)
                                   84.63225 (Kcal/Mol)
 Warning -- explicit consideration of  17 degrees of freedom as
           vibrations may cause significant error
 Vibrational temperatures:     68.42    83.13   116.36   223.65   256.82
          (Kelvin)            329.92   388.55   399.87   450.73   555.10
                              630.32   677.13   732.96   823.76   827.18
                              843.61   855.60   899.59   983.10  1009.99
                             1076.60  1089.02  1127.32  1194.72  1208.25
                             1286.07  1400.66  1404.89  1533.41  1592.49
                             1612.91  1688.16  1732.06  1884.59  1911.22
                             1982.06  2012.96  2042.42  2138.24  2193.90
                             2303.92  2346.01  2372.29  2427.51  2556.06
                             4652.18  4654.14  4694.26  5114.49  5369.11
                             5419.35

 Zero-point correction=                           0.134870 (Hartree/Particle)
 Thermal correction to Energy=                    0.146030
 Thermal correction to Enthalpy=                  0.146974
 Thermal correction to Gibbs Free Energy=         0.096875
 Sum of electronic and zero-point Energies=           -680.564960
 Sum of electronic and thermal Energies=              -680.553800
 Sum of electronic and thermal Enthalpies=            -680.552856
 Sum of electronic and thermal Free Energies=         -680.602955

                     E (Thermal)             CV                S
                      KCal/Mol        Cal/Mol-Kelvin    Cal/Mol-Kelvin
 Total                   91.635             41.785            105.442
 Electronic               0.000              0.000              0.000
 Translational            0.889              2.981             41.504
 Rotational               0.889              2.981             31.251
 Vibrational             89.858             35.824             32.688
 Vibration     1          0.595              1.979              4.916
 Vibration     2          0.596              1.974              4.532
 Vibration     3          0.600              1.962              3.870
 Vibration     4          0.620              1.897              2.605
 Vibration     5          0.629              1.869              2.344
 Vibration     6          0.652              1.796              1.884
 Vibration     7          0.674              1.728              1.596
 Vibration     8          0.679              1.714              1.546
 Vibration     9          0.701              1.648              1.345
 Vibration    10          0.754              1.500              1.016
 Vibration    11          0.798              1.387              0.833
 Vibration    12          0.828              1.315              0.736
 Vibration    13          0.865              1.229              0.635
 Vibration    14          0.929              1.091              0.499
 Vibration    15          0.931              1.086              0.495
 Vibration    16          0.943              1.061              0.474
 Vibration    17          0.952              1.043              0.459

 Normal termination of Gaussian 09 at Fri Aug 20 15:39:49 2021.
