 Gaussian 09, Revision E.01,
 Gaussian 09:  ES64L-G09RevE.01 30-Nov-2015

 -------------------------
 #P OPT Freq B3LYP/6-31G**
 -------------------------

 ------
 CUZMUF
 ------
 Symbolic Z-matrix:
 Charge =  0 Multiplicity = 1

 SCF Done:  E(RB3LYP) =  -469.949019755     A.U. after   15 cycles
 SCF Done:  E(RB3LYP) =  -470.004341559     A.U. after   14 cycles
 SCF Done:  E(RB3LYP) =  -470.019180263     A.U. after   14 cycles
 SCF Done:  E(RB3LYP) =  -470.019709915     A.U. after   14 cycles
 SCF Done:  E(RB3LYP) =  -470.018274080     A.U. after   14 cycles
 SCF Done:  E(RB3LYP) =  -470.020395261     A.U. after   11 cycles
 SCF Done:  E(RB3LYP) =  -470.020660166     A.U. after   12 cycles
 SCF Done:  E(RB3LYP) =  -470.020670287     A.U. after   12 cycles
 SCF Done:  E(RB3LYP) =  -470.020678654     A.U. after   10 cycles
 SCF Done:  E(RB3LYP) =  -470.020679320     A.U. after    9 cycles
 SCF Done:  E(RB3LYP) =  -470.020679587     A.U. after    9 cycles
 SCF Done:  E(RB3LYP) =  -470.020679746     A.U. after    8 cycles
 SCF Done:  E(RB3LYP) =  -470.020680040     A.U. after    8 cycles
 SCF Done:  E(RB3LYP) =  -470.020680739     A.U. after    9 cycles
 SCF Done:  E(RB3LYP) =  -470.020682060     A.U. after   10 cycles
 SCF Done:  E(RB3LYP) =  -470.020682738     A.U. after   10 cycles
 SCF Done:  E(RB3LYP) =  -470.020682798     A.U. after    8 cycles
 Optimization completed.
    -- Stationary point found.
 Normal termination of Gaussian 09 at Fri Aug 20 15:56:57 2021.

 ----------------------------------------------------------------------
 #P Geom=AllCheck Guess=TCheck SCRF=Check GenChk RB3LYP/6-31G(d,p) Freq
 ----------------------------------------------------------------------

 Structure from the checkpoint file:  "/public/home/users/caep010/.cache/gau_scr/Gau-202954.chk"
 ------
 CUZMUF
 ------
 Charge =  0 Multiplicity = 1

                         Standard orientation:
 ---------------------------------------------------------------------
 Center     Atomic      Atomic             Coordinates (Angstroms)
 Number     Number       Type             X           Y           Z
 ---------------------------------------------------------------------
      1          7           0       -1.686001   -0.117424    0.000005
      2          6           0       -3.054056   -0.608740    0.000009
      3          6           0       -0.545818   -0.834718   -0.000032
      4          6           0        0.478094    0.099695   -0.000065
      5          7           0        1.877451   -0.186586   -0.000000
      6          6           0       -0.148054    1.363934   -0.000007
      7          1           0        0.316453    2.338548    0.000014
      8          8           0        2.215982   -1.374497    0.000054
      9          8           0        2.651563    0.773377   -0.000010
     10          7           0       -1.467691    1.226681    0.000036
     11          1           0       -0.515945   -1.912794   -0.000165
     12          1           0       -3.574944   -0.248265    0.889618
     13          1           0       -3.038516   -1.699055    0.000584
     14          1           0       -3.574714   -0.249204   -0.890124
 ---------------------------------------------------------------------

 SCF Done:  E(RB3LYP) =  -470.020682798     A.U. after    1 cycles

 The electronic state is 1-A.
 Alpha  occ. eigenvalues --  -19.17477 -19.17389 -14.57090 -14.44992 -14.37687
 Alpha  occ. eigenvalues --  -10.26172 -10.25754 -10.24592 -10.23796  -1.21823
 Alpha  occ. eigenvalues --   -1.08051  -1.04463  -0.87664  -0.84117  -0.76435
 Alpha  occ. eigenvalues --   -0.69903  -0.60670  -0.59972  -0.56205  -0.53093
 Alpha  occ. eigenvalues --   -0.51908  -0.50366  -0.50255  -0.46718  -0.44687
 Alpha  occ. eigenvalues --   -0.42639  -0.42114  -0.32648  -0.30389  -0.29948
 Alpha  occ. eigenvalues --   -0.28642  -0.28462  -0.27924
 Alpha virt. eigenvalues --   -0.07695  -0.01024   0.07137   0.07232   0.09894
 Alpha virt. eigenvalues --    0.11497   0.13608   0.14635   0.15821   0.18241
 Alpha virt. eigenvalues --    0.20026   0.23892   0.27163   0.28267   0.34819

 Mulliken charges:
               1
     1  N   -0.264482
     2  C   -0.167725
     3  C    0.172903
     4  C    0.148020
     5  N    0.340271
     6  C    0.140032
     7  H    0.142604
     8  O   -0.413191
     9  O   -0.405166
    10  N   -0.299223
    11  H    0.159633
    12  H    0.156598
    13  H    0.133144
    14  H    0.156583
 Sum of Mulliken charges =   0.00000

 Dipole moment (field-independent basis, Debye):
    X=             -5.2397    Y=             -1.4961    Z=             -0.0002  Tot=              5.4491
 Quadrupole moment (field-independent basis, Debye-Ang):
   XX=            -54.0280   YY=            -50.5271   ZZ=            -50.1491
   XY=              7.4012   XZ=             -0.0002   YZ=              0.0004

  Exact polarizability:  95.844   2.890  72.480   0.001   0.000  32.233
 Approx polarizability: 144.630   5.102 142.411  -0.000  -0.000  48.225

                      1                      2                      3
                      A                      A                      A
 Frequencies --     47.2164                86.1690               161.1871
 Red. masses --      1.1140                 6.5933                 4.0126
 Frc consts  --      0.0015                 0.0288                 0.0614
 IR Inten    --      0.0791                 0.6907                 1.0003

                      4                      5                      6
                      A                      A                      A
 Frequencies --    183.7301               266.2064               367.0240
 Red. masses --      5.7205                 4.9033                 3.6669
 Frc consts  --      0.1138                 0.2047                 0.2910
 IR Inten    --      1.8799                 9.7494                 3.4490

                      7                      8                      9
                      A                      A                      A
 Frequencies --    423.0230               554.9854               604.6158
 Red. masses --      7.7002                 6.1969                 3.3362
 Frc consts  --      0.8119                 1.1246                 0.7186
 IR Inten    --      2.4395                 4.3973                 4.6609

                     10                     11                     12
                      A                      A                      A
 Frequencies --    660.7716               713.3712               760.1063
 Red. masses --      6.3818                 4.5993                 6.0721
 Frc consts  --      1.6417                 1.3790                 2.0670
 IR Inten    --      1.6258                 1.6988                27.9529

                     13                     14                     15
                      A                      A                      A
 Frequencies --    830.7749               840.3119               902.0035
 Red. masses --     11.0582                 1.4114                 1.3900
 Frc consts  --      4.4968                 0.5872                 0.6663
 IR Inten    --     48.4952                 4.8940                13.3218

                     16                     17                     18
                      A                      A                      A
 Frequencies --    985.8823              1024.9691              1079.6123
 Red. masses --      3.7349                 4.8081                 1.5088
 Frc consts  --      2.1389                 2.9761                 1.0361
 IR Inten    --     17.8938                10.8242                26.0291

                     19                     20                     21
                      A                      A                      A
 Frequencies --   1151.1765              1153.2580              1212.6220
 Red. masses --      2.0339                 1.3146                 1.4114
 Frc consts  --      1.5881                 1.0301                 1.2228
 IR Inten    --     21.9545                 0.0716                 2.7265

                     22                     23                     24
                      A                      A                      A
 Frequencies --   1307.0514              1371.7800              1449.0025
 Red. masses --      3.9981                 7.7707                 2.7077
 Frc consts  --      4.0243                 8.6155                 3.3495
 IR Inten    --      0.2656               200.0549               159.1678

                     25                     26                     27
                      A                      A                      A
 Frequencies --   1459.2742              1472.2366              1487.4409
 Red. masses --      4.2234                 2.4557                 1.0406
 Frc consts  --      5.2989                 3.1360                 1.3565
 IR Inten    --     11.3887                14.2180                 8.5395

                     28                     29                     30
                      A                      A                      A
 Frequencies --   1498.5195              1546.1161              1580.2264
 Red. masses --      1.6692                 1.7840                 4.9817
 Frc consts  --      2.2084                 2.5126                 7.3294
 IR Inten    --     19.9287                 0.4216                92.5193

                     31                     32                     33
                      A                      A                      A
 Frequencies --   1628.0562              3073.0986              3149.7616
 Red. masses --     13.7414                 1.0321                 1.1064
 Frc consts  --     21.4595                 5.7431                 6.4670
 IR Inten    --    238.1594                26.0888                 7.4691

                     34                     35                     36
                      A                      A                      A
 Frequencies --   3172.2846              3288.4238              3301.1472
 Red. masses --      1.1057                 1.0978                 1.0997
 Frc consts  --      6.5558                 6.9947                 7.0607
 IR Inten    --      5.2898                 1.2920                 5.6185

 - Thermochemistry -
 -------------------
 Temperature   298.150 Kelvin.  Pressure   1.00000 Atm.
 Atom     1 has atomic number  7 and mass  14.00307

 Molecular mass:   127.03818 amu.
 Principal axes and moments of inertia in atomic units:
                           1         2         3
     Eigenvalues --   394.162601661.437532044.20032
           X            0.99970   0.02465  -0.00000
           Y           -0.02465   0.99970   0.00000
           Z            0.00000  -0.00000   1.00000
 This molecule is an asymmetric top.
 Rotational symmetry number  1.
 Rotational temperatures (Kelvin)      0.21974     0.05213     0.04237
 Rotational constants (GHZ):           4.57867     1.08625     0.88286
 Zero-point vibrational energy     267924.2 (Joules/Mol)
                                   64.03543 (Kcal/Mol)
 Warning -- explicit consideration of   9 degrees of freedom as
           vibrations may cause significant error
 Vibrational temperatures:     67.93   123.98   231.91   264.35   383.01
          (Kelvin)            528.07   608.64   798.50   869.91   950.70
                             1026.38  1093.62  1195.30  1209.02  1297.78
                             1418.46  1474.70  1553.32  1656.28  1659.28
                             1744.69  1880.55  1973.68  2084.79  2099.57
                             2118.22  2140.09  2156.03  2224.51  2273.59
                             2342.41  4421.50  4531.80  4564.20  4731.30
                             4749.61

 Zero-point correction=                           0.102047 (Hartree/Particle)
 Thermal correction to Energy=                    0.109863
 Thermal correction to Enthalpy=                  0.110807
 Thermal correction to Gibbs Free Energy=         0.068471
 Sum of electronic and zero-point Energies=           -469.918636
 Sum of electronic and thermal Energies=              -469.910820
 Sum of electronic and thermal Enthalpies=            -469.909876
 Sum of electronic and thermal Free Energies=         -469.952212

                     E (Thermal)             CV                S
                      KCal/Mol        Cal/Mol-Kelvin    Cal/Mol-Kelvin
 Total                   68.940             27.167             89.104
 Electronic               0.000              0.000              0.000
 Translational            0.889              2.981             40.431
 Rotational               0.889              2.981             28.683
 Vibrational             67.162             21.205             19.990
 Vibration     1          0.595              1.979              4.931
 Vibration     2          0.601              1.959              3.745
 Vibration     3          0.622              1.890              2.536
 Vibration     4          0.631              1.862              2.290
 Vibration     5          0.672              1.735              1.621
 Vibration     6          0.740              1.540              1.092
 Vibration     7          0.785              1.420              0.882
 Vibration     8          0.910              1.129              0.534
 Vibration     9          0.963              1.022              0.442

 Optimization completed.
    -- Stationary point found.
 Normal termination of Gaussian 09 at Fri Aug 20 15:57:11 2021.
