 Gaussian 09, Revision E.01,
 Gaussian 09:  ES64L-G09RevE.01 30-Nov-2015

 -------------------------
 #P OPT Freq B3LYP/6-31G**
 -------------------------

 ------
 HABMED
 ------
 Symbolic Z-matrix:
 Charge =  0 Multiplicity = 1

 SCF Done:  E(RB3LYP) =  -622.510060435     A.U. after   17 cycles
 SCF Done:  E(RB3LYP) =  -622.584066113     A.U. after   14 cycles
 SCF Done:  E(RB3LYP) =  -622.610449261     A.U. after   16 cycles
 SCF Done:  E(RB3LYP) =  -622.609068835     A.U. after   15 cycles
 SCF Done:  E(RB3LYP) =  -622.611300902     A.U. after   11 cycles
 SCF Done:  E(RB3LYP) =  -622.612232535     A.U. after   15 cycles
 SCF Done:  E(RB3LYP) =  -622.614400721     A.U. after   15 cycles
 SCF Done:  E(RB3LYP) =  -622.615243785     A.U. after   15 cycles
 SCF Done:  E(RB3LYP) =  -622.615294917     A.U. after   14 cycles
 SCF Done:  E(RB3LYP) =  -622.615759293     A.U. after   13 cycles
 SCF Done:  E(RB3LYP) =  -622.615851108     A.U. after   13 cycles
 SCF Done:  E(RB3LYP) =  -622.615867449     A.U. after   11 cycles
 SCF Done:  E(RB3LYP) =  -622.615875743     A.U. after   11 cycles
 SCF Done:  E(RB3LYP) =  -622.615879212     A.U. after    9 cycles
 SCF Done:  E(RB3LYP) =  -622.615880556     A.U. after   10 cycles
 SCF Done:  E(RB3LYP) =  -622.615880880     A.U. after    8 cycles
 SCF Done:  E(RB3LYP) =  -622.615881092     A.U. after    8 cycles
 SCF Done:  E(RB3LYP) =  -622.615881243     A.U. after    7 cycles
 SCF Done:  E(RB3LYP) =  -622.615881282     A.U. after    7 cycles
 Optimization completed.
    -- Stationary point found.
 Normal termination of Gaussian 09 at Fri Aug 20 15:57:16 2021.

 ----------------------------------------------------------------------
 #P Geom=AllCheck Guess=TCheck SCRF=Check GenChk RB3LYP/6-31G(d,p) Freq
 ----------------------------------------------------------------------

 Structure from the checkpoint file:  "/public/home/users/caep010/.cache/gau_scr/Gau-188369.chk"
 ------
 HABMED
 ------
 Charge =  0 Multiplicity = 1

                         Standard orientation:
 ---------------------------------------------------------------------
 Center     Atomic      Atomic             Coordinates (Angstroms)
 Number     Number       Type             X           Y           Z
 ---------------------------------------------------------------------
      1          8           0       -0.334696   -2.389628   -0.227165
      2          7           0       -0.907253   -1.248238   -0.080002
      3          6           0       -0.180344   -0.085804   -0.290956
      4          7           0        1.139610   -0.338301   -0.689449
      5          6           0       -0.772826    1.176415   -0.220249
      6          6           0        0.019304    2.415174   -0.539723
      7          1           0        0.622134    2.723006    0.319224
      8          1           0        0.708342    2.234349   -1.369515
      9          1           0       -0.649761    3.235245   -0.810754
     10          1           0        1.245125   -1.323393   -0.951423
     11          7           0        2.191038   -0.037993    0.224712
     12          8           0        3.240469   -0.619250    0.001116
     13          8           0        1.972230    0.798674    1.089221
     14          6           0       -2.121262    1.244586    0.147189
     15          6           0       -2.837097    0.073332    0.387614
     16          1           0       -3.885142    0.105040    0.664284
     17          6           0       -2.226782   -1.159558    0.255492
     18          1           0       -2.707608   -2.117196    0.397477
     19          1           0       -2.606843    2.211427    0.222304
 ---------------------------------------------------------------------

 SCF Done:  E(RB3LYP) =  -622.615881282     A.U. after    1 cycles

 The electronic state is 1-A.
 Alpha  occ. eigenvalues --  -19.19446 -19.19240 -19.14053 -14.61029 -14.49941
 Alpha  occ. eigenvalues --  -14.41767 -10.28981 -10.25383 -10.24266 -10.23251
 Alpha  occ. eigenvalues --  -10.22455 -10.20332  -1.25315  -1.12782  -1.07571
 Alpha  occ. eigenvalues --   -0.98148  -0.91523  -0.82665  -0.80551  -0.74130
 Alpha  occ. eigenvalues --   -0.69570  -0.65255  -0.63537  -0.57816  -0.57253
 Alpha  occ. eigenvalues --   -0.55391  -0.53415  -0.52140  -0.49748  -0.48533
 Alpha  occ. eigenvalues --   -0.47589  -0.46006  -0.43539  -0.42736  -0.39942
 Alpha  occ. eigenvalues --   -0.39328  -0.35092  -0.34678  -0.33524  -0.32234
 Alpha  occ. eigenvalues --   -0.30427  -0.27574  -0.27196  -0.23326
 Alpha virt. eigenvalues --   -0.06798  -0.05102  -0.04104   0.07360   0.08383
 Alpha virt. eigenvalues --    0.10334   0.12105   0.12469   0.13738   0.14902
 Alpha virt. eigenvalues --    0.15894   0.18028   0.19511   0.20374   0.22413

 Mulliken charges:
               1
     1  O   -0.530672
     2  N   -0.077823
     3  C    0.456083
     4  N   -0.425939
     5  C    0.119633
     6  C   -0.385968
     7  H    0.166409
     8  H    0.138178
     9  H    0.115544
    10  H    0.309740
    11  N    0.609618
    12  O   -0.382037
    13  O   -0.393367
    14  C   -0.095638
    15  C   -0.127184
    16  H    0.118200
    17  C    0.131363
    18  H    0.148004
    19  H    0.105856
 Sum of Mulliken charges =  -0.00000

 Dipole moment (field-independent basis, Debye):
    X=             -4.7880    Y=              2.5798    Z=             -0.7530  Tot=              5.4906
 Quadrupole moment (field-independent basis, Debye-Ang):
   XX=            -67.1694   YY=            -69.3228   ZZ=            -69.5532
   XY=             -0.1181   XZ=             -4.3146   YZ=             -1.9211

  Exact polarizability: 126.995  -6.703 111.817  -9.653   3.284  50.724
 Approx polarizability: 204.848 -32.155 218.700 -23.938  18.301  88.786

                      1                      2                      3
                      A                      A                      A
 Frequencies --     77.6860                86.1362               101.4828
 Red. masses --      5.4602                 9.0522                 6.5487
 Frc consts  --      0.0194                 0.0396                 0.0397
 IR Inten    --      1.1078                 0.5591                 3.7193

                      4                      5                      6
                      A                      A                      A
 Frequencies --    140.1548               192.1695               231.6982
 Red. masses --      1.3029                 3.5625                 3.2939
 Frc consts  --      0.0151                 0.0775                 0.1042
 IR Inten    --      0.3137                 1.5041                 3.7817

                      7                      8                      9
                      A                      A                      A
 Frequencies --    289.8911               326.2756               370.1662
 Red. masses --      3.4573                 5.6089                 4.5645
 Frc consts  --      0.1712                 0.3518                 0.3685
 IR Inten    --      0.4914                 5.7875                15.4381

                     10                     11                     12
                      A                      A                      A
 Frequencies --    422.6087               521.6938               534.2678
 Red. masses --      6.2272                 4.2351                 4.7774
 Frc consts  --      0.6553                 0.6791                 0.8035
 IR Inten    --      4.4768                 4.0366                 3.7200

                     13                     14                     15
                      A                      A                      A
 Frequencies --    571.0953               584.6031               594.5339
 Red. masses --      4.0743                 5.2546                 7.1409
 Frc consts  --      0.7829                 1.0581                 1.4872
 IR Inten    --      0.8538                 6.9909                 7.6169

                     16                     17                     18
                      A                      A                      A
 Frequencies --    625.1288               722.2033               730.7312
 Red. masses --      2.6114                 3.8241                 6.4659
 Frc consts  --      0.6013                 1.1752                 2.0342
 IR Inten    --     39.3966                12.2634                11.0624

                     19                     20                     21
                      A                      A                      A
 Frequencies --    783.9519               791.0073               825.4817
 Red. masses --      4.5389                 1.6581                 4.7255
 Frc consts  --      1.6435                 0.6112                 1.8972
 IR Inten    --     37.4793                21.7734                82.1522

                     22                     23                     24
                      A                      A                      A
 Frequencies --    887.3778               913.9296               967.6872
 Red. masses --      1.3667                 4.3573                 1.2754
 Frc consts  --      0.6341                 2.1443                 0.7037
 IR Inten    --      1.5948                25.8734                 0.6701

                     25                     26                     27
                      A                      A                      A
 Frequencies --    972.5851              1014.8446              1065.8593
 Red. masses --      3.0252                 1.9856                 1.5233
 Frc consts  --      1.6860                 1.2049                 1.0196
 IR Inten    --     38.9479                49.5952                 6.4940

                     28                     29                     30
                      A                      A                      A
 Frequencies --   1090.2776              1120.6931              1187.3860
 Red. masses --      2.4621                 1.7043                 1.2737
 Frc consts  --      1.7244                 1.2612                 1.0581
 IR Inten    --     23.2642                 5.7607                10.5225

                     31                     32                     33
                      A                      A                      A
 Frequencies --   1238.5919              1267.1641              1303.3793
 Red. masses --      4.9011                 3.0942                 2.2793
 Frc consts  --      4.4299                 2.9272                 2.2814
 IR Inten    --     65.5878                 9.6228                53.3430

                     34                     35                     36
                      A                      A                      A
 Frequencies --   1344.1080              1365.5908              1426.5871
 Red. masses --      4.5816                 6.0345                 1.2529
 Frc consts  --      4.8768                 6.6303                 1.5023
 IR Inten    --    186.4172               247.5060                 4.0559

                     37                     38                     39
                      A                      A                      A
 Frequencies --   1458.6324              1479.1167              1491.2201
 Red. masses --      2.1513                 1.6228                 1.0772
 Frc consts  --      2.6968                 2.0918                 1.4113
 IR Inten    --     75.7222                10.6266                21.7265

                     40                     41                     42
                      A                      A                      A
 Frequencies --   1508.3829              1539.5073              1613.4874
 Red. masses --      1.1931                 3.4950                 5.2783
 Frc consts  --      1.5993                 4.8805                 8.0961
 IR Inten    --     40.4228                 9.5032                10.0938

                     43                     44                     45
                      A                      A                      A
 Frequencies --   1662.0157              1719.3806              3060.9371
 Red. masses --      6.5935                 6.4886                 1.0352
 Frc consts  --     10.7310                11.3018                 5.7143
 IR Inten    --     13.7252               278.0128                10.5349

                     46                     47                     48
                      A                      A                      A
 Frequencies --   3131.0629              3142.1704              3208.3809
 Red. masses --      1.1011                 1.1040                 1.0884
 Frc consts  --      6.3598                 6.4220                 6.6013
 IR Inten    --      3.4693                11.5111                 2.0832

                     49                     50                     51
                      A                      A                      A
 Frequencies --   3222.7970              3267.6038              3442.9685
 Red. masses --      1.0951                 1.0949                 1.0736
 Frc consts  --      6.7013                 6.8877                 7.4980
 IR Inten    --      4.3569                 0.6817                85.5492

 - Thermochemistry -
 -------------------
 Temperature   298.150 Kelvin.  Pressure   1.00000 Atm.
 Atom     1 has atomic number  8 and mass  15.99491

 Molecular mass:   169.04874 amu.
 Principal axes and moments of inertia in atomic units:
                           1         2         3
     Eigenvalues --  1163.876422206.651933089.94543
           X            0.99994  -0.00442  -0.01025
           Y            0.00426   0.99987  -0.01556
           Z            0.01031   0.01552   0.99983
 This molecule is an asymmetric top.
 Rotational symmetry number  1.
 Warning -- assumption of classical behavior for rotation
           may cause significant error
 Rotational temperatures (Kelvin)      0.07442     0.03925     0.02803
 Rotational constants (GHZ):           1.55063     0.81786     0.58407
 Zero-point vibrational energy     368669.3 (Joules/Mol)
                                   88.11407 (Kcal/Mol)
 Warning -- explicit consideration of  15 degrees of freedom as
           vibrations may cause significant error
 Vibrational temperatures:    111.77   123.93   146.01   201.65   276.49
          (Kelvin)            333.36   417.09   469.44   532.59   608.04
                              750.60   768.69   821.68   841.11   855.40
                              899.42  1039.09  1051.36  1127.93  1138.08
                             1187.68  1276.74  1314.94  1392.28  1399.33
                             1460.13  1533.53  1568.66  1612.43  1708.38
                             1782.06  1823.16  1875.27  1933.87  1964.78
                             2052.54  2098.64  2128.12  2145.53  2170.22
                             2215.00  2321.45  2391.27  2473.80  4404.00
                             4504.90  4520.88  4616.14  4636.88  4701.35
                             4953.66

 Zero-point correction=                           0.140419 (Hartree/Particle)
 Thermal correction to Energy=                    0.150638
 Thermal correction to Enthalpy=                  0.151582
 Thermal correction to Gibbs Free Energy=         0.104213
 Sum of electronic and zero-point Energies=           -622.475463
 Sum of electronic and thermal Energies=              -622.465244
 Sum of electronic and thermal Enthalpies=            -622.464299
 Sum of electronic and thermal Free Energies=         -622.511669

                     E (Thermal)             CV                S
                      KCal/Mol        Cal/Mol-Kelvin    Cal/Mol-Kelvin
 Total                   94.527             38.330             99.697
 Electronic               0.000              0.000              0.000
 Translational            0.889              2.981             41.283
 Rotational               0.889              2.981             30.452
 Vibrational             92.749             32.368             27.962
 Vibration     1          0.599              1.964              3.949
 Vibration     2          0.601              1.959              3.746
 Vibration     3          0.604              1.948              3.426
 Vibration     4          0.615              1.913              2.802
 Vibration     5          0.634              1.851              2.207
 Vibration     6          0.653              1.793              1.866
 Vibration     7          0.686              1.693              1.475
 Vibration     8          0.710              1.623              1.278
 Vibration     9          0.742              1.534              1.079
 Vibration    10          0.785              1.421              0.883
 Vibration    11          0.877              1.202              0.606
 Vibration    12          0.889              1.174              0.578
 Vibration    13          0.927              1.094              0.502
 Vibration    14          0.942              1.065              0.477
 Vibration    15          0.952              1.043              0.459

 Optimization completed.
    -- Stationary point found.
 Normal termination of Gaussian 09 at Fri Aug 20 15:57:45 2021.
