 Gaussian 09, Revision E.01,
 Gaussian 09:  ES64L-G09RevE.01 30-Nov-2015

 -------------------------
 #P OPT Freq B3LYP/6-31G**
 -------------------------

 ------
 SAQZAK
 ------
 Symbolic Z-matrix:
 Charge =  0 Multiplicity = 1

 SCF Done:  E(RB3LYP) =  -706.511947360     A.U. after   16 cycles
 SCF Done:  E(RB3LYP) =  -706.539694478     A.U. after   15 cycles
 SCF Done:  E(RB3LYP) =  -706.540382814     A.U. after   14 cycles
 SCF Done:  E(RB3LYP) =  -706.530491601     A.U. after   17 cycles
 SCF Done:  E(RB3LYP) =  -706.540506108     A.U. after   12 cycles
 SCF Done:  E(RB3LYP) =  -706.540596129     A.U. after   14 cycles
 SCF Done:  E(RB3LYP) =  -706.539472930     A.U. after   15 cycles
 SCF Done:  E(RB3LYP) =  -706.540641743     A.U. after   11 cycles
 SCF Done:  E(RB3LYP) =  -706.540676164     A.U. after   13 cycles
 SCF Done:  E(RB3LYP) =  -706.540702569     A.U. after   13 cycles
 SCF Done:  E(RB3LYP) =  -706.540712499     A.U. after   11 cycles
 SCF Done:  E(RB3LYP) =  -706.540715159     A.U. after   11 cycles
 SCF Done:  E(RB3LYP) =  -706.540715807     A.U. after    9 cycles
 Optimization completed.
    -- Stationary point found.
 Normal termination of Gaussian 09 at Fri Aug 20 15:48:32 2021.

 ----------------------------------------------------------------------
 #P Geom=AllCheck Guess=TCheck SCRF=Check GenChk RB3LYP/6-31G(d,p) Freq
 ----------------------------------------------------------------------

 Structure from the checkpoint file:  "/public/home/users/caep010/.cache/gau_scr/Gau-58386.chk"
 ------
 SAQZAK
 ------
 Charge =  0 Multiplicity = 1

                         Standard orientation:
 ---------------------------------------------------------------------
 Center     Atomic      Atomic             Coordinates (Angstroms)
 Number     Number       Type             X           Y           Z
 ---------------------------------------------------------------------
      1          7           0       -0.571548    0.477207   -0.539366
      2          6           0       -1.939911    0.263094   -0.889847
      3          1           0       -2.019390   -0.439136   -1.716867
      4          1           0       -2.412716    1.216490   -1.118965
      5          7           0       -2.732799   -0.344984    0.273934
      6          8           0       -3.899553   -0.581813    0.000140
      7          7           0       -0.136684    1.636177   -0.003985
      8          8           0       -2.157578   -0.526507    1.331794
      9          7           0        0.354835   -0.471140   -0.602570
     10          6           0        1.385536    0.174210   -0.087896
     11          7           0        2.702874   -0.439728    0.058165
     12          8           0        2.815261   -1.590217   -0.347519
     13          8           0        3.569799    0.254575    0.571459
     14          7           0        1.116884    1.449685    0.278863
 ---------------------------------------------------------------------

 SCF Done:  E(RB3LYP) =  -706.540715807     A.U. after    1 cycles

 The electronic state is 1-A.
 Alpha  occ. eigenvalues --  -19.23311 -19.22912 -19.21324 -19.21238 -14.61841
 Alpha  occ. eigenvalues --  -14.61017 -14.52692 -14.47095 -14.45067 -14.43026
 Alpha  occ. eigenvalues --  -10.34529 -10.34073  -1.27537  -1.26158  -1.21354
 Alpha  occ. eigenvalues --   -1.10761  -1.08924  -1.02699  -0.97021  -0.86364
 Alpha  occ. eigenvalues --   -0.79477  -0.73769  -0.67116  -0.66524  -0.60370
 Alpha  occ. eigenvalues --   -0.59879  -0.59170  -0.57580  -0.56920  -0.54429
 Alpha  occ. eigenvalues --   -0.53251  -0.52598  -0.49303  -0.44940  -0.39008
 Alpha  occ. eigenvalues --   -0.37980  -0.36623  -0.35535  -0.35140  -0.34426
 Alpha  occ. eigenvalues --   -0.33725  -0.33624  -0.33278  -0.32137
 Alpha virt. eigenvalues --   -0.11958  -0.10602  -0.08714   0.01224   0.05553
 Alpha virt. eigenvalues --    0.07108   0.07944   0.09363   0.13525   0.18030
 Alpha virt. eigenvalues --    0.19788   0.22562   0.22617   0.23766   0.31076

 Mulliken charges:
               1
     1  N   -0.080586
     2  C    0.058029
     3  H    0.210885
     4  H    0.212365
     5  N    0.457320
     6  O   -0.343947
     7  N   -0.002201
     8  O   -0.333719
     9  N   -0.265234
    10  C    0.700627
    11  N    0.385351
    12  O   -0.359552
    13  O   -0.349736
    14  N   -0.289602
 Sum of Mulliken charges =  -0.00000

 Dipole moment (field-independent basis, Debye):
    X=             -3.0266    Y=              1.0392    Z=             -3.2290  Tot=              4.5461
 Quadrupole moment (field-independent basis, Debye-Ang):
   XX=            -79.6238   YY=            -71.1627   ZZ=            -63.0929
   XY=             -2.7901   XZ=              4.3964   YZ=             -2.5386

  Exact polarizability: 104.051   0.635  63.304  12.429   6.191  49.775
 Approx polarizability: 164.672  10.180 130.726  38.607  25.456  94.005

                      1                      2                      3
                      A                      A                      A
 Frequencies --     35.0650                46.8539                54.5364
 Red. masses --     13.9716                13.1209                11.0039
 Frc consts  --      0.0101                 0.0170                 0.0193
 IR Inten    --      0.6931                 1.6738                 2.6226

                      4                      5                      6
                      A                      A                      A
 Frequencies --     84.9849               193.7800               206.9318
 Red. masses --     11.7712                 5.7889                 9.7346
 Frc consts  --      0.0501                 0.1281                 0.2456
 IR Inten    --      2.6516                 2.3372                 2.9027

                      7                      8                      9
                      A                      A                      A
 Frequencies --    337.9432               349.7488               372.5733
 Red. masses --     12.5849                 5.1322                 5.4192
 Frc consts  --      0.8468                 0.3699                 0.4432
 IR Inten    --      5.7486                 2.7058                 1.8629

                     10                     11                     12
                      A                      A                      A
 Frequencies --    465.6664               547.2028               585.5131
 Red. masses --     12.8595                 6.6025                 5.1101
 Frc consts  --      1.6430                 1.1648                 1.0322
 IR Inten    --      1.0347                 1.9962                 4.5850

                     13                     14                     15
                      A                      A                      A
 Frequencies --    661.1548               682.3828               712.1283
 Red. masses --     10.8902                 8.9314                 9.4880
 Frc consts  --      2.8047                 2.4503                 2.8349
 IR Inten    --     32.1922                 5.0323                 9.7370

                     16                     17                     18
                      A                      A                      A
 Frequencies --    787.4088               834.1611               859.6806
 Red. masses --     13.1690                 8.7184                 7.6893
 Frc consts  --      4.8107                 3.5743                 3.3482
 IR Inten    --      0.4671                14.5948               109.5599

                     19                     20                     21
                      A                      A                      A
 Frequencies --    893.2478               974.7959              1032.3611
 Red. masses --     10.8025                 2.8970                 7.9990
 Frc consts  --      5.0783                 1.6219                 5.0228
 IR Inten    --     18.6589                13.3194                18.8986

                     22                     23                     24
                      A                      A                      A
 Frequencies --   1090.5229              1170.0522              1285.7405
 Red. masses --     10.2802                 2.2667                 3.7291
 Frc consts  --      7.2031                 1.8283                 3.6321
 IR Inten    --      6.9629                 0.7346                11.8218

                     25                     26                     27
                      A                      A                      A
 Frequencies --   1331.9957              1344.2386              1372.5827
 Red. masses --      2.6936                 1.4152                 6.0015
 Frc consts  --      2.8158                 1.5066                 6.6617
 IR Inten    --     20.1834                16.6278                60.3586

                     28                     29                     30
                      A                      A                      A
 Frequencies --   1398.6188              1412.8914              1450.6907
 Red. masses --      8.6561                 6.3084                11.2545
 Frc consts  --      9.9763                 7.4197                13.9549
 IR Inten    --     84.6002               220.0636                10.8128

                     31                     32                     33
                      A                      A                      A
 Frequencies --   1456.6126              1524.6665              1677.8641
 Red. masses --      1.2163                10.9432                14.5636
 Frc consts  --      1.5205                14.9881                24.1565
 IR Inten    --     12.3674                23.1014               209.9144

                     34                     35                     36
                      A                      A                      A
 Frequencies --   1713.6973              3143.4239              3221.3485
 Red. masses --     12.7101                 1.0572                 1.1135
 Frc consts  --     21.9922                 6.1547                 6.8081
 IR Inten    --    245.3844                 4.0066                 5.4866

 - Thermochemistry -
 -------------------
 Temperature   298.150 Kelvin.  Pressure   1.00000 Atm.
 Atom     1 has atomic number  7 and mass  14.00307

 Molecular mass:   174.01375 amu.
 Principal axes and moments of inertia in atomic units:
                           1         2         3
     Eigenvalues --   687.080013635.144553889.38185
           X            0.99997  -0.00242   0.00691
           Y            0.00248   0.99996  -0.00885
           Z           -0.00689   0.00886   0.99994
 This molecule is an asymmetric top.
 Rotational symmetry number  1.
 Warning -- assumption of classical behavior for rotation
           may cause significant error
 Rotational temperatures (Kelvin)      0.12606     0.02383     0.02227
 Rotational constants (GHZ):           2.62668     0.49647     0.46402
 Zero-point vibrational energy     211219.0 (Joules/Mol)
                                   50.48256 (Kcal/Mol)
 Warning -- explicit consideration of  12 degrees of freedom as
           vibrations may cause significant error
 Vibrational temperatures:     50.45    67.41    78.47   122.27   278.81
          (Kelvin)            297.73   486.22   503.21   536.05   669.99
                              787.30   842.42   951.25   981.80  1024.59
                             1132.90  1200.17  1236.89  1285.18  1402.51
                             1485.34  1569.02  1683.44  1849.89  1916.44
                             1934.06  1974.84  2012.30  2032.83  2087.22
                             2095.74  2193.65  2414.07  2465.63  4522.68
                             4634.80

 Zero-point correction=                           0.080449 (Hartree/Particle)
 Thermal correction to Energy=                    0.090202
 Thermal correction to Enthalpy=                  0.091146
 Thermal correction to Gibbs Free Energy=         0.042416
 Sum of electronic and zero-point Energies=           -706.460267
 Sum of electronic and thermal Energies=              -706.450514
 Sum of electronic and thermal Enthalpies=            -706.449570
 Sum of electronic and thermal Free Energies=         -706.498299

                     E (Thermal)             CV                S
                      KCal/Mol        Cal/Mol-Kelvin    Cal/Mol-Kelvin
 Total                   56.603             33.006            102.561
 Electronic               0.000              0.000              0.000
 Translational            0.889              2.981             41.369
 Rotational               0.889              2.981             30.653
 Vibrational             54.825             27.045             30.539
 Vibration     1          0.594              1.982              5.520
 Vibration     2          0.595              1.979              4.946
 Vibration     3          0.596              1.976              4.646
 Vibration     4          0.601              1.960              3.772
 Vibration     5          0.635              1.849              2.191
 Vibration     6          0.641              1.830              2.071
 Vibration     7          0.718              1.600              1.222
 Vibration     8          0.727              1.576              1.167
 Vibration     9          0.744              1.528              1.069
 Vibration    10          0.823              1.326              0.750
 Vibration    11          0.902              1.146              0.550
 Vibration    12          0.943              1.063              0.475

 Normal termination of Gaussian 09 at Fri Aug 20 15:48:52 2021.
