 Gaussian 09, Revision E.01,
 Gaussian 09:  ES64L-G09RevE.01 30-Nov-2015

 -------------------------
 #P OPT Freq B3LYP/6-31G**
 -------------------------

 ------
 LORNAI
 ------
 Symbolic Z-matrix:
 Charge =  0 Multiplicity = 1

 SCF Done:  E(RB3LYP) =  -607.488203561     A.U. after   16 cycles
 SCF Done:  E(RB3LYP) =  -607.578801503     A.U. after   14 cycles
 SCF Done:  E(RB3LYP) =  -607.622193778     A.U. after   16 cycles
 SCF Done:  E(RB3LYP) =  -607.613470219     A.U. after   17 cycles
 SCF Done:  E(RB3LYP) =  -607.622767843     A.U. after   11 cycles
 SCF Done:  E(RB3LYP) =  -607.622995278     A.U. after   14 cycles
 SCF Done:  E(RB3LYP) =  -607.623988413     A.U. after   14 cycles
 SCF Done:  E(RB3LYP) =  -607.624244595     A.U. after   13 cycles
 SCF Done:  E(RB3LYP) =  -607.624325769     A.U. after   13 cycles
 SCF Done:  E(RB3LYP) =  -607.624374316     A.U. after   13 cycles
 SCF Done:  E(RB3LYP) =  -607.624402329     A.U. after   12 cycles
 SCF Done:  E(RB3LYP) =  -607.624420506     A.U. after   12 cycles
 SCF Done:  E(RB3LYP) =  -607.624426373     A.U. after   11 cycles
 SCF Done:  E(RB3LYP) =  -607.624427782     A.U. after   10 cycles
 SCF Done:  E(RB3LYP) =  -607.624428031     A.U. after    9 cycles
 SCF Done:  E(RB3LYP) =  -607.624428074     A.U. after    8 cycles
 Optimization completed.
    -- Stationary point found.
 Normal termination of Gaussian 09 at Fri Aug 20 16:02:11 2021.

 ----------------------------------------------------------------------
 #P Geom=AllCheck Guess=TCheck SCRF=Check GenChk RB3LYP/6-31G(d,p) Freq
 ----------------------------------------------------------------------

 Structure from the checkpoint file:  "/public/home/users/caep010/.cache/gau_scr/Gau-4344.chk"
 ------
 LORNAI
 ------
 Charge =  0 Multiplicity = 1

                         Standard orientation:
 ---------------------------------------------------------------------
 Center     Atomic      Atomic             Coordinates (Angstroms)
 Number     Number       Type             X           Y           Z
 ---------------------------------------------------------------------
      1          8           0       -2.902764   -1.235293   -0.577927
      2          7           0       -2.662475   -0.147785   -0.051340
      3          8           0       -3.518693    0.604773    0.411702
      4          6           0       -1.260111    0.306979    0.000286
      5          6           0       -0.196142   -0.610169    0.076053
      6          6           0       -0.393071   -2.104315    0.194255
      7          1           0        0.418005   -2.562528    0.763816
      8          6           0        1.105581   -0.058531    0.062623
      9          6           0        2.305944   -1.002426    0.131271
     10          1           0        2.322028   -1.534910    1.091212
     11          6           0        3.605109   -0.346179   -0.028092
     12          1           0        2.227522   -1.776363   -0.641628
     13          1           0       -0.420747   -2.576133   -0.794393
     14          1           0       -1.333886   -2.355850    0.680091
     15          7           0        4.637478    0.169270   -0.150646
     16          6           0       -1.077018    1.689450   -0.048402
     17          1           0       -1.947898    2.331563   -0.082544
     18          6           0        0.212667    2.198452   -0.062631
     19          1           0        0.377110    3.269300   -0.116313
     20          6           0        1.296653    1.323335   -0.012852
     21          1           0        2.306824    1.719114   -0.031600
 ---------------------------------------------------------------------

 SCF Done:  E(RB3LYP) =  -607.624428074     A.U. after    1 cycles

 The electronic state is 1-A.
 Alpha  occ. eigenvalues --  -19.18974 -19.18887 -14.57946 -14.34922 -10.26430
 Alpha  occ. eigenvalues --  -10.26170 -10.24676 -10.24446 -10.24235 -10.22638
 Alpha  occ. eigenvalues --  -10.22429 -10.22159 -10.20904  -1.23208  -1.05880
 Alpha  occ. eigenvalues --   -0.92155  -0.90505  -0.83758  -0.81318  -0.77288
 Alpha  occ. eigenvalues --   -0.72631  -0.69528  -0.62420  -0.60999  -0.56088
 Alpha  occ. eigenvalues --   -0.54391  -0.53273  -0.51435  -0.51056  -0.49272
 Alpha  occ. eigenvalues --   -0.47925  -0.46580  -0.44507  -0.43977  -0.42129
 Alpha  occ. eigenvalues --   -0.39230  -0.38677  -0.38240  -0.37217  -0.34183
 Alpha  occ. eigenvalues --   -0.34140  -0.31606  -0.31296  -0.30486  -0.28006
 Alpha  occ. eigenvalues --   -0.27587
 Alpha virt. eigenvalues --   -0.09215  -0.03779  -0.01567   0.01680   0.02418
 Alpha virt. eigenvalues --    0.06689   0.08733   0.10793   0.11908   0.12699
 Alpha virt. eigenvalues --    0.14128   0.14857   0.16351   0.17114   0.18833

 Mulliken charges:
               1
     1  O   -0.387015
     2  N    0.355477
     3  O   -0.379089
     4  C    0.185541
     5  C    0.106964
     6  C   -0.363348
     7  H    0.106849
     8  C    0.041552
     9  C   -0.282395
    10  H    0.177052
    11  C    0.335896
    12  H    0.175362
    13  H    0.149558
    14  H    0.144099
    15  N   -0.479514
    16  C   -0.067871
    17  H    0.137897
    18  C   -0.110615
    19  H    0.112287
    20  C   -0.082949
    21  H    0.124263
 Sum of Mulliken charges =  -0.00000

 Dipole moment (field-independent basis, Debye):
    X=              0.6541    Y=             -0.6086    Z=              0.4904  Tot=              1.0192
 Quadrupole moment (field-independent basis, Debye-Ang):
   XX=           -107.7406   YY=            -65.1804   ZZ=            -74.0926
   XY=             -6.6090   XZ=              1.6765   YZ=             -2.1922

  Exact polarizability: 149.217   3.848 120.780  -1.585   1.489  52.810
 Approx polarizability: 229.619   9.158 216.862  -6.243  11.544  87.829

                      1                      2                      3
                      A                      A                      A
 Frequencies --     41.7044                56.4173               110.8108
 Red. masses --      6.1845                 4.4223                 2.5330
 Frc consts  --      0.0063                 0.0083                 0.0183
 IR Inten    --     10.0121                 0.2226                 0.8046

                      4                      5                      6
                      A                      A                      A
 Frequencies --    126.4975               130.1551               200.1100
 Red. masses --      5.7339                 1.8148                 3.7005
 Frc consts  --      0.0541                 0.0181                 0.0873
 IR Inten    --      7.0380                 2.8277                 2.5846

                      7                      8                      9
                      A                      A                      A
 Frequencies --    226.8680               250.3692               335.8881
 Red. masses --      7.6821                 3.1881                 4.3318
 Frc consts  --      0.2330                 0.1177                 0.2879
 IR Inten    --      0.8305                 3.6580                 1.2578

                     10                     11                     12
                      A                      A                      A
 Frequencies --    366.5224               378.6126               403.4880
 Red. masses --      6.6942                 3.3674                 4.0292
 Frc consts  --      0.5298                 0.2844                 0.3865
 IR Inten    --      2.3946                 0.1750                 0.9833

                     13                     14                     15
                      A                      A                      A
 Frequencies --    435.0546               496.2898               514.2493
 Red. masses --      7.1465                 4.5139                 3.2681
 Frc consts  --      0.7970                 0.6550                 0.5092
 IR Inten    --      2.9188                 2.4774                 0.2492

                     16                     17                     18
                      A                      A                      A
 Frequencies --    548.5245               603.3916               673.2992
 Red. masses --      5.4931                 5.2125                 6.5528
 Frc consts  --      0.9738                 1.1181                 1.7502
 IR Inten    --      0.3420                 1.1383                 8.2206

                     19                     20                     21
                      A                      A                      A
 Frequencies --    708.6459               755.3809               795.6547
 Red. masses --      3.8392                 2.5120                 5.8481
 Frc consts  --      1.1359                 0.8445                 2.1813
 IR Inten    --      0.6144                30.2205                21.9478

                     22                     23                     24
                      A                      A                      A
 Frequencies --    820.8117               824.6190               894.9067
 Red. masses --      2.8527                 2.7284                 5.3977
 Frc consts  --      1.1324                 1.0931                 2.5469
 IR Inten    --      5.9297                 7.3632                14.6226

                     25                     26                     27
                      A                      A                      A
 Frequencies --    926.4489               970.3138               972.2768
 Red. masses --      1.5318                 1.7681                 2.6162
 Frc consts  --      0.7746                 0.9808                 1.4571
 IR Inten    --      2.0672                 1.3173                 5.1543

                     28                     29                     30
                      A                      A                      A
 Frequencies --    999.8126              1055.0186              1060.4873
 Red. masses --      1.3528                 1.6233                 1.6533
 Frc consts  --      0.7967                 1.0645                 1.0955
 IR Inten    --      1.2449                 2.4065                 4.6696

                     31                     32                     33
                      A                      A                      A
 Frequencies --   1115.0949              1176.1565              1200.5104
 Red. masses --      2.2079                 3.4913                 1.2976
 Frc consts  --      1.6175                 2.8456                 1.1018
 IR Inten    --      4.7031                 8.6432                 4.5317

                     34                     35                     36
                      A                      A                      A
 Frequencies --   1228.4066              1243.8310              1280.6809
 Red. masses --      2.5587                 1.0948                 1.8600
 Frc consts  --      2.2749                 0.9980                 1.7974
 IR Inten    --      9.5869                 0.2390                 1.3721

                     37                     38                     39
                      A                      A                      A
 Frequencies --   1315.2223              1364.1453              1398.6494
 Red. masses --      2.4102                 2.7386                12.8792
 Frc consts  --      2.4564                 3.0026                14.8442
 IR Inten    --      8.7291                 3.4118               255.8986

                     40                     41                     42
                      A                      A                      A
 Frequencies --   1434.4688              1465.9577              1479.2696
 Red. masses --      1.1913                 1.1608                 1.4609
 Frc consts  --      1.4443                 1.4697                 1.8835
 IR Inten    --      3.5183                 3.6640                 7.4732

                     43                     44                     45
                      A                      A                      A
 Frequencies --   1491.2427              1507.7618              1516.4228
 Red. masses --      1.8910                 1.3380                 1.4717
 Frc consts  --      2.4777                 1.7921                 1.9940
 IR Inten    --     11.6526                 7.1256                15.6474

                     46                     47                     48
                      A                      A                      A
 Frequencies --   1624.8537              1631.5514              1668.6667
 Red. masses --      7.4764                 6.6706                 7.6286
 Frc consts  --     11.6297                10.4620                12.5151
 IR Inten    --     92.6131                98.2317                45.6301

                     49                     50                     51
                      A                      A                      A
 Frequencies --   2373.7541              3041.0946              3060.7332
 Red. masses --     12.6276                 1.0611                 1.0450
 Frc consts  --     41.9221                 5.7818                 5.7677
 IR Inten    --      6.0609                 2.4418                10.0211

                     52                     53                     54
                      A                      A                      A
 Frequencies --   3076.9072              3125.8554              3175.6576
 Red. masses --      1.0999                 1.0952                 1.0984
 Frc consts  --      6.1353                 6.3048                 6.5266
 IR Inten    --      1.3192                17.2695                 5.3828

                     55                     56                     57
                      A                      A                      A
 Frequencies --   3203.6279              3217.0666              3244.6671
 Red. masses --      1.0881                 1.0943                 1.0937
 Frc consts  --      6.5799                 6.6729                 6.7840
 IR Inten    --      1.5005                 4.5735                 1.3039

 - Thermochemistry -
 -------------------
 Temperature   298.150 Kelvin.  Pressure   1.00000 Atm.
 Atom     1 has atomic number  8 and mass  15.99491

 Molecular mass:   176.05858 amu.
 Principal axes and moments of inertia in atomic units:
                           1         2         3
     Eigenvalues --   973.800833778.484824662.55475
           X            0.99999  -0.00476   0.00092
           Y            0.00477   0.99993  -0.01078
           Z           -0.00087   0.01079   0.99994
 This molecule is an asymmetric top.
 Rotational symmetry number  1.
 Warning -- assumption of classical behavior for rotation
           may cause significant error
 Rotational temperatures (Kelvin)      0.08894     0.02292     0.01858
 Rotational constants (GHZ):           1.85330     0.47764     0.38707
 Zero-point vibrational energy     414774.5 (Joules/Mol)
                                   99.13349 (Kcal/Mol)
 Warning -- explicit consideration of  17 degrees of freedom as
           vibrations may cause significant error
 Vibrational temperatures:     60.00    81.17   159.43   182.00   187.26
          (Kelvin)            287.91   326.41   360.23   483.27   527.34
                              544.74   580.53   625.95   714.05   739.89
                              789.20   868.14   968.73  1019.58  1086.82
                             1144.77  1180.96  1186.44  1287.57  1332.95
                             1396.06  1398.89  1438.51  1517.93  1525.80
                             1604.37  1692.22  1727.26  1767.40  1789.59
                             1842.61  1892.31  1962.70  2012.34  2063.88
                             2109.18  2128.34  2145.56  2169.33  2181.79
                             2337.80  2347.44  2400.84  3415.30  4375.45
                             4403.71  4426.98  4497.40  4569.06  4609.30
                             4628.64  4668.35

 Zero-point correction=                           0.157979 (Hartree/Particle)
 Thermal correction to Energy=                    0.169551
 Thermal correction to Enthalpy=                  0.170495
 Thermal correction to Gibbs Free Energy=         0.119475
 Sum of electronic and zero-point Energies=           -607.466449
 Sum of electronic and thermal Energies=              -607.454877
 Sum of electronic and thermal Enthalpies=            -607.453933
 Sum of electronic and thermal Free Energies=         -607.504954

                     E (Thermal)             CV                S
                      KCal/Mol        Cal/Mol-Kelvin    Cal/Mol-Kelvin
 Total                  106.395             42.585            107.382
 Electronic               0.000              0.000              0.000
 Translational            0.889              2.981             41.404
 Rotational               0.889              2.981             31.218
 Vibrational            104.617             36.623             34.760
 Vibration     1          0.594              1.981              5.176
 Vibration     2          0.596              1.975              4.579
 Vibration     3          0.607              1.941              3.255
 Vibration     4          0.611              1.927              2.999
 Vibration     5          0.612              1.923              2.944
 Vibration     6          0.638              1.840              2.132
 Vibration     7          0.651              1.800              1.904
 Vibration     8          0.663              1.762              1.728
 Vibration     9          0.717              1.604              1.232
 Vibration    10          0.739              1.541              1.094
 Vibration    11          0.749              1.516              1.045
 Vibration    12          0.769              1.463              0.950
 Vibration    13          0.796              1.394              0.842
 Vibration    14          0.852              1.258              0.667
 Vibration    15          0.869              1.218              0.623
 Vibration    16          0.904              1.143              0.547
 Vibration    17          0.962              1.025              0.444

 Optimization completed.
    -- Stationary point found.
 Normal termination of Gaussian 09 at Fri Aug 20 16:02:46 2021.
