 Gaussian 09, Revision E.01,
 Gaussian 09:  ES64L-G09RevE.01 30-Nov-2015

 -------------------------
 #P OPT Freq B3LYP/6-31G**
 -------------------------

 ------
 MADKOT
 ------
 Symbolic Z-matrix:
 Charge =  0 Multiplicity = 1

 SCF Done:  E(RB3LYP) =  -645.765649148     A.U. after   15 cycles
 SCF Done:  E(RB3LYP) =  -645.881620942     A.U. after   13 cycles
 SCF Done:  E(RB3LYP) =  -645.953701908     A.U. after   14 cycles
 SCF Done:  E(RB3LYP) =  -645.955810592     A.U. after   14 cycles
 SCF Done:  E(RB3LYP) =  -645.945382602     A.U. after   15 cycles
 SCF Done:  E(RB3LYP) =  -645.956015032     A.U. after   11 cycles
 SCF Done:  E(RB3LYP) =  -645.956369494     A.U. after   13 cycles
 SCF Done:  E(RB3LYP) =  -645.956434892     A.U. after   13 cycles
 SCF Done:  E(RB3LYP) =  -645.956447364     A.U. after   11 cycles
 SCF Done:  E(RB3LYP) =  -645.956450400     A.U. after   10 cycles
 SCF Done:  E(RB3LYP) =  -645.956450757     A.U. after    9 cycles
 SCF Done:  E(RB3LYP) =  -645.956450880     A.U. after    7 cycles
 SCF Done:  E(RB3LYP) =  -645.956450964     A.U. after    7 cycles
 SCF Done:  E(RB3LYP) =  -645.956451022     A.U. after    7 cycles
 Optimization completed.
    -- Stationary point found.
 Normal termination of Gaussian 09 at Fri Aug 20 15:51:00 2021.

 ----------------------------------------------------------------------
 #P Geom=AllCheck Guess=TCheck SCRF=Check GenChk RB3LYP/6-31G(d,p) Freq
 ----------------------------------------------------------------------

 Structure from the checkpoint file:  "/public/home/users/caep010/.cache/gau_scr/Gau-21314.chk"
 ------
 MADKOT
 ------
 Charge =  0 Multiplicity = 1

                         Standard orientation:
 ---------------------------------------------------------------------
 Center     Atomic      Atomic             Coordinates (Angstroms)
 Number     Number       Type             X           Y           Z
 ---------------------------------------------------------------------
      1          6           0       -3.152162    1.034008    0.436187
      2          6           0       -1.799457    0.949362    0.769627
      3          6           0       -1.054135   -0.137810    0.305003
      4          6           0       -1.718166   -1.096390   -0.467371
      5          6           0       -3.073242   -0.917252   -0.743396
      6          6           0        0.424291   -0.286865    0.624427
      7          6           0        1.314792    0.201436   -0.528899
      8          6           0        1.122562    1.662475   -0.925898
      9          1           0        0.110253    1.816142   -1.304760
     10          7           0       -3.793290    0.125548   -0.308639
     11          7           0        2.767086    0.026835   -0.098777
     12          8           0        3.508242   -0.580613   -0.860553
     13          8           0        0.792174   -1.647184    0.818057
     14          8           0        3.101284    0.547410    0.962920
     15          1           0       -3.749886    1.871354    0.791510
     16          1           0       -1.341716    1.716491    1.388134
     17          1           0       -1.187650   -1.971282   -0.828113
     18          1           0        1.286361    2.320931   -0.069051
     19          1           0       -3.608846   -1.650807   -1.343073
     20          1           0        0.672722    0.318407    1.506791
     21          1           0        1.204991   -0.468647   -1.382746
     22          1           0        0.367662   -1.963976    1.626238
     23          1           0        1.829046    1.934027   -1.714490
 ---------------------------------------------------------------------

 SCF Done:  E(RB3LYP) =  -645.956451022     A.U. after    1 cycles

 The electronic state is 1-A.
 Alpha  occ. eigenvalues --  -19.18505 -19.18376 -19.17460 -14.56710 -14.34211
 Alpha  occ. eigenvalues --  -10.27386 -10.26043 -10.23668 -10.23563 -10.22943
 Alpha  occ. eigenvalues --  -10.21504 -10.21162 -10.20995  -1.22459  -1.05507
 Alpha  occ. eigenvalues --   -1.05048  -0.95229  -0.85618  -0.82080  -0.77401
 Alpha  occ. eigenvalues --   -0.71806  -0.70487  -0.64589  -0.62549  -0.58582
 Alpha  occ. eigenvalues --   -0.55463  -0.54568  -0.52901  -0.51723  -0.50923
 Alpha  occ. eigenvalues --   -0.48915  -0.48159  -0.46542  -0.44061  -0.42870
 Alpha  occ. eigenvalues --   -0.42434  -0.41053  -0.40154  -0.39425  -0.37854
 Alpha  occ. eigenvalues --   -0.35661  -0.31452  -0.31111  -0.30180  -0.29178
 Alpha  occ. eigenvalues --   -0.28662  -0.27592  -0.26573
 Alpha virt. eigenvalues --   -0.06566  -0.04079  -0.02637   0.06185   0.07970
 Alpha virt. eigenvalues --    0.09830   0.10613   0.11725   0.12893   0.14142
 Alpha virt. eigenvalues --    0.14466   0.14930   0.15892   0.16919   0.18203

 Mulliken charges:
               1
     1  C    0.093798
     2  C   -0.131832
     3  C    0.092498
     4  C   -0.124180
     5  C    0.094074
     6  C    0.115372
     7  C    0.033136
     8  C   -0.331692
     9  H    0.137587
    10  N   -0.425062
    11  N    0.464243
    12  O   -0.372554
    13  O   -0.540919
    14  O   -0.381293
    15  H    0.105683
    16  H    0.095725
    17  H    0.111726
    18  H    0.137155
    19  H    0.106457
    20  H    0.117972
    21  H    0.146548
    22  H    0.318166
    23  H    0.137391
 Sum of Mulliken charges =  -0.00000

 Dipole moment (field-independent basis, Debye):
    X=             -2.3636    Y=              0.8278    Z=              0.5530  Tot=              2.5647
 Quadrupole moment (field-independent basis, Debye-Ang):
   XX=           -101.4077   YY=            -69.4511   ZZ=            -71.1373
   XY=              3.7358   XZ=             -3.2204   YZ=             -1.4702

  Exact polarizability: 128.852  -6.182  95.865   5.059  17.977  80.099
 Approx polarizability: 185.273 -16.109 162.302   9.550  50.017 145.161

                      1                      2                      3
                      A                      A                      A
 Frequencies --     43.0567                48.0622                62.4165
 Red. masses --      5.0297                 4.8384                 7.5560
 Frc consts  --      0.0055                 0.0066                 0.0173
 IR Inten    --      0.5068                 2.5563                 0.7574

                      4                      5                      6
                      A                      A                      A
 Frequencies --     84.3058               182.6344               214.4621
 Red. masses --      6.0711                 6.0190                 4.2514
 Frc consts  --      0.0254                 0.1183                 0.1152
 IR Inten    --      4.0914                 3.3216                 0.2380

                      7                      8                      9
                      A                      A                      A
 Frequencies --    233.7926               249.1769               282.7341
 Red. masses --      2.0361                 1.5187                 3.8567
 Frc consts  --      0.0656                 0.0556                 0.1816
 IR Inten    --      2.7934                 0.5552                 0.5954

                     10                     11                     12
                      A                      A                      A
 Frequencies --    300.9545               314.5557               362.6411
 Red. masses --      1.9826                 1.7095                 4.7238
 Frc consts  --      0.1058                 0.0997                 0.3660
 IR Inten    --     45.9297                72.6029                16.2763

                     13                     14                     15
                      A                      A                      A
 Frequencies --    389.1844               486.8863               525.4007
 Red. masses --      2.5933                 4.9458                 5.9228
 Frc consts  --      0.2314                 0.6908                 0.9633
 IR Inten    --      0.4004                15.1189                 4.9234

                     16                     17                     18
                      A                      A                      A
 Frequencies --    566.9729               620.2549               683.2084
 Red. masses --      3.5498                 5.5128                 6.9217
 Frc consts  --      0.6723                 1.2496                 1.9036
 IR Inten    --     20.5316                38.9198                 1.0067

                     19                     20                     21
                      A                      A                      A
 Frequencies --    697.8650               737.9921               765.7728
 Red. masses --      4.3209                 6.3836                 3.7553
 Frc consts  --      1.2398                 2.0484                 1.2975
 IR Inten    --      0.6614                 0.0934                 0.2624

                     22                     23                     24
                      A                      A                      A
 Frequencies --    834.2537               866.8392               882.1541
 Red. masses --      1.4546                 4.6873                 3.3131
 Frc consts  --      0.5965                 2.0751                 1.5190
 IR Inten    --     25.4861                 8.5708                29.5837

                     25                     26                     27
                      A                      A                      A
 Frequencies --    899.2753               918.6401               983.7489
 Red. masses --      1.2499                 2.0023                 1.3042
 Frc consts  --      0.5956                 0.9956                 0.7437
 IR Inten    --      0.1506                 9.3161                 0.2465

                     28                     29                     30
                      A                      A                      A
 Frequencies --   1000.8588              1010.9035              1051.6696
 Red. masses --      1.4533                 7.2845                 2.6903
 Frc consts  --      0.8577                 4.3860                 1.7531
 IR Inten    --      0.0387                 3.5464                14.8786

                     31                     32                     33
                      A                      A                      A
 Frequencies --   1072.7798              1093.3617              1106.1895
 Red. masses --      2.4357                 1.8810                 1.6864
 Frc consts  --      1.6516                 1.3248                 1.2158
 IR Inten    --     69.0250                 2.2748                 1.7194

                     34                     35                     36
                      A                      A                      A
 Frequencies --   1128.1772              1140.1933              1222.6076
 Red. masses --      1.8518                 1.9736                 2.3750
 Frc consts  --      1.3887                 1.5117                 2.0917
 IR Inten    --      4.8278                12.7697                 4.9762

                     37                     38                     39
                      A                      A                      A
 Frequencies --   1250.3241              1255.8500              1290.7023
 Red. masses --      1.3171                 1.5090                 2.5169
 Frc consts  --      1.2132                 1.4022                 2.4704
 IR Inten    --      3.3007                10.1480                37.5901

                     40                     41                     42
                      A                      A                      A
 Frequencies --   1309.7399              1335.8756              1349.2433
 Red. masses --      1.7553                 1.6176                 1.4036
 Frc consts  --      1.7740                 1.7008                 1.5055
 IR Inten    --     24.0513                23.0025                 5.2310

                     43                     44                     45
                      A                      A                      A
 Frequencies --   1381.0775              1408.8785              1417.7218
 Red. masses --      1.3874                 1.8916                 1.3704
 Frc consts  --      1.5592                 2.2122                 1.6228
 IR Inten    --      9.9833                54.9371                 3.0854

                     46                     47                     48
                      A                      A                      A
 Frequencies --   1445.9953              1454.5101              1504.2760
 Red. masses --      2.5934                 2.0234                 1.0495
 Frc consts  --      3.1949                 2.5221                 1.3992
 IR Inten    --     65.0733                23.5110                12.3199

                     49                     50                     51
                      A                      A                      A
 Frequencies --   1517.4770              1534.6818              1618.0487
 Red. masses --      1.0515                 2.1466                 6.9116
 Frc consts  --      1.4266                 2.9788                10.6614
 IR Inten    --      9.7172                 1.0224                18.9843

                     52                     53                     54
                      A                      A                      A
 Frequencies --   1649.4734              1674.5799              3037.7432
 Red. masses --      5.4120                10.2293                 1.0842
 Frc consts  --      8.6756                16.9009                 5.8945
 IR Inten    --     39.3892               213.9739                12.4272

                     55                     56                     57
                      A                      A                      A
 Frequencies --   3067.9445              3132.4781              3147.4878
 Red. masses --      1.0349                 1.0901                 1.1013
 Frc consts  --      5.7393                 6.3022                 6.4281
 IR Inten    --      7.4084                 2.3214                 8.9832

                     58                     59                     60
                      A                      A                      A
 Frequencies --   3157.4233              3166.4195              3169.8758
 Red. masses --      1.1023                 1.0876                 1.0907
 Frc consts  --      6.4747                 6.4246                 6.4571
 IR Inten    --      8.2399                22.6067                20.3387

                     61                     62                     63
                      A                      A                      A
 Frequencies --   3192.3989              3215.1081              3821.7525
 Red. masses --      1.0944                 1.0931                 1.0666
 Frc consts  --      6.5715                 6.6573                 9.1788
 IR Inten    --     12.5239                 3.2925                33.5623

 - Thermochemistry -
 -------------------
 Temperature   298.150 Kelvin.  Pressure   1.00000 Atm.
 Atom     1 has atomic number  6 and mass  12.00000

 Molecular mass:   182.06914 amu.
 Principal axes and moments of inertia in atomic units:
                           1         2         3
     Eigenvalues --   929.200904138.111044399.06816
           X            0.99998   0.00499  -0.00246
           Y           -0.00500   0.99998  -0.00325
           Z            0.00244   0.00326   0.99999
 This molecule is an asymmetric top.
 Rotational symmetry number  1.
 Warning -- assumption of classical behavior for rotation
           may cause significant error
 Rotational temperatures (Kelvin)      0.09321     0.02093     0.01969
 Rotational constants (GHZ):           1.94225     0.43613     0.41026
 Zero-point vibrational energy     475940.7 (Joules/Mol)
                                  113.75255 (Kcal/Mol)
 Warning -- explicit consideration of  17 degrees of freedom as
           vibrations may cause significant error
 Vibrational temperatures:     61.95    69.15    89.80   121.30   262.77
          (Kelvin)            308.56   336.37   358.51   406.79   433.01
                              452.57   521.76   559.95   700.52   755.93
                              815.75   892.41   982.98  1004.07  1061.80
                             1101.77  1200.30  1247.19  1269.22  1293.85
                             1321.72  1415.39  1440.01  1454.46  1513.12
                             1543.49  1573.10  1591.56  1623.19  1640.48
                             1759.06  1798.94  1806.89  1857.03  1884.42
                             1922.02  1941.26  1987.06  2027.06  2039.78
                             2080.46  2092.71  2164.31  2183.31  2208.06
                             2328.01  2373.22  2409.34  4370.63  4414.08
                             4506.93  4528.53  4542.82  4555.77  4560.74
                             4593.14  4625.82  5498.64

 Zero-point correction=                           0.181276 (Hartree/Particle)
 Thermal correction to Energy=                    0.193310
 Thermal correction to Enthalpy=                  0.194254
 Thermal correction to Gibbs Free Energy=         0.141861
 Sum of electronic and zero-point Energies=           -645.775175
 Sum of electronic and thermal Energies=              -645.763141
 Sum of electronic and thermal Enthalpies=            -645.762197
 Sum of electronic and thermal Free Energies=         -645.814590

                     E (Thermal)             CV                S
                      KCal/Mol        Cal/Mol-Kelvin    Cal/Mol-Kelvin
 Total                  121.304             44.281            110.270
 Electronic               0.000              0.000              0.000
 Translational            0.889              2.981             41.504
 Rotational               0.889              2.981             31.204
 Vibrational            119.526             38.320             37.562
 Vibration     1          0.595              1.980              5.113
 Vibration     2          0.595              1.978              4.896
 Vibration     3          0.597              1.972              4.379
 Vibration     4          0.601              1.960              3.788
 Vibration     5          0.630              1.863              2.301
 Vibration     6          0.644              1.819              2.005
 Vibration     7          0.654              1.789              1.850
 Vibration     8          0.662              1.764              1.736
 Vibration     9          0.682              1.706              1.517
 Vibration    10          0.693              1.672              1.412
 Vibration    11          0.702              1.646              1.338
 Vibration    12          0.736              1.549              1.111
 Vibration    13          0.757              1.493              1.003
 Vibration    14          0.843              1.279              0.692
 Vibration    15          0.880              1.194              0.598
 Vibration    16          0.923              1.103              0.510
 Vibration    17          0.980              0.989              0.416

 Optimization completed.
    -- Stationary point found.
 Normal termination of Gaussian 09 at Fri Aug 20 15:51:42 2021.
