 Gaussian 09, Revision E.01,
 Gaussian 09:  ES64L-G09RevE.01 30-Nov-2015

 -------------------------
 #P OPT Freq B3LYP/6-31G**
 -------------------------

 ------
 RIYTID
 ------
 Symbolic Z-matrix:
 Charge =  0 Multiplicity = 1

 SCF Done:  E(RB3LYP) =  -568.206803505     A.U. after   17 cycles
 SCF Done:  E(RB3LYP) =  -568.287585022     A.U. after   14 cycles
 SCF Done:  E(RB3LYP) =  -568.316361769     A.U. after   16 cycles
 SCF Done:  E(RB3LYP) =  -568.299904266     A.U. after   18 cycles
 SCF Done:  E(RB3LYP) =  -568.317698202     A.U. after   13 cycles
 SCF Done:  E(RB3LYP) =  -568.318020288     A.U. after   13 cycles
 SCF Done:  E(RB3LYP) =  -568.318051694     A.U. after   12 cycles
 SCF Done:  E(RB3LYP) =  -568.318056862     A.U. after   10 cycles
 SCF Done:  E(RB3LYP) =  -568.318057565     A.U. after   10 cycles
 SCF Done:  E(RB3LYP) =  -568.318057678     A.U. after    9 cycles
 SCF Done:  E(RB3LYP) =  -568.318057729     A.U. after    8 cycles
 SCF Done:  E(RB3LYP) =  -568.318057802     A.U. after    8 cycles
 SCF Done:  E(RB3LYP) =  -568.318057882     A.U. after    7 cycles
 SCF Done:  E(RB3LYP) =  -568.318057915     A.U. after    8 cycles
 Optimization completed.
    -- Stationary point found.
 Normal termination of Gaussian 09 at Fri Aug 20 15:58:50 2021.

 ----------------------------------------------------------------------
 #P Geom=AllCheck Guess=TCheck SCRF=Check GenChk RB3LYP/6-31G(d,p) Freq
 ----------------------------------------------------------------------

 Structure from the checkpoint file:  "/public/home/users/caep010/.cache/gau_scr/Gau-138011.chk"
 ------
 RIYTID
 ------
 Charge =  0 Multiplicity = 1

                         Standard orientation:
 ---------------------------------------------------------------------
 Center     Atomic      Atomic             Coordinates (Angstroms)
 Number     Number       Type             X           Y           Z
 ---------------------------------------------------------------------
      1          7           0       -2.556716    0.332972    0.000002
      2          6           0       -1.150154   -0.102576   -0.000020
      3          6           0       -0.149707    0.860868   -0.000010
      4          1           0       -0.409544    1.911493   -0.000012
      5          8           0       -3.420822   -0.542101    0.000291
      6          8           0       -2.777537    1.542540   -0.000254
      7          6           0       -0.859944   -1.464297   -0.000044
      8          6           0        0.473188   -1.865176   -0.000063
      9          1           0        0.708702   -2.924659   -0.000101
     10          6           0        1.520486   -0.936870   -0.000039
     11          1           0       -1.671475   -2.181042   -0.000034
     12          6           0        2.958918   -1.380278   -0.000033
     13          1           0        3.034715   -2.469447   -0.000114
     14          6           0        1.185116    0.439470   -0.000009
     15          6           0        2.228443    1.424595    0.000069
     16          7           0        3.086508    2.209800    0.000117
     17          1           0        3.488895   -0.996909    0.878432
     18          1           0        3.488951   -0.996771   -0.878405
 ---------------------------------------------------------------------

 SCF Done:  E(RB3LYP) =  -568.318057915     A.U. after    1 cycles

 The electronic state is 1-A.
 Alpha  occ. eigenvalues --  -19.19502 -19.19498 -14.58664 -14.35392 -10.27309
 Alpha  occ. eigenvalues --  -10.26410 -10.25638 -10.24801 -10.24568 -10.24328
 Alpha  occ. eigenvalues --  -10.23586 -10.21664  -1.23861  -1.06614  -0.93000
 Alpha  occ. eigenvalues --   -0.90959  -0.84427  -0.80785  -0.76323  -0.69356
 Alpha  occ. eigenvalues --   -0.67683  -0.62824  -0.57871  -0.54599  -0.53489
 Alpha  occ. eigenvalues --   -0.52605  -0.50797  -0.50439  -0.47413  -0.45901
 Alpha  occ. eigenvalues --   -0.42719  -0.40901  -0.40783  -0.39913  -0.37374
 Alpha  occ. eigenvalues --   -0.36869  -0.34942  -0.32310  -0.32071  -0.30499
 Alpha  occ. eigenvalues --   -0.29684  -0.28773
 Alpha virt. eigenvalues --   -0.10440  -0.07232  -0.02223   0.01808   0.06420
 Alpha virt. eigenvalues --    0.06490   0.09881   0.11015   0.13211   0.14335
 Alpha virt. eigenvalues --    0.15475   0.17072   0.17235   0.19023   0.20805

 Mulliken charges:
               1
     1  N    0.388202
     2  C    0.241197
     3  C   -0.080082
     4  H    0.162068
     5  O   -0.390881
     6  O   -0.388783
     7  C   -0.070428
     8  C   -0.141184
     9  H    0.111646
    10  C    0.149281
    11  H    0.148303
    12  C   -0.385060
    13  H    0.122367
    14  C    0.060764
    15  C    0.240787
    16  N   -0.471888
    17  H    0.151846
    18  H    0.151844
 Sum of Mulliken charges =  -0.00000

 Dipole moment (field-independent basis, Debye):
    X=              1.8074    Y=             -4.3548    Z=             -0.0002  Tot=              4.7149
 Quadrupole moment (field-independent basis, Debye-Ang):
   XX=            -85.3673   YY=            -68.8268   ZZ=            -66.9264
   XY=             -8.6759   XZ=             -0.0000   YZ=              0.0008

  Exact polarizability: 145.797   8.991 116.106  -0.000  -0.001  41.296
 Approx polarizability: 231.487  32.096 222.175  -0.002  -0.008  63.577

                      1                      2                      3
                      A                      A                      A
 Frequencies --     55.3019                86.2479               113.7332
 Red. masses --     13.8363                 1.1681                 2.9979
 Frc consts  --      0.0249                 0.0051                 0.0228
 IR Inten    --      0.7820                 0.3083                 1.7980

                      4                      5                      6
                      A                      A                      A
 Frequencies --    126.7672               143.2757               224.2681
 Red. masses --     10.8657                 5.4101                 5.1891
 Frc consts  --      0.1029                 0.0654                 0.1538
 IR Inten    --      6.8139                 3.0190                 0.1906

                      7                      8                      9
                      A                      A                      A
 Frequencies --    288.3249               350.6081               360.8385
 Red. masses --      4.8193                 4.1208                 8.5309
 Frc consts  --      0.2360                 0.2984                 0.6544
 IR Inten    --      1.7111                 0.7378                 1.8738

                     10                     11                     12
                      A                      A                      A
 Frequencies --    402.0041               456.2671               475.4697
 Red. masses --      4.4066                 7.8098                 3.2692
 Frc consts  --      0.4196                 0.9579                 0.4354
 IR Inten    --      1.5633                 0.5161                 5.7635

                     13                     14                     15
                      A                      A                      A
 Frequencies --    528.1790               591.9394               592.0494
 Red. masses --      9.2128                 6.5030                 5.1322
 Frc consts  --      1.5143                 1.3425                 1.0599
 IR Inten    --      0.5423                 2.4923                 1.1065

                     16                     17                     18
                      A                      A                      A
 Frequencies --    660.0325               723.8445               749.2132
 Red. masses --      7.0086                 3.7690                 5.1911
 Frc consts  --      1.7989                 1.1635                 1.7168
 IR Inten    --      3.4948                 0.9569                22.8048

                     19                     20                     21
                      A                      A                      A
 Frequencies --    758.0118               814.4953               859.0443
 Red. masses --      5.3294                 8.6970                 1.3740
 Frc consts  --      1.8042                 3.3993                 0.5974
 IR Inten    --      4.8603                32.8307                 9.9534

                     22                     23                     24
                      A                      A                      A
 Frequencies --    934.6235               945.2558               993.9672
 Red. masses --      5.8413                 1.4474                 1.3300
 Frc consts  --      3.0063                 0.7620                 0.7742
 IR Inten    --     16.6778                 9.8386                 0.5909

                     25                     26                     27
                      A                      A                      A
 Frequencies --   1025.6675              1064.7442              1103.5222
 Red. masses --      1.5128                 1.5512                 1.9641
 Frc consts  --      0.9376                 1.0361                 1.4092
 IR Inten    --      3.0873                 5.3014                31.1800

                     28                     29                     30
                      A                      A                      A
 Frequencies --   1161.1303              1200.5196              1245.0478
 Red. masses --      1.6005                 2.7693                 3.4855
 Frc consts  --      1.2713                 2.3515                 3.1834
 IR Inten    --      6.4992                10.0083                 2.4361

                     31                     32                     33
                      A                      A                      A
 Frequencies --   1295.0052              1355.7803              1398.9191
 Red. masses --      1.3932                 8.2082                13.8074
 Frc consts  --      1.3766                 8.8895                15.9202
 IR Inten    --      8.9420                 3.3724               330.1387

                     34                     35                     36
                      A                      A                      A
 Frequencies --   1431.3528              1442.4404              1493.5574
 Red. masses --      1.2470                 3.2938                 1.0418
 Frc consts  --      1.5053                 4.0378                 1.3692
 IR Inten    --      3.5662                 0.0316                 8.3967

                     37                     38                     39
                      A                      A                      A
 Frequencies --   1503.5232              1519.6650              1612.4889
 Red. masses --      1.2047                 2.5984                 8.0597
 Frc consts  --      1.6045                 3.5354                12.3470
 IR Inten    --      6.5530                16.4152                63.1600

                     40                     41                     42
                      A                      A                      A
 Frequencies --   1643.1546              1674.4315              2349.9891
 Red. masses --      7.4343                 9.0732                12.6804
 Frc consts  --     11.8262                14.9881                41.2585
 IR Inten    --     62.1800                99.5654                14.6788

                     43                     44                     45
                      A                      A                      A
 Frequencies --   3052.2230              3110.4809              3145.6779
 Red. masses --      1.0374                 1.1004                 1.1025
 Frc consts  --      5.6942                 6.2726                 6.4277
 IR Inten    --      5.0578                 4.8923                11.7502

                     46                     47                     48
                      A                      A                      A
 Frequencies --   3203.5039              3246.7230              3251.3186
 Red. masses --      1.0907                 1.0931                 1.0926
 Frc consts  --      6.5949                 6.7889                 6.8048
 IR Inten    --      6.4927                 3.2204                 6.5400

 - Thermochemistry -
 -------------------
 Temperature   298.150 Kelvin.  Pressure   1.00000 Atm.
 Atom     1 has atomic number  7 and mass  14.00307

 Molecular mass:   162.04293 amu.
 Principal axes and moments of inertia in atomic units:
                           1         2         3
     Eigenvalues --   983.233312896.984103869.10914
           X            0.99966  -0.02610  -0.00000
           Y            0.02610   0.99966   0.00000
           Z            0.00000  -0.00000   1.00000
 This molecule is an asymmetric top.
 Rotational symmetry number  1.
 Warning -- assumption of classical behavior for rotation
           may cause significant error
 Rotational temperatures (Kelvin)      0.08809     0.02990     0.02239
 Rotational constants (GHZ):           1.83552     0.62297     0.46645
 Zero-point vibrational energy     339527.9 (Joules/Mol)
                                   81.14911 (Kcal/Mol)
 Warning -- explicit consideration of  15 degrees of freedom as
           vibrations may cause significant error
 Vibrational temperatures:     79.57   124.09   163.64   182.39   206.14
          (Kelvin)            322.67   414.83   504.45   519.17   578.39
                              656.47   684.09   759.93   851.67   851.83
                              949.64  1041.45  1077.95  1090.61  1171.88
                             1235.97  1344.71  1360.01  1430.10  1475.70
                             1531.93  1587.72  1670.61  1727.28  1791.34
                             1863.22  1950.66  2012.73  2059.39  2075.35
                             2148.89  2163.23  2186.46  2320.01  2364.13
                             2409.13  3381.11  4391.46  4475.28  4525.92
                             4609.12  4671.30  4677.92

 Zero-point correction=                           0.129319 (Hartree/Particle)
 Thermal correction to Energy=                    0.139683
 Thermal correction to Enthalpy=                  0.140627
 Thermal correction to Gibbs Free Energy=         0.092525
 Sum of electronic and zero-point Energies=           -568.188739
 Sum of electronic and thermal Energies=              -568.178375
 Sum of electronic and thermal Enthalpies=            -568.177431
 Sum of electronic and thermal Free Energies=         -568.225533

                     E (Thermal)             CV                S
                      KCal/Mol        Cal/Mol-Kelvin    Cal/Mol-Kelvin
 Total                   87.652             37.794            101.240
 Electronic               0.000              0.000              0.000
 Translational            0.889              2.981             41.157
 Rotational               0.889              2.981             30.778
 Vibrational             85.875             31.833             29.305
 Vibration     1          0.596              1.975              4.618
 Vibration     2          0.601              1.959              3.743
 Vibration     3          0.607              1.938              3.204
 Vibration     4          0.611              1.926              2.995
 Vibration     5          0.616              1.910              2.760
 Vibration     6          0.649              1.804              1.924
 Vibration     7          0.685              1.695              1.484
 Vibration     8          0.728              1.574              1.163
 Vibration     9          0.735              1.553              1.118
 Vibration    10          0.768              1.466              0.955
 Vibration    11          0.814              1.347              0.777
 Vibration    12          0.832              1.304              0.722
 Vibration    13          0.883              1.188              0.591
 Vibration    14          0.949              1.049              0.464
 Vibration    15          0.950              1.049              0.464

 Optimization completed.
    -- Stationary point found.
 Normal termination of Gaussian 09 at Fri Aug 20 15:59:16 2021.
