 Gaussian 09, Revision E.01,
 Gaussian 09:  ES64L-G09RevE.01 30-Nov-2015

 -------------------------
 #P OPT Freq B3LYP/6-31G**
 -------------------------

 ------
 WUMHES
 ------
 Symbolic Z-matrix:
 Charge =  0 Multiplicity = 1

 SCF Done:  E(RB3LYP) =  -686.267532177     A.U. after   19 cycles
 SCF Done:  E(RB3LYP) =  -686.379648974     A.U. after   13 cycles
 SCF Done:  E(RB3LYP) =  -686.461104786     A.U. after   14 cycles
 SCF Done:  E(RB3LYP) =  -686.462999671     A.U. after   15 cycles
 SCF Done:  E(RB3LYP) =  -686.457770346     A.U. after   15 cycles
 SCF Done:  E(RB3LYP) =  -686.463239427     A.U. after   11 cycles
 SCF Done:  E(RB3LYP) =  -686.463484220     A.U. after   13 cycles
 SCF Done:  E(RB3LYP) =  -686.463564578     A.U. after   14 cycles
 SCF Done:  E(RB3LYP) =  -686.463597210     A.U. after   12 cycles
 SCF Done:  E(RB3LYP) =  -686.463612361     A.U. after   12 cycles
 SCF Done:  E(RB3LYP) =  -686.463618048     A.U. after   10 cycles
 SCF Done:  E(RB3LYP) =  -686.463620534     A.U. after    9 cycles
 SCF Done:  E(RB3LYP) =  -686.463620797     A.U. after    8 cycles
 SCF Done:  E(RB3LYP) =  -686.463621081     A.U. after    8 cycles
 Optimization completed.
    -- Stationary point found.
 Normal termination of Gaussian 09 at Fri Aug 20 15:41:13 2021.

 ----------------------------------------------------------------------
 #P Geom=AllCheck Guess=TCheck SCRF=Check GenChk RB3LYP/6-31G(d,p) Freq
 ----------------------------------------------------------------------

 Structure from the checkpoint file:  "/public/home/users/caep010/.cache/gau_scr/Gau-102869.chk"
 ------
 WUMHES
 ------
 Charge =  0 Multiplicity = 1

                         Standard orientation:
 ---------------------------------------------------------------------
 Center     Atomic      Atomic             Coordinates (Angstroms)
 Number     Number       Type             X           Y           Z
 ---------------------------------------------------------------------
      1          8           0       -3.489021   -1.232426   -0.211515
      2          6           0       -2.590315   -0.508683   -0.605964
      3          7           0       -1.370561   -0.384912   -0.000883
      4          6           0       -0.242475    0.379953   -0.569680
      5          6           0        0.922629   -0.571025   -0.259774
      6          6           0        0.488607   -1.599269    0.762238
      7          1           0       -0.391081    0.467846   -1.652179
      8          1           0        1.172136   -1.883897    1.553182
      9          1           0       -2.680684    0.128900   -1.505434
     10          6           0       -0.969058   -1.303128    1.074865
     11          1           0       -1.618200   -2.181382    1.041912
     12          1           0       -1.069798   -0.837966    2.061621
     13          6           0        0.783605   -2.035028   -0.639940
     14          7           0        2.310546   -0.079130   -0.278234
     15          8           0        3.142817   -0.692751    0.388614
     16          8           0        2.561321    0.880014   -1.006866
     17          1           0       -0.033509   -2.299488   -1.305035
     18          1           0        1.716186   -2.563397   -0.803055
     19          6           0       -0.111759    1.815533    0.009109
     20          6           0       -1.320812    2.668012   -0.401654
     21          1           0       -1.182515    3.702436   -0.072725
     22          1           0       -1.455420    2.683233   -1.488938
     23          1           0       -2.247362    2.299374    0.051315
     24          6           0        0.089570    1.855230    1.531083
     25          1           0       -0.795329    1.484071    2.058705
     26          1           0        0.954437    1.269262    1.858315
     27          1           0        0.255324    2.886115    1.858388
     28          1           0        0.775038    2.244905   -0.465813
 ---------------------------------------------------------------------

 SCF Done:  E(RB3LYP) =  -686.463621081     A.U. after    1 cycles

 The electronic state is 1-A.
 Alpha  occ. eigenvalues --  -19.19463 -19.19355 -19.12643 -14.58372 -14.38154
 Alpha  occ. eigenvalues --  -10.29293 -10.27411 -10.26095 -10.24373 -10.23438
 Alpha  occ. eigenvalues --  -10.23057 -10.20660 -10.18880 -10.18785  -1.23676
 Alpha  occ. eigenvalues --   -1.06417  -1.04369  -0.97807  -0.89976  -0.82190
 Alpha  occ. eigenvalues --   -0.77386  -0.73151  -0.71843  -0.69612  -0.62731
 Alpha  occ. eigenvalues --   -0.61101  -0.58305  -0.57313  -0.55439  -0.54092
 Alpha  occ. eigenvalues --   -0.52220  -0.51828  -0.49677  -0.47354  -0.46595
 Alpha  occ. eigenvalues --   -0.45534  -0.44328  -0.43716  -0.40861  -0.40356
 Alpha  occ. eigenvalues --   -0.39814  -0.39463  -0.39054  -0.36702  -0.35931
 Alpha  occ. eigenvalues --   -0.34860  -0.33241  -0.32885  -0.31905  -0.31053
 Alpha  occ. eigenvalues --   -0.29634  -0.26306  -0.25769
 Alpha virt. eigenvalues --   -0.07928   0.00875   0.06419   0.07431   0.08925
 Alpha virt. eigenvalues --    0.10042   0.11166   0.11831   0.12527   0.13262
 Alpha virt. eigenvalues --    0.14188   0.14557   0.14733   0.16268   0.16881

 Mulliken charges:
               1
     1  O   -0.473855
     2  C    0.404837
     3  N   -0.437264
     4  C    0.077535
     5  C    0.144585
     6  C   -0.111478
     7  H    0.119739
     8  H    0.144652
     9  H    0.073453
    10  C   -0.013006
    11  H    0.150494
    12  H    0.124899
    13  C   -0.218466
    14  N    0.420447
    15  O   -0.386652
    16  O   -0.388276
    17  H    0.139945
    18  H    0.152671
    19  C   -0.058651
    20  C   -0.328060
    21  H    0.111830
    22  H    0.101463
    23  H    0.114373
    24  C   -0.330280
    25  H    0.113428
    26  H    0.106472
    27  H    0.113913
    28  H    0.131253
 Sum of Mulliken charges =  -0.00000

 Dipole moment (field-independent basis, Debye):
    X=              0.1089    Y=              0.2091    Z=              0.1083  Tot=              0.2594
 Quadrupole moment (field-independent basis, Debye-Ang):
   XX=           -109.1256   YY=            -79.4844   ZZ=            -78.9612
   XY=             -8.5188   XZ=              1.3267   YZ=              1.0958

  Exact polarizability: 123.678   3.962 114.835   4.748  -7.457  95.742
 Approx polarizability: 181.858  12.391 174.684   8.234 -26.921 158.757

                      1                      2                      3
                      A                      A                      A
 Frequencies --     54.8990                58.4402                67.8805
 Red. masses --      4.7348                10.0100                 3.4769
 Frc consts  --      0.0084                 0.0201                 0.0094
 IR Inten    --      2.5873                 0.5109                 1.7988

                      4                      5                      6
                      A                      A                      A
 Frequencies --    113.4484               160.3316               181.6518
 Red. masses --      5.1297                 3.7291                 4.6472
 Frc consts  --      0.0389                 0.0565                 0.0903
 IR Inten    --      3.1803                 1.2627                 6.2237

                      7                      8                      9
                      A                      A                      A
 Frequencies --    227.3613               247.4201               261.0288
 Red. masses --      2.3630                 1.2913                 1.3400
 Frc consts  --      0.0720                 0.0466                 0.0538
 IR Inten    --      4.9216                 0.5723                 0.3219

                     10                     11                     12
                      A                      A                      A
 Frequencies --    270.8208               286.9541               312.9450
 Red. masses --      2.7531                 2.5370                 4.1189
 Frc consts  --      0.1190                 0.1231                 0.2377
 IR Inten    --      2.0698                 3.8465                 0.5754

                     13                     14                     15
                      A                      A                      A
 Frequencies --    326.0253               348.4383               386.7502
 Red. masses --      3.3180                 2.8880                 3.4223
 Frc consts  --      0.2078                 0.2066                 0.3016
 IR Inten    --      1.2569                 4.3131                11.8831

                     16                     17                     18
                      A                      A                      A
 Frequencies --    399.8390               436.0823               488.6318
 Red. masses --      2.5270                 2.9478                 4.3673
 Frc consts  --      0.2380                 0.3303                 0.6144
 IR Inten    --      3.4347                 1.1061                 2.1968

                     19                     20                     21
                      A                      A                      A
 Frequencies --    551.6729               641.8348               699.1555
 Red. masses --      3.4403                 3.6090                 3.9299
 Frc consts  --      0.6169                 0.8760                 1.1318
 IR Inten    --      1.5221                 5.8403                27.1304

                     22                     23                     24
                      A                      A                      A
 Frequencies --    742.5371               781.9368               806.0128
 Red. masses --      6.7114                 4.5768                 3.4882
 Frc consts  --      2.1802                 1.6487                 1.3352
 IR Inten    --      9.1923                 0.7158                 3.4076

                     25                     26                     27
                      A                      A                      A
 Frequencies --    836.7001               863.3026               874.6765
 Red. masses --      4.2682                 2.4882                 2.2147
 Frc consts  --      1.7605                 1.0926                 0.9983
 IR Inten    --      5.1194                11.4728                 8.5676

                     28                     29                     30
                      A                      A                      A
 Frequencies --    928.8644               934.9710               940.7667
 Red. masses --      1.6394                 1.9139                 1.4558
 Frc consts  --      0.8334                 0.9858                 0.7591
 IR Inten    --      3.7405                21.1966                 1.1531

                     31                     32                     33
                      A                      A                      A
 Frequencies --    959.2049               972.9089               990.5927
 Red. masses --      2.7761                 1.6306                 2.2602
 Frc consts  --      1.5049                 0.9094                 1.3068
 IR Inten    --      1.6044                 1.1240                11.4140

                     34                     35                     36
                      A                      A                      A
 Frequencies --   1028.1174              1056.5020              1061.4738
 Red. masses --      1.6006                 1.8634                 1.5163
 Frc consts  --      0.9968                 1.2255                 1.0066
 IR Inten    --      0.1691                17.9089                 0.7594

                     37                     38                     39
                      A                      A                      A
 Frequencies --   1084.2071              1108.2722              1114.6684
 Red. masses --      1.3590                 1.5434                 1.6788
 Frc consts  --      0.9412                 1.1169                 1.2290
 IR Inten    --     11.2232                10.3700                19.2955

                     40                     41                     42
                      A                      A                      A
 Frequencies --   1137.8234              1179.7036              1208.6239
 Red. masses --      2.3377                 2.1165                 1.8558
 Frc consts  --      1.7832                 1.7355                 1.5972
 IR Inten    --      0.9785                17.0982                 5.5729

                     43                     44                     45
                      A                      A                      A
 Frequencies --   1216.8253              1244.5320              1273.6801
 Red. masses --      1.8686                 1.9402                 1.4057
 Frc consts  --      1.6301                 1.7705                 1.3436
 IR Inten    --      9.4454                27.1183                 4.9304

                     46                     47                     48
                      A                      A                      A
 Frequencies --   1296.4834              1335.9414              1357.5706
 Red. masses --      2.5154                 1.3215                 1.6840
 Frc consts  --      2.4911                 1.3896                 1.8286
 IR Inten    --     34.2249                 3.3395                11.0394

                     49                     50                     51
                      A                      A                      A
 Frequencies --   1364.8514              1385.4636              1394.2001
 Red. masses --      1.6707                 1.5034                 1.8121
 Frc consts  --      1.8336                 1.7003                 2.0753
 IR Inten    --      7.9484                15.5730                23.8405

                     52                     53                     54
                      A                      A                      A
 Frequencies --   1414.1592              1417.8948              1422.8768
 Red. masses --      2.4086                 1.4611                 2.6332
 Frc consts  --      2.8380                 1.7307                 3.1410
 IR Inten    --    235.4396                32.5250                19.5643

                     55                     56                     57
                      A                      A                      A
 Frequencies --   1439.0501              1445.2576              1483.2984
 Red. masses --      1.2504                 1.6254                 1.3975
 Frc consts  --      1.5256                 2.0004                 1.8115
 IR Inten    --     13.2080                10.8305                 7.1288

                     58                     59                     60
                      A                      A                      A
 Frequencies --   1500.7097              1511.6242              1520.2706
 Red. masses --      1.0449                 1.0537                 1.0441
 Frc consts  --      1.3865                 1.4186                 1.4218
 IR Inten    --      2.0462                 2.1805                13.4108

                     61                     62                     63
                      A                      A                      A
 Frequencies --   1524.6301              1537.2723              1638.9811
 Red. masses --      1.0630                 1.0738                13.3552
 Frc consts  --      1.4559                 1.4951                21.1372
 IR Inten    --      7.2440                 5.4046               219.0118

                     64                     65                     66
                      A                      A                      A
 Frequencies --   1791.9520              2975.7771              3041.0754
 Red. masses --      8.5489                 1.0856                 1.0362
 Frc consts  --     16.1739                 5.6638                 5.6459
 IR Inten    --    406.8697                60.1197                24.8974

                     67                     68                     69
                      A                      A                      A
 Frequencies --   3046.7536              3060.5275              3062.1161
 Red. masses --      1.0374                 1.0794                 1.0702
 Frc consts  --      5.6738                 5.9567                 5.9122
 IR Inten    --      7.7196                42.7485                 9.1994

                     70                     71                     72
                      A                      A                      A
 Frequencies --   3089.5143              3111.8034              3116.7428
 Red. masses --      1.0865                 1.1018                 1.1017
 Frc consts  --      6.1104                 6.2859                 6.3053
 IR Inten    --      0.3282                20.9908                 2.1039

                     73                     74                     75
                      A                      A                      A
 Frequencies --   3118.7296              3123.6387              3125.3092
 Red. masses --      1.1017                 1.0998                 1.1003
 Frc consts  --      6.3137                 6.3222                 6.3322
 IR Inten    --     33.2616                37.2819                17.5787

                     76                     77                     78
                      A                      A                      A
 Frequencies --   3150.4274              3223.3279              3249.2190
 Red. masses --      1.0550                 1.0921                 1.1174
 Frc consts  --      6.1696                 6.6854                 6.9507
 IR Inten    --      2.8858                 0.1177                 0.2629

 - Thermochemistry -
 -------------------
 Temperature   298.150 Kelvin.  Pressure   1.00000 Atm.
 Atom     1 has atomic number  8 and mass  15.99491

 Molecular mass:   198.10044 amu.
 Principal axes and moments of inertia in atomic units:
                           1         2         3
     Eigenvalues --  1787.861472977.366943949.85725
           X            0.99913  -0.04124   0.00561
           Y            0.04118   0.99910   0.01013
           Z           -0.00602  -0.00990   0.99993
 This molecule is an asymmetric top.
 Rotational symmetry number  1.
 Warning -- assumption of classical behavior for rotation
           may cause significant error
 Rotational temperatures (Kelvin)      0.04845     0.02909     0.02193
 Rotational constants (GHZ):           1.00944     0.60615     0.45691
 Zero-point vibrational energy     610968.5 (Joules/Mol)
                                  146.02499 (Kcal/Mol)
 Warning -- explicit consideration of  19 degrees of freedom as
           vibrations may cause significant error
 Vibrational temperatures:     78.99    84.08    97.66   163.23   230.68
          (Kelvin)            261.36   327.12   355.98   375.56   389.65
                              412.86   450.26   469.08   501.32   556.45
                              575.28   627.42   703.03   793.73   923.46
                             1005.93  1068.34  1125.03  1159.67  1203.82
                             1242.10  1258.46  1336.43  1345.21  1353.55
                             1380.08  1399.80  1425.24  1479.23  1520.07
                             1527.22  1559.93  1594.55  1603.76  1637.07
                             1697.33  1738.94  1750.74  1790.60  1832.54
                             1865.35  1922.12  1953.24  1963.71  1993.37
                             2005.94  2034.66  2040.03  2047.20  2070.47
                             2079.40  2134.13  2159.18  2174.89  2187.33
                             2193.60  2211.79  2358.13  2578.22  4281.47
                             4375.42  4383.59  4403.41  4405.70  4445.12
                             4477.19  4484.29  4487.15  4494.21  4496.62
                             4532.76  4637.64  4674.90

 Zero-point correction=                           0.232706 (Hartree/Particle)
 Thermal correction to Energy=                    0.246109
 Thermal correction to Enthalpy=                  0.247053
 Thermal correction to Gibbs Free Energy=         0.192736
 Sum of electronic and zero-point Energies=           -686.230915
 Sum of electronic and thermal Energies=              -686.217513
 Sum of electronic and thermal Enthalpies=            -686.216568
 Sum of electronic and thermal Free Energies=         -686.270885

                     E (Thermal)             CV                S
                      KCal/Mol        Cal/Mol-Kelvin    Cal/Mol-Kelvin
 Total                  154.435             50.785            114.319
 Electronic               0.000              0.000              0.000
 Translational            0.889              2.981             41.756
 Rotational               0.889              2.981             31.420
 Vibrational            152.658             44.823             41.143
 Vibration     1          0.596              1.976              4.633
 Vibration     2          0.596              1.974              4.509
 Vibration     3          0.598              1.970              4.214
 Vibration     4          0.607              1.938              3.209
 Vibration     5          0.622              1.891              2.546
 Vibration     6          0.630              1.865              2.311
 Vibration     7          0.651              1.799              1.900
 Vibration     8          0.661              1.767              1.749
 Vibration     9          0.669              1.744              1.655
 Vibration    10          0.675              1.727              1.591
 Vibration    11          0.684              1.698              1.492
 Vibration    12          0.701              1.649              1.347
 Vibration    13          0.710              1.623              1.280
 Vibration    14          0.726              1.578              1.173
 Vibration    15          0.755              1.498              1.013
 Vibration    16          0.766              1.470              0.963
 Vibration    17          0.797              1.392              0.839
 Vibration    18          0.845              1.275              0.687
 Vibration    19          0.907              1.136              0.541

 Normal termination of Gaussian 09 at Fri Aug 20 15:42:22 2021.
