 Gaussian 09, Revision E.01,
 Gaussian 09:  ES64L-G09RevE.01 30-Nov-2015

 -------------------------
 #P OPT Freq B3LYP/6-31G**
 -------------------------

 --------
 CASYIG01
 --------
 Symbolic Z-matrix:
 Charge =  0 Multiplicity = 1

 SCF Done:  E(RB3LYP) =  -826.013145344     A.U. after   16 cycles
 SCF Done:  E(RB3LYP) =  -826.127784874     A.U. after   14 cycles
 SCF Done:  E(RB3LYP) =  -826.164805317     A.U. after   16 cycles
 SCF Done:  E(RB3LYP) =  -826.157570688     A.U. after   17 cycles
 SCF Done:  E(RB3LYP) =  -826.172228337     A.U. after   13 cycles
 SCF Done:  E(RB3LYP) =  -826.174068698     A.U. after   15 cycles
 SCF Done:  E(RB3LYP) =  -826.170045207     A.U. after   15 cycles
 SCF Done:  E(RB3LYP) =  -826.174464488     A.U. after   11 cycles
 SCF Done:  E(RB3LYP) =  -826.174781325     A.U. after   14 cycles
 SCF Done:  E(RB3LYP) =  -826.174569512     A.U. after   15 cycles
 SCF Done:  E(RB3LYP) =  -826.176085232     A.U. after   13 cycles
 SCF Done:  E(RB3LYP) =  -826.176123359     A.U. after   14 cycles
 SCF Done:  E(RB3LYP) =  -826.176361550     A.U. after   14 cycles
 SCF Done:  E(RB3LYP) =  -826.176430126     A.U. after   13 cycles
 SCF Done:  E(RB3LYP) =  -826.176465105     A.U. after   13 cycles
 SCF Done:  E(RB3LYP) =  -826.176474871     A.U. after   10 cycles
 SCF Done:  E(RB3LYP) =  -826.176477970     A.U. after   10 cycles
 SCF Done:  E(RB3LYP) =  -826.176478678     A.U. after   10 cycles
 SCF Done:  E(RB3LYP) =  -826.176478924     A.U. after    8 cycles
 Optimization completed.
    -- Stationary point found.
 Normal termination of Gaussian 09 at Fri Aug 20 15:58:06 2021.

 ----------------------------------------------------------------------
 #P Geom=AllCheck Guess=TCheck SCRF=Check GenChk RB3LYP/6-31G(d,p) Freq
 ----------------------------------------------------------------------

 Structure from the checkpoint file:  "/public/home/users/caep010/.cache/gau_scr/Gau-134387.chk"
 --------
 CASYIG01
 --------
 Charge =  0 Multiplicity = 1

                         Standard orientation:
 ---------------------------------------------------------------------
 Center     Atomic      Atomic             Coordinates (Angstroms)
 Number     Number       Type             X           Y           Z
 ---------------------------------------------------------------------
      1          8           0        2.871060   -1.144687    1.314923
      2          1           0        2.977465   -2.104832    1.344865
      3          6           0        2.418503   -0.771576    0.035678
      4          1           0        3.039681   -1.191090   -0.761847
      5          7           0        1.014850   -1.079823   -0.196325
      6          1           0        0.574303   -1.993307   -0.219551
      7          6           0        0.231293    0.000013   -0.000339
      8          6           0       -1.183616    0.000007   -0.000440
      9          7           0        1.014860    1.079833    0.195749
     10          7           0       -1.911697   -1.198487   -0.288599
     11          8           0       -1.280025   -2.281596   -0.227767
     12          1           0        0.574527    1.993319    0.219323
     13          7           0       -1.911417    1.198693    0.288456
     14          8           0       -3.087427    1.139041    0.619475
     15          8           0       -1.279784    2.281714    0.226364
     16          6           0        2.418616    0.771355   -0.035196
     17          8           0        2.872124    1.144302   -1.314218
     18          1           0        2.977642    2.104565   -1.344394
     19          1           0        3.039358    1.190884    0.762675
     20          8           0       -3.088189   -1.138754   -0.618059
 ---------------------------------------------------------------------

 SCF Done:  E(RB3LYP) =  -826.176478924     A.U. after    1 cycles

 The electronic state is 1-A.
 Alpha  occ. eigenvalues --  -19.19389 -19.19388 -19.17788 -19.17784 -19.17523
 Alpha  occ. eigenvalues --  -19.17520 -14.57806 -14.57804 -14.39837 -14.39836
 Alpha  occ. eigenvalues --  -10.33585 -10.31957 -10.31937 -10.28547  -1.22982
 Alpha  occ. eigenvalues --   -1.21481  -1.09885  -1.06983  -1.05083  -1.04153
 Alpha  occ. eigenvalues --   -1.02819  -0.92444  -0.87475  -0.78788  -0.73168
 Alpha  occ. eigenvalues --   -0.68418  -0.67072  -0.64501  -0.59989  -0.56572
 Alpha  occ. eigenvalues --   -0.55820  -0.54839  -0.54129  -0.52428  -0.51797
 Alpha  occ. eigenvalues --   -0.51384  -0.50653  -0.49409  -0.49291  -0.46795
 Alpha  occ. eigenvalues --   -0.44945  -0.39487  -0.38505  -0.33714  -0.33647
 Alpha  occ. eigenvalues --   -0.32324  -0.31145  -0.30961  -0.29963  -0.29886
 Alpha  occ. eigenvalues --   -0.29438  -0.27637  -0.26053
 Alpha virt. eigenvalues --   -0.07920  -0.06668   0.02587   0.04812   0.05265
 Alpha virt. eigenvalues --    0.09377   0.09841   0.12369   0.12846   0.13637
 Alpha virt. eigenvalues --    0.13709   0.14897   0.17058   0.20306   0.22731

 Mulliken charges:
               1
     1  O   -0.514072
     2  H    0.320497
     3  C    0.276427
     4  H    0.140333
     5  N   -0.590026
     6  H    0.308377
     7  C    0.683851
     8  C    0.400942
     9  N   -0.590095
    10  N    0.348167
    11  O   -0.468693
    12  H    0.308353
    13  N    0.348234
    14  O   -0.363442
    15  O   -0.468601
    16  C    0.276547
    17  O   -0.514090
    18  H    0.320480
    19  H    0.140318
    20  O   -0.363507
 Sum of Mulliken charges =  -0.00000

 Dipole moment (field-independent basis, Debye):
    X=              8.2378    Y=              0.0005    Z=              0.0012  Tot=              8.2378
 Quadrupole moment (field-independent basis, Debye-Ang):
   XX=            -86.5249   YY=            -73.2571   ZZ=            -79.9944
   XY=             -0.0055   XZ=              0.0066   YZ=             -4.3268

  Exact polarizability: 134.821   0.005 101.296  -0.010   2.511  52.902
 Approx polarizability: 221.964   0.011 177.492  -0.044   6.467  83.158

                      1                      2                      3
                      A                      A                      A
 Frequencies --     55.9621                59.4415                80.9766
 Red. masses --     11.8069                 6.9976                11.0762
 Frc consts  --      0.0218                 0.0146                 0.0428
 IR Inten    --      0.3948                 0.1215                 0.0625

                      4                      5                      6
                      A                      A                      A
 Frequencies --     84.8334               114.8856               186.6695
 Red. masses --     11.1973                 7.0474                 8.2314
 Frc consts  --      0.0475                 0.0548                 0.1690
 IR Inten    --      0.9164                 0.8245                 4.1039

                      7                      8                      9
                      A                      A                      A
 Frequencies --    218.2126               244.1253               271.9500
 Red. masses --      1.8778                 2.8684                 1.1646
 Frc consts  --      0.0527                 0.1007                 0.0507
 IR Inten    --     12.6752                 0.3561               231.7577

                     10                     11                     12
                      A                      A                      A
 Frequencies --    283.3534               348.8190               359.0506
 Red. masses --      9.6235                 7.4556                 6.6882
 Frc consts  --      0.4552                 0.5345                 0.5080
 IR Inten    --     21.4447                 4.3031                 3.0064

                     13                     14                     15
                      A                      A                      A
 Frequencies --    378.3736               424.8863               433.4044
 Red. masses --      2.8907                 7.5606                13.1792
 Frc consts  --      0.2438                 0.8042                 1.4586
 IR Inten    --      2.9741                 5.9475                 1.7484

                     16                     17                     18
                      A                      A                      A
 Frequencies --    462.0479               515.7698               575.1458
 Red. masses --     15.4800                 5.6134                 1.1272
 Frc consts  --      1.9471                 0.8798                 0.2197
 IR Inten    --      1.6615                 7.3366                 4.4462

                     19                     20                     21
                      A                      A                      A
 Frequencies --    633.6140               635.9312               693.4333
 Red. masses --      7.8452                 1.0634                10.4066
 Frc consts  --      1.8557                 0.2534                 2.9483
 IR Inten    --     99.9146               232.1784                 6.6783

                     22                     23                     24
                      A                      A                      A
 Frequencies --    735.5146               755.5580               781.9475
 Red. masses --     12.9877                13.1475                 8.8097
 Frc consts  --      4.1397                 4.4221                 3.1737
 IR Inten    --      1.2669                26.8502                31.0173

                     25                     26                     27
                      A                      A                      A
 Frequencies --    816.2048               834.9484               911.5761
 Red. masses --      7.8191                 5.7927                 4.4741
 Frc consts  --      3.0691                 2.3793                 2.1905
 IR Inten    --     12.0928                 4.6171                 0.3222

                     28                     29                     30
                      A                      A                      A
 Frequencies --    958.2898              1013.2878              1057.9027
 Red. masses --      3.9854                 2.3665                 2.2667
 Frc consts  --      2.1563                 1.4316                 1.4946
 IR Inten    --    153.2111                 3.1036                34.9850

                     31                     32                     33
                      A                      A                      A
 Frequencies --   1082.9158              1087.2322              1134.4919
 Red. masses --      2.8244                 6.9111                 2.7271
 Frc consts  --      1.9515                 4.8133                 2.0680
 IR Inten    --     38.9711               306.8197                 2.8114

                     34                     35                     36
                      A                      A                      A
 Frequencies --   1143.1726              1207.9875              1234.6835
 Red. masses --      6.9732                 1.1286                 1.3590
 Frc consts  --      5.3691                 0.9703                 1.2206
 IR Inten    --     26.9197                44.5046                32.0542

                     37                     38                     39
                      A                      A                      A
 Frequencies --   1266.5252              1304.0740              1305.8935
 Red. masses --      3.6803                 3.2401                 1.5935
 Frc consts  --      3.4783                 3.2465                 1.6011
 IR Inten    --    458.2128                88.1981                69.9677

                     40                     41                     42
                      A                      A                      A
 Frequencies --   1356.8884              1384.4556              1399.9548
 Red. masses --      2.1437                 1.8482                 2.2533
 Frc consts  --      2.3254                 2.0872                 2.6020
 IR Inten    --    210.7920               150.9576                33.4592

                     43                     44                     45
                      A                      A                      A
 Frequencies --   1409.5120              1477.0493              1535.6634
 Red. masses --      1.4689                 1.8637                 5.7278
 Frc consts  --      1.7195                 2.3957                 7.9584
 IR Inten    --      8.0466                10.2965                89.6165

                     46                     47                     48
                      A                      A                      A
 Frequencies --   1598.2137              1642.4697              1645.1574
 Red. masses --      9.5471                 4.4401                11.1737
 Frc consts  --     14.3678                 7.0573                17.8182
 IR Inten    --    121.6785               166.9969              1068.8575

                     49                     50                     51
                      A                      A                      A
 Frequencies --   3090.1356              3091.1357              3562.9836
 Red. masses --      1.0868                 1.0883                 1.0772
 Frc consts  --      6.1144                 6.1268                 8.0572
 IR Inten    --     25.1354                23.6476               205.0791

                     52                     53                     54
                      A                      A                      A
 Frequencies --   3571.3984              3819.0515              3819.8268
 Red. masses --      1.0825                 1.0667                 1.0668
 Frc consts  --      8.1352                 9.1667                 9.1708
 IR Inten    --    124.0368                19.1676                76.4122

 - Thermochemistry -
 -------------------
 Temperature   298.150 Kelvin.  Pressure   1.00000 Atm.
 Atom     1 has atomic number  8 and mass  15.99491

 Molecular mass:   206.02873 amu.
 Principal axes and moments of inertia in atomic units:
                           1         2         3
     Eigenvalues --  1551.390353656.945424654.83357
           X            1.00000  -0.00000   0.00000
           Y            0.00000   0.99994  -0.01057
           Z           -0.00000   0.01057   0.99994
 This molecule is an asymmetric top.
 Rotational symmetry number  1.
 Warning -- assumption of classical behavior for rotation
           may cause significant error
 Rotational temperatures (Kelvin)      0.05583     0.02368     0.01861
 Rotational constants (GHZ):           1.16331     0.49351     0.38771
 Zero-point vibrational energy     359459.8 (Joules/Mol)
                                   85.91296 (Kcal/Mol)
 Warning -- explicit consideration of  18 degrees of freedom as
           vibrations may cause significant error
 Vibrational temperatures:     80.52    85.52   116.51   122.06   165.29
          (Kelvin)            268.58   313.96   351.24   391.27   407.68
                              501.87   516.59   544.39   611.32   623.57
                              664.78   742.08   827.51   911.63   914.96
                              997.69  1058.24  1087.08  1125.05  1174.34
                             1201.30  1311.55  1378.76  1457.89  1522.08
                             1558.07  1564.28  1632.28  1644.77  1738.02
                             1776.43  1822.24  1876.27  1878.89  1952.26
                             1991.92  2014.22  2027.97  2125.14  2209.47
                             2299.47  2363.14  2367.01  4446.01  4447.45
                             5126.33  5138.44  5494.76  5495.87

 Zero-point correction=                           0.136911 (Hartree/Particle)
 Thermal correction to Energy=                    0.149568
 Thermal correction to Enthalpy=                  0.150512
 Thermal correction to Gibbs Free Energy=         0.097012
 Sum of electronic and zero-point Energies=           -826.039568
 Sum of electronic and thermal Energies=              -826.026911
 Sum of electronic and thermal Enthalpies=            -826.025967
 Sum of electronic and thermal Free Energies=         -826.079467

                     E (Thermal)             CV                S
                      KCal/Mol        Cal/Mol-Kelvin    Cal/Mol-Kelvin
 Total                   93.855             46.136            112.600
 Electronic               0.000              0.000              0.000
 Translational            0.889              2.981             41.873
 Rotational               0.889              2.981             31.646
 Vibrational             92.078             40.175             39.081
 Vibration     1          0.596              1.975              4.595
 Vibration     2          0.597              1.974              4.476
 Vibration     3          0.600              1.962              3.867
 Vibration     4          0.601              1.960              3.776
 Vibration     5          0.608              1.937              3.185
 Vibration     6          0.632              1.858              2.261
 Vibration     7          0.646              1.813              1.974
 Vibration     8          0.659              1.772              1.773
 Vibration     9          0.675              1.725              1.584
 Vibration    10          0.682              1.705              1.513
 Vibration    11          0.726              1.578              1.172
 Vibration    12          0.734              1.557              1.126
 Vibration    13          0.749              1.516              1.046
 Vibration    14          0.787              1.416              0.876
 Vibration    15          0.794              1.397              0.848
 Vibration    16          0.820              1.334              0.760
 Vibration    17          0.871              1.215              0.620
 Vibration    18          0.932              1.085              0.494

 Optimization completed.
    -- Stationary point found.
 Normal termination of Gaussian 09 at Fri Aug 20 15:58:41 2021.
