 Gaussian 09, Revision E.01,
 Gaussian 09:  ES64L-G09RevE.01 30-Nov-2015

 -------------------------
 #P OPT Freq B3LYP/6-31G**
 -------------------------

 ------
 LEKHUE
 ------
 Symbolic Z-matrix:
 Charge =  0 Multiplicity = 1

 SCF Done:  E(RB3LYP) =  -509.157597607     A.U. after   15 cycles
 SCF Done:  E(RB3LYP) =  -509.290800790     A.U. after   14 cycles
 SCF Done:  E(RB3LYP) =  -509.368558145     A.U. after   15 cycles
 SCF Done:  E(RB3LYP) =  -509.371701951     A.U. after   14 cycles
 SCF Done:  E(RB3LYP) =  -509.366024360     A.U. after   14 cycles
 SCF Done:  E(RB3LYP) =  -509.372051459     A.U. after   11 cycles
 SCF Done:  E(RB3LYP) =  -509.372212693     A.U. after   13 cycles
 SCF Done:  E(RB3LYP) =  -509.372263767     A.U. after   12 cycles
 SCF Done:  E(RB3LYP) =  -509.372308781     A.U. after   11 cycles
 SCF Done:  E(RB3LYP) =  -509.372394849     A.U. after   12 cycles
 SCF Done:  E(RB3LYP) =  -509.372565030     A.U. after   10 cycles
 SCF Done:  E(RB3LYP) =  -509.372565886     A.U. after    8 cycles
 SCF Done:  E(RB3LYP) =  -509.372566338     A.U. after    8 cycles
 SCF Done:  E(RB3LYP) =  -509.372566907     A.U. after    8 cycles
 SCF Done:  E(RB3LYP) =  -509.372567634     A.U. after    8 cycles
 SCF Done:  E(RB3LYP) =  -509.372568621     A.U. after   10 cycles
 SCF Done:  E(RB3LYP) =  -509.372569328     A.U. after   10 cycles
 SCF Done:  E(RB3LYP) =  -509.372569471     A.U. after    9 cycles
 SCF Done:  E(RB3LYP) =  -509.372569479     A.U. after    7 cycles
 Optimization completed.
    -- Stationary point found.
 Normal termination of Gaussian 09 at Fri Aug 20 15:57:04 2021.

 ----------------------------------------------------------------------
 #P Geom=AllCheck Guess=TCheck SCRF=Check GenChk RB3LYP/6-31G(d,p) Freq
 ----------------------------------------------------------------------

 Structure from the checkpoint file:  "/public/home/users/caep010/.cache/gau_scr/Gau-27367.chk"
 ------
 LEKHUE
 ------
 Charge =  0 Multiplicity = 1

                         Standard orientation:
 ---------------------------------------------------------------------
 Center     Atomic      Atomic             Coordinates (Angstroms)
 Number     Number       Type             X           Y           Z
 ---------------------------------------------------------------------
      1          7           0        1.388398    1.016348   -0.000038
      2          6           0        0.016961    1.085866   -0.000031
      3          6           0       -0.353769   -0.247370    0.000016
      4          6           0        1.770601   -0.312109   -0.000003
      5          6           0        3.196774   -0.751652    0.000039
      6          1           0        3.732967   -0.392559    0.885869
      7          1           0        3.733089   -0.392384   -0.885627
      8          7           0       -1.705717   -0.730806    0.000009
      9          8           0       -2.598558    0.132566    0.000132
     10          8           0       -1.899614   -1.941988   -0.000113
     11          7           0        0.718614   -1.095848    0.000018
     12          1           0        2.006705    1.815231   -0.000063
     13          6           0       -0.742020    2.369409   -0.000042
     14          1           0       -1.394073    2.433290   -0.874987
     15          1           0       -1.392507    2.434311    0.876008
     16          1           0       -0.061951    3.226466   -0.001102
     17          1           0        3.220799   -1.841708   -0.000047
 ---------------------------------------------------------------------

 SCF Done:  E(RB3LYP) =  -509.372569479     A.U. after    1 cycles

 The electronic state is 1-A.
 Alpha  occ. eigenvalues --  -19.16154 -19.15888 -14.55506 -14.41769 -14.33598
 Alpha  occ. eigenvalues --  -10.27165 -10.26071 -10.25211 -10.21313 -10.21250
 Alpha  occ. eigenvalues --   -1.20430  -1.04452  -1.03007  -0.90418  -0.82530
 Alpha  occ. eigenvalues --   -0.75563  -0.75155  -0.67496  -0.62276  -0.57499
 Alpha  occ. eigenvalues --   -0.54249  -0.51895  -0.51217  -0.48415  -0.47441
 Alpha  occ. eigenvalues --   -0.45400  -0.43939  -0.43531  -0.41600  -0.40829
 Alpha  occ. eigenvalues --   -0.40379  -0.30873  -0.29551  -0.28929  -0.28919
 Alpha  occ. eigenvalues --   -0.27141  -0.24402
 Alpha virt. eigenvalues --   -0.06315   0.00790   0.05049   0.06881   0.09987
 Alpha virt. eigenvalues --    0.11231   0.12013   0.14524   0.15995   0.17711
 Alpha virt. eigenvalues --    0.18623   0.21423   0.22140   0.23180   0.27890

 Mulliken charges:
               1
     1  N   -0.572967
     2  C    0.331300
     3  C    0.345662
     4  C    0.473439
     5  C   -0.389023
     6  H    0.130167
     7  H    0.130161
     8  N    0.347915
     9  O   -0.434887
    10  O   -0.388043
    11  N   -0.473237
    12  H    0.269276
    13  C   -0.350748
    14  H    0.159324
    15  H    0.159272
    16  H    0.099166
    17  H    0.163224
 Sum of Mulliken charges =  -0.00000

 Dipole moment (field-independent basis, Debye):
    X=              5.8450    Y=              5.1965    Z=              0.0000  Tot=              7.8210
 Quadrupole moment (field-independent basis, Debye-Ang):
   XX=            -56.2651   YY=            -56.7138   ZZ=            -56.2522
   XY=             -0.8979   XZ=              0.0003   YZ=             -0.0003

  Exact polarizability: 105.263  -0.059  90.935  -0.002   0.002  41.608
 Approx polarizability: 154.623   3.607 166.427  -0.003   0.005  62.542

                      1                      2                      3
                      A                      A                      A
 Frequencies --     40.1894                86.6306                89.1313
 Red. masses --      1.5870                 1.1887                 1.7793
 Frc consts  --      0.0015                 0.0053                 0.0083
 IR Inten    --      0.0490                 0.1179                 0.8841

                      4                      5                      6
                      A                      A                      A
 Frequencies --    156.7006               194.7104               213.4478
 Red. masses --      3.7998                 5.4917                 4.2478
 Frc consts  --      0.0550                 0.1227                 0.1140
 IR Inten    --      1.3476                 0.6042                 0.0352

                      7                      8                      9
                      A                      A                      A
 Frequencies --    262.2839               331.2728               390.2116
 Red. masses --      2.6764                 4.2279                 4.3064
 Frc consts  --      0.1085                 0.2734                 0.3863
 IR Inten    --      2.6425                 1.5235                 2.3738

                     10                     11                     12
                      A                      A                      A
 Frequencies --    431.0835               571.0717               573.3095
 Red. masses --      8.6175                 4.5051                 1.3751
 Frc consts  --      0.9435                 0.8656                 0.2663
 IR Inten    --      0.4506                 1.4694                72.0959

                     13                     14                     15
                      A                      A                      A
 Frequencies --    620.6495               653.8232               687.7192
 Red. masses --      4.3689                 5.1455                 3.3931
 Frc consts  --      0.9915                 1.2960                 0.9455
 IR Inten    --      0.0500                18.9824                 1.4712

                     16                     17                     18
                      A                      A                      A
 Frequencies --    758.4765               775.5432               860.0267
 Red. masses --      6.3129                11.5617                 9.3280
 Frc consts  --      2.1397                 4.0972                 4.0650
 IR Inten    --     13.2647                 6.3459                35.0272

                     19                     20                     21
                      A                      A                      A
 Frequencies --    984.0511              1005.8214              1045.9622
 Red. masses --      1.6165                 1.8936                 2.8885
 Frc consts  --      0.9223                 1.1287                 1.8619
 IR Inten    --      1.6540                19.8612                 1.5414

                     22                     23                     24
                      A                      A                      A
 Frequencies --   1057.9364              1067.4291              1180.0121
 Red. masses --      1.4389                 1.4839                 6.5406
 Frc consts  --      0.9489                 0.9961                 5.3659
 IR Inten    --      1.0602                 3.7832                 8.9071

                     25                     26                     27
                      A                      A                      A
 Frequencies --   1230.3499              1317.3949              1383.6136
 Red. masses --      1.6149                 8.2069                 3.7576
 Frc consts  --      1.4403                 8.3919                 4.2383
 IR Inten    --      1.1411                27.2473                98.1811

                     28                     29                     30
                      A                      A                      A
 Frequencies --   1417.6620              1426.7820              1434.0060
 Red. masses --      3.1703                 1.9553                 1.8195
 Frc consts  --      3.7541                 2.3452                 2.2045
 IR Inten    --    158.3831                99.6925                12.7695

                     31                     32                     33
                      A                      A                      A
 Frequencies --   1440.0890              1477.0949              1496.2742
 Red. masses --      1.6556                 1.0427                 1.0424
 Frc consts  --      2.0230                 1.3404                 1.3750
 IR Inten    --      7.0432                 6.2027                 8.7394

                     34                     35                     36
                      A                      A                      A
 Frequencies --   1501.0021              1509.3421              1582.5742
 Red. masses --      1.1608                 1.2033                 8.3045
 Frc consts  --      1.5409                 1.6151                12.2544
 IR Inten    --      0.8216                14.2631                50.4635

                     37                     38                     39
                      A                      A                      A
 Frequencies --   1620.0582              1648.6606              3044.7502
 Red. masses --      8.0339                 7.2873                 1.0399
 Frc consts  --     12.4233                11.6703                 5.6799
 IR Inten    --    118.3926               162.9992                24.2636

                     40                     41                     42
                      A                      A                      A
 Frequencies --   3057.2471              3098.7882              3131.9426
 Red. masses --      1.0366                 1.1017                 1.1012
 Frc consts  --      5.7083                 6.2331                 6.3641
 IR Inten    --     15.9001                14.4359                 2.4102

                     43                     44                     45
                      A                      A                      A
 Frequencies --   3134.6838              3167.2247              3642.3874
 Red. masses --      1.1026                 1.0983                 1.0809
 Frc consts  --      6.3836                 6.4914                 8.4491
 IR Inten    --     15.1436                 1.6478                50.8344

 - Thermochemistry -
 -------------------
 Temperature   298.150 Kelvin.  Pressure   1.00000 Atm.
 Atom     1 has atomic number  7 and mass  14.00307

 Molecular mass:   141.05383 amu.
 Principal axes and moments of inertia in atomic units:
                           1         2         3
     Eigenvalues --   790.040121637.672192405.38339
           X            0.99880  -0.04891   0.00000
           Y            0.04891   0.99880  -0.00000
           Z           -0.00000   0.00000   1.00000
 This molecule is an asymmetric top.
 Rotational symmetry number  1.
 Warning -- assumption of classical behavior for rotation
           may cause significant error
 Rotational temperatures (Kelvin)      0.10963     0.05289     0.03601
 Rotational constants (GHZ):           2.28437     1.10202     0.75029
 Zero-point vibrational energy     339736.0 (Joules/Mol)
                                   81.19885 (Kcal/Mol)
 Warning -- explicit consideration of  13 degrees of freedom as
           vibrations may cause significant error
 Vibrational temperatures:     57.82   124.64   128.24   225.46   280.14
          (Kelvin)            307.10   377.37   476.63   561.43   620.23
                              821.64   824.86   892.98   940.70   989.47
                             1091.28  1115.83  1237.39  1415.83  1447.15
                             1504.90  1522.13  1535.79  1697.77  1770.20
                             1895.44  1990.71  2039.70  2052.82  2063.21
                             2071.96  2125.21  2152.80  2159.60  2171.60
                             2276.97  2330.90  2372.05  4380.71  4398.69
                             4458.46  4506.16  4510.11  4556.92  5240.58

 Zero-point correction=                           0.129399 (Hartree/Particle)
 Thermal correction to Energy=                    0.139057
 Thermal correction to Enthalpy=                  0.140001
 Thermal correction to Gibbs Free Energy=         0.093495
 Sum of electronic and zero-point Energies=           -509.243171
 Sum of electronic and thermal Energies=              -509.233513
 Sum of electronic and thermal Enthalpies=            -509.232569
 Sum of electronic and thermal Free Energies=         -509.279075

                     E (Thermal)             CV                S
                      KCal/Mol        Cal/Mol-Kelvin    Cal/Mol-Kelvin
 Total                   87.259             33.799             97.880
 Electronic               0.000              0.000              0.000
 Translational            0.889              2.981             40.743
 Rotational               0.889              2.981             29.522
 Vibrational             85.482             27.837             27.615
 Vibration     1          0.594              1.981              5.250
 Vibration     2          0.601              1.959              3.735
 Vibration     3          0.602              1.957              3.679
 Vibration     4          0.620              1.895              2.589
 Vibration     5          0.635              1.847              2.183
 Vibration     6          0.644              1.820              2.014
 Vibration     7          0.670              1.742              1.647
 Vibration     8          0.714              1.613              1.254
 Vibration     9          0.758              1.491              0.999
 Vibration    10          0.792              1.403              0.855
 Vibration    11          0.927              1.094              0.502
 Vibration    12          0.930              1.089              0.498
 Vibration    13          0.981              0.988              0.415

 Optimization completed.
    -- Stationary point found.
 Normal termination of Gaussian 09 at Fri Aug 20 15:57:24 2021.
