 Gaussian 09, Revision E.01,
 Gaussian 09:  ES64L-G09RevE.01 30-Nov-2015

 -------------------------
 #P OPT Freq B3LYP/6-31G**
 -------------------------

 --------
 VAZCAC01
 --------
 Symbolic Z-matrix:
 Charge =  0 Multiplicity = 1

 SCF Done:  E(RB3LYP) =  -706.497081092     A.U. after   16 cycles
 SCF Done:  E(RB3LYP) =  -706.536235494     A.U. after   15 cycles
 SCF Done:  E(RB3LYP) =  -706.539022152     A.U. after   15 cycles
 SCF Done:  E(RB3LYP) =  -706.536904548     A.U. after   15 cycles
 SCF Done:  E(RB3LYP) =  -706.539242774     A.U. after   11 cycles
 SCF Done:  E(RB3LYP) =  -706.539614031     A.U. after   15 cycles
 SCF Done:  E(RB3LYP) =  -706.539483585     A.U. after   15 cycles
 SCF Done:  E(RB3LYP) =  -706.539830821     A.U. after   10 cycles
 SCF Done:  E(RB3LYP) =  -706.540357403     A.U. after   15 cycles
 SCF Done:  E(RB3LYP) =  -706.541067519     A.U. after   14 cycles
 SCF Done:  E(RB3LYP) =  -706.543023564     A.U. after   15 cycles
 SCF Done:  E(RB3LYP) =  -706.543134812     A.U. after   14 cycles
 SCF Done:  E(RB3LYP) =  -706.543176880     A.U. after   14 cycles
 SCF Done:  E(RB3LYP) =  -706.543198307     A.U. after   13 cycles
 SCF Done:  E(RB3LYP) =  -706.543205274     A.U. after   13 cycles
 SCF Done:  E(RB3LYP) =  -706.543208004     A.U. after   13 cycles
 SCF Done:  E(RB3LYP) =  -706.543209147     A.U. after   10 cycles
 SCF Done:  E(RB3LYP) =  -706.543209560     A.U. after   10 cycles
 SCF Done:  E(RB3LYP) =  -706.543209666     A.U. after    9 cycles
 Optimization completed.
    -- Stationary point found.
 Normal termination of Gaussian 09 at Fri Aug 20 15:59:39 2021.

 ----------------------------------------------------------------------
 #P Geom=AllCheck Guess=TCheck SCRF=Check GenChk RB3LYP/6-31G(d,p) Freq
 ----------------------------------------------------------------------

 Structure from the checkpoint file:  "/public/home/users/caep010/.cache/gau_scr/Gau-220006.chk"
 --------
 VAZCAC01
 --------
 Charge =  0 Multiplicity = 1

                         Standard orientation:
 ---------------------------------------------------------------------
 Center     Atomic      Atomic             Coordinates (Angstroms)
 Number     Number       Type             X           Y           Z
 ---------------------------------------------------------------------
      1          7           0        0.595585    1.096832   -0.024918
      2          7           0       -0.721352    1.273633   -0.021669
      3          6           0       -1.164706    0.009322   -0.008924
      4          7           0       -0.240056   -0.951319   -0.013758
      5          6           0        0.875047   -0.238666   -0.028374
      6          7           0       -2.600007   -0.270730    0.016850
      7          7           0        1.437334    2.189383   -0.170173
      8          1           0        2.342266    1.933853    0.219635
      9          8           0       -3.343869    0.703549    0.062725
     10          8           0       -2.928547   -1.449106   -0.008901
     11          7           0        2.213912   -0.777417    0.016411
     12          8           0        3.130903    0.048694    0.151576
     13          8           0        2.341431   -1.984647   -0.070855
     14          1           0        0.998431    2.971630    0.308588
 ---------------------------------------------------------------------

 SCF Done:  E(RB3LYP) =  -706.543209666     A.U. after    1 cycles

 The electronic state is 1-A.
 Alpha  occ. eigenvalues --  -19.23193 -19.23007 -19.20344 -19.20248 -14.62743
 Alpha  occ. eigenvalues --  -14.59898 -14.54344 -14.44002 -14.43685 -14.40448
 Alpha  occ. eigenvalues --  -10.35803 -10.33563  -1.27801  -1.25099  -1.18419
 Alpha  occ. eigenvalues --   -1.10478  -1.07856  -1.03705  -0.95551  -0.88891
 Alpha  occ. eigenvalues --   -0.81004  -0.76753  -0.69130  -0.63346  -0.61457
 Alpha  occ. eigenvalues --   -0.59536  -0.58258  -0.56880  -0.56361  -0.55765
 Alpha  occ. eigenvalues --   -0.53590  -0.53304  -0.51976  -0.42091  -0.41086
 Alpha  occ. eigenvalues --   -0.35962  -0.35743  -0.35520  -0.34758  -0.33650
 Alpha  occ. eigenvalues --   -0.32768  -0.32703  -0.31126  -0.30127
 Alpha virt. eigenvalues --   -0.13466  -0.10739  -0.01706   0.02373   0.04320
 Alpha virt. eigenvalues --    0.08088   0.09678   0.10474   0.13388   0.18414
 Alpha virt. eigenvalues --    0.21116   0.22966   0.23994   0.27938   0.29908

 Mulliken charges:
               1
     1  N   -0.190453
     2  N   -0.265385
     3  C    0.640958
     4  N   -0.436905
     5  C    0.761775
     6  N    0.366731
     7  N   -0.382673
     8  H    0.316026
     9  O   -0.368122
    10  O   -0.356299
    11  N    0.356446
    12  O   -0.415075
    13  O   -0.333145
    14  H    0.306120
 Sum of Mulliken charges =  -0.00000

 Dipole moment (field-independent basis, Debye):
    X=              3.1599    Y=              4.0264    Z=              1.1325  Tot=              5.2421
 Quadrupole moment (field-independent basis, Debye-Ang):
   XX=            -81.0366   YY=            -66.5562   ZZ=            -62.5570
   XY=              6.0604   XZ=              1.8259   YZ=              3.2324

  Exact polarizability: 108.862   2.094  94.494   0.237   1.481  30.669
 Approx polarizability: 169.118   3.928 213.808   0.376   4.150  48.723

                      1                      2                      3
                      A                      A                      A
 Frequencies --     40.8999                61.9671               126.5214
 Red. masses --     14.5016                 8.2722                10.0672
 Frc consts  --      0.0143                 0.0187                 0.0949
 IR Inten    --      0.3282                 3.4561                 2.1330

                      4                      5                      6
                      A                      A                      A
 Frequencies --    154.6517               207.2586               248.3674
 Red. masses --     11.2127                 3.9386                 1.5088
 Frc consts  --      0.1580                 0.0997                 0.0548
 IR Inten    --      1.5324                15.3232                33.9156

                      7                      8                      9
                      A                      A                      A
 Frequencies --    274.7679               339.5164               354.9029
 Red. masses --      5.1040                 8.7390                11.5177
 Frc consts  --      0.2270                 0.5935                 0.8547
 IR Inten    --      7.9604                 2.6396                 0.7304

                     10                     11                     12
                      A                      A                      A
 Frequencies --    372.1710               476.7302               523.9112
 Red. masses --      7.3071                11.2888                10.3999
 Frc consts  --      0.5963                 1.5116                 1.6819
 IR Inten    --      0.4023                 0.9674                 0.5154

                     13                     14                     15
                      A                      A                      A
 Frequencies --    633.5466               653.2344               659.6538
 Red. masses --     10.4726                10.2997                10.5949
 Frc consts  --      2.4766                 2.5895                 2.7163
 IR Inten    --      3.6147                17.4105                 4.8009

                     16                     17                     18
                      A                      A                      A
 Frequencies --    730.0403               745.2950               773.8561
 Red. masses --      7.4511                12.9695                13.2464
 Frc consts  --      2.3397                 4.2445                 4.6738
 IR Inten    --     66.4689                 3.9176                 1.0927

                     19                     20                     21
                      A                      A                      A
 Frequencies --    835.2093               861.1488               916.1218
 Red. masses --     12.3067                 5.1004                 1.7317
 Frc consts  --      5.0581                 2.2285                 0.8563
 IR Inten    --     46.1191               122.5328               195.3450

                     22                     23                     24
                      A                      A                      A
 Frequencies --   1047.3182              1139.5558              1235.1032
 Red. masses --     11.8500                 3.5013                 4.3722
 Frc consts  --      7.6582                 2.6788                 3.9297
 IR Inten    --      2.5021                26.7553                 1.1344

                     25                     26                     27
                      A                      A                      A
 Frequencies --   1373.3830              1378.2245              1391.4810
 Red. masses --     12.1508                13.4869                 7.3983
 Frc consts  --     13.5033                15.0939                 8.4399
 IR Inten    --    102.2602               340.2383                 2.1751

                     28                     29                     30
                      A                      A                      A
 Frequencies --   1419.2713              1455.6296              1520.8963
 Red. masses --      8.0994                 4.9484                 4.6043
 Frc consts  --      9.6124                 6.1776                 6.2750
 IR Inten    --     46.0400                16.6939                 2.3212

                     31                     32                     33
                      A                      A                      A
 Frequencies --   1540.8985              1604.6270              1668.3878
 Red. masses --      5.6410                 1.2900                 5.2803
 Frc consts  --      7.8914                 1.9570                 8.6597
 IR Inten    --     83.7689               182.5385                19.2332

                     34                     35                     36
                      A                      A                      A
 Frequencies --   1675.6459              3487.1271              3613.0915
 Red. masses --     10.8770                 1.0462                 1.1003
 Frc consts  --     17.9938                 7.4954                 8.4626
 IR Inten    --    281.7690                43.1490                69.5298

 - Thermochemistry -
 -------------------
 Temperature   298.150 Kelvin.  Pressure   1.00000 Atm.
 Atom     1 has atomic number  7 and mass  14.00307

 Molecular mass:   174.01375 amu.
 Principal axes and moments of inertia in atomic units:
                           1         2         3
     Eigenvalues --   884.203012852.997143729.42643
           X            0.99991   0.01362   0.00109
           Y           -0.01362   0.99989   0.00552
           Z           -0.00102  -0.00554   0.99998
 This molecule is an asymmetric top.
 Rotational symmetry number  1.
 Warning -- assumption of classical behavior for rotation
           may cause significant error
 Rotational temperatures (Kelvin)      0.09796     0.03036     0.02322
 Rotational constants (GHZ):           2.04109     0.63258     0.48392
 Zero-point vibrational energy     212578.9 (Joules/Mol)
                                   50.80757 (Kcal/Mol)
 Warning -- explicit consideration of  12 degrees of freedom as
           vibrations may cause significant error
 Vibrational temperatures:     58.85    89.16   182.04   222.51   298.20
          (Kelvin)            357.34   395.33   488.49   510.63   535.47
                              685.91   753.79   911.53   939.86   949.09
                             1050.36  1072.31  1113.41  1201.68  1239.00
                             1318.09  1506.86  1639.56  1777.04  1975.99
                             1982.96  2002.03  2042.01  2094.32  2188.23
                             2217.01  2308.70  2400.43  2410.88  5017.19
                             5198.43

 Zero-point correction=                           0.080967 (Hartree/Particle)
 Thermal correction to Energy=                    0.090781
 Thermal correction to Enthalpy=                  0.091725
 Thermal correction to Gibbs Free Energy=         0.044219
 Sum of electronic and zero-point Energies=           -706.462243
 Sum of electronic and thermal Energies=              -706.452429
 Sum of electronic and thermal Enthalpies=            -706.451485
 Sum of electronic and thermal Free Energies=         -706.498990

                     E (Thermal)             CV                S
                      KCal/Mol        Cal/Mol-Kelvin    Cal/Mol-Kelvin
 Total                   56.966             34.427             99.984
 Electronic               0.000              0.000              0.000
 Translational            0.889              2.981             41.369
 Rotational               0.889              2.981             30.621
 Vibrational             55.188             28.466             27.994
 Vibration     1          0.594              1.981              5.215
 Vibration     2          0.597              1.972              4.394
 Vibration     3          0.611              1.927              2.998
 Vibration     4          0.620              1.897              2.614
 Vibration     5          0.641              1.830              2.068
 Vibration     6          0.662              1.765              1.742
 Vibration     7          0.677              1.720              1.566
 Vibration     8          0.719              1.597              1.214
 Vibration     9          0.731              1.565              1.144
 Vibration    10          0.744              1.529              1.071
 Vibration    11          0.833              1.302              0.719
 Vibration    12          0.879              1.197              0.601

 Optimization completed.
    -- Stationary point found.
 Normal termination of Gaussian 09 at Fri Aug 20 15:59:57 2021.
