 Gaussian 09, Revision E.01,
 Gaussian 09:  ES64L-G09RevE.01 30-Nov-2015

 -------------------------
 #P OPT Freq B3LYP/6-31G**
 -------------------------

 ------
 LOJBER
 ------
 Symbolic Z-matrix:
 Charge =  0 Multiplicity = 1

 SCF Done:  E(RB3LYP) =  -649.138085711     A.U. after   15 cycles
 SCF Done:  E(RB3LYP) =  -649.271520671     A.U. after   13 cycles
 SCF Done:  E(RB3LYP) =  -649.378778602     A.U. after   14 cycles
 SCF Done:  E(RB3LYP) =  -649.381602913     A.U. after   14 cycles
 SCF Done:  E(RB3LYP) =  -649.372564382     A.U. after   16 cycles
 SCF Done:  E(RB3LYP) =  -649.382434540     A.U. after   11 cycles
 SCF Done:  E(RB3LYP) =  -649.383060075     A.U. after   12 cycles
 SCF Done:  E(RB3LYP) =  -649.383579512     A.U. after   13 cycles
 SCF Done:  E(RB3LYP) =  -649.383643743     A.U. after   10 cycles
 SCF Done:  E(RB3LYP) =  -649.383668678     A.U. after   10 cycles
 SCF Done:  E(RB3LYP) =  -649.383688658     A.U. after   10 cycles
 SCF Done:  E(RB3LYP) =  -649.383689778     A.U. after    9 cycles
 SCF Done:  E(RB3LYP) =  -649.383691321     A.U. after    9 cycles
 SCF Done:  E(RB3LYP) =  -649.383694471     A.U. after   10 cycles
 SCF Done:  E(RB3LYP) =  -649.383704498     A.U. after   11 cycles
 SCF Done:  E(RB3LYP) =  -649.383709485     A.U. after   10 cycles
 SCF Done:  E(RB3LYP) =  -649.383711128     A.U. after   10 cycles
 SCF Done:  E(RB3LYP) =  -649.383710962     A.U. after    8 cycles
 SCF Done:  E(RB3LYP) =  -649.383711071     A.U. after    8 cycles
 Optimization completed.
    -- Stationary point found.
 Normal termination of Gaussian 09 at Fri Aug 20 15:46:04 2021.

 ----------------------------------------------------------------------
 #P Geom=AllCheck Guess=TCheck SCRF=Check GenChk RB3LYP/6-31G(d,p) Freq
 ----------------------------------------------------------------------

 Structure from the checkpoint file:  "/public/home/users/caep010/.cache/gau_scr/Gau-36933.chk"
 ------
 LOJBER
 ------
 Charge =  0 Multiplicity = 1

                         Standard orientation:
 ---------------------------------------------------------------------
 Center     Atomic      Atomic             Coordinates (Angstroms)
 Number     Number       Type             X           Y           Z
 ---------------------------------------------------------------------
      1          8           0        4.541802   -1.442552   -0.000246
      2          7           0        4.151516   -0.270624   -0.015628
      3          8           0        4.904003    0.708766   -0.045518
      4          6           0        2.718915   -0.028035    0.002703
      5          6           0        1.836083   -1.108225    0.032699
      6          6           0        2.241115    1.287115   -0.013236
      7          1           0        2.949746    2.105412   -0.038864
      8          6           0        0.878820    1.515341    0.003455
      9          1           0        0.502618    2.534928   -0.005459
     10          1           0        2.236384   -2.114408    0.040782
     11          6           0       -0.041192    0.437958    0.036379
     12          7           0       -1.385750    0.695847    0.075465
     13          1           0       -1.666347    1.650702   -0.091713
     14          6           0       -2.424876   -0.314305   -0.043307
     15          1           0       -2.313302   -1.045379    0.768777
     16          6           0        0.468309   -0.881665    0.046970
     17          1           0       -0.208750   -1.727090    0.065425
     18          1           0       -2.324255   -0.871500   -0.988641
     19          6           0       -3.812178    0.324029    0.036148
     20          1           0       -3.914154    1.065581   -0.769417
     21          6           0       -4.946959   -0.701140   -0.072192
     22          1           0       -4.840547   -1.443711    0.729544
     23          1           0       -3.898522    0.873576    0.982796
     24          1           0       -4.847819   -1.253523   -1.015829
     25          6           0       -6.336744   -0.062772    0.003661
     26          1           0       -6.487652    0.658094   -0.807535
     27          1           0       -7.124339   -0.818482   -0.073015
     28          1           0       -6.477627    0.469728    0.950728
 ---------------------------------------------------------------------

 SCF Done:  E(RB3LYP) =  -649.383711071     A.U. after    1 cycles

 The electronic state is 1-A.
 Alpha  occ. eigenvalues --  -19.15767 -19.15759 -14.55047 -14.37088 -10.25434
 Alpha  occ. eigenvalues --  -10.24002 -10.22966 -10.20939 -10.20911 -10.20749
 Alpha  occ. eigenvalues --  -10.20315 -10.20192 -10.20123 -10.18968  -1.19983
 Alpha  occ. eigenvalues --   -1.02608  -0.96031  -0.87125  -0.81799  -0.78484
 Alpha  occ. eigenvalues --   -0.76511  -0.73901  -0.67995  -0.65785  -0.62196
 Alpha  occ. eigenvalues --   -0.60298  -0.58629  -0.55025  -0.52834  -0.50993
 Alpha  occ. eigenvalues --   -0.50754  -0.50040  -0.48387  -0.45971  -0.45126
 Alpha  occ. eigenvalues --   -0.44317  -0.43860  -0.43579  -0.41279  -0.40076
 Alpha  occ. eigenvalues --   -0.39811  -0.37478  -0.35851  -0.35648  -0.35173
 Alpha  occ. eigenvalues --   -0.34649  -0.31547  -0.28871  -0.28793  -0.26909
 Alpha  occ. eigenvalues --   -0.26801  -0.21721
 Alpha virt. eigenvalues --   -0.06667  -0.01494   0.02696   0.06822   0.07297
 Alpha virt. eigenvalues --    0.08872   0.10275   0.11010   0.12877   0.13300
 Alpha virt. eigenvalues --    0.15466   0.15736   0.16151   0.16635   0.16776

 Mulliken charges:
               1
     1  O   -0.417111
     2  N    0.372273
     3  O   -0.416533
     4  C    0.241247
     5  C   -0.102330
     6  C   -0.093429
     7  H    0.132137
     8  C   -0.142497
     9  H    0.085192
    10  H    0.132318
    11  C    0.372128
    12  N   -0.621500
    13  H    0.256585
    14  C    0.000533
    15  H    0.115778
    16  C   -0.137721
    17  H    0.093593
    18  H    0.108331
    19  C   -0.214430
    20  H    0.099017
    21  C   -0.179270
    22  H    0.101720
    23  H    0.109513
    24  H    0.101328
    25  C   -0.319359
    26  H    0.106386
    27  H    0.108746
    28  H    0.107356
 Sum of Mulliken charges =  -0.00000

 Dipole moment (field-independent basis, Debye):
    X=             -8.2261    Y=              1.2057    Z=             -0.2316  Tot=              8.3172
 Quadrupole moment (field-independent basis, Debye-Ang):
   XX=           -106.4610   YY=            -78.5506   ZZ=            -84.0991
   XY=              2.6479   XZ=              0.6471   YZ=             -0.5706

  Exact polarizability: 222.349  -3.908 125.799  -0.744  -0.804  66.981
 Approx polarizability: 309.392  -9.241 232.068  -2.843  -2.055 102.909

                      1                      2                      3
                      A                      A                      A
 Frequencies --     25.4516                49.9556                64.8313
 Red. masses --      4.3043                 2.2013                 3.9423
 Frc consts  --      0.0016                 0.0032                 0.0098
 IR Inten    --      0.7132                 2.5795                 0.9440

                      4                      5                      6
                      A                      A                      A
 Frequencies --     78.8252                96.8112               127.9907
 Red. masses --      5.2219                 3.7297                 1.9807
 Frc consts  --      0.0191                 0.0206                 0.0191
 IR Inten    --      0.8217                 0.1975                 3.2942

                      7                      8                      9
                      A                      A                      A
 Frequencies --    149.2454               178.4934               226.1406
 Red. masses --      3.8537                 4.1189                 5.9945
 Frc consts  --      0.0506                 0.0773                 0.1806
 IR Inten    --     12.5696                 0.5451                 0.9869

                     10                     11                     12
                      A                      A                      A
 Frequencies --    249.2652               281.2719               295.8121
 Red. masses --      1.1367                 3.9243                 6.3158
 Frc consts  --      0.0416                 0.1829                 0.3256
 IR Inten    --      0.6295                 6.6368                 0.9717

                     13                     14                     15
                      A                      A                      A
 Frequencies --    324.1597               389.8127               425.2131
 Red. masses --      1.1904                 3.7167                 4.5481
 Frc consts  --      0.0737                 0.3328                 0.4845
 IR Inten    --     99.4894                 2.2280                 0.7017

                     16                     17                     18
                      A                      A                      A
 Frequencies --    430.2007               505.6963               518.7509
 Red. masses --      3.2161                 2.7973                 4.9100
 Frc consts  --      0.3507                 0.4215                 0.7785
 IR Inten    --      0.8375                 4.0006                 2.1000

                     19                     20                     21
                      A                      A                      A
 Frequencies --    552.5325               644.9762               674.1453
 Red. masses --      4.6839                 7.0542                 6.6463
 Frc consts  --      0.8425                 1.7290                 1.7797
 IR Inten    --      4.5666                 0.6448                16.5783

                     22                     23                     24
                      A                      A                      A
 Frequencies --    703.0484               751.1128               757.7889
 Red. masses --      3.4998                 1.0819                 6.7159
 Frc consts  --      1.0192                 0.3596                 2.2722
 IR Inten    --      7.5931                 6.1436                22.8211

                     25                     26                     27
                      A                      A                      A
 Frequencies --    811.2476               823.5295               831.7169
 Red. masses --      1.2131                 1.2090                 5.5706
 Frc consts  --      0.4704                 0.4831                 2.2704
 IR Inten    --      0.2702                 1.0988                 3.8081

                     28                     29                     30
                      A                      A                      A
 Frequencies --    845.7387               874.0282               921.7961
 Red. masses --      1.7974                 7.0221                 1.8802
 Frc consts  --      0.7575                 3.1606                 0.9413
 IR Inten    --     35.7219                18.7348                 6.1628

                     31                     32                     33
                      A                      A                      A
 Frequencies --    964.7437               972.8642               982.6921
 Red. masses --      1.1711                 1.2946                 1.2984
 Frc consts  --      0.6422                 0.7219                 0.7387
 IR Inten    --      0.3370                 0.0587                 1.5456

                     34                     35                     36
                      A                      A                      A
 Frequencies --   1018.6288              1029.7995              1070.7688
 Red. masses --      2.7964                 3.3244                 2.2904
 Frc consts  --      1.7096                 2.0771                 1.5472
 IR Inten    --      2.5392                 0.0439                 1.0279

                     37                     38                     39
                      A                      A                      A
 Frequencies --   1101.7828              1136.1689              1138.0797
 Red. masses --      2.8529                 1.4724                 2.3333
 Frc consts  --      2.0405                 1.1199                 1.7806
 IR Inten    --      2.0937                21.2003               132.5020

                     40                     41                     42
                      A                      A                      A
 Frequencies --   1165.1460              1184.1830              1215.2023
 Red. masses --      2.2362                 1.5804                 1.4015
 Frc consts  --      1.7886                 1.3057                 1.2194
 IR Inten    --     31.8577                 8.5376                24.7987

                     43                     44                     45
                      A                      A                      A
 Frequencies --   1256.4982              1281.2030              1319.4943
 Red. masses --      1.3064                 1.4394                 1.4075
 Frc consts  --      1.2153                 1.3921                 1.4438
 IR Inten    --      2.4941                44.6754                15.1032

                     46                     47                     48
                      A                      A                      A
 Frequencies --   1324.1090              1339.1280              1340.9467
 Red. masses --      1.1756                 1.2213                 1.3648
 Frc consts  --      1.2144                 1.2903                 1.4459
 IR Inten    --      2.2276                26.5423                45.6530

                     49                     50                     51
                      A                      A                      A
 Frequencies --   1379.7326              1393.1375              1396.7594
 Red. masses --      7.9876                 1.7008                 4.0232
 Frc consts  --      8.9590                 1.9448                 4.6245
 IR Inten    --    780.9793                33.1925                66.0147

                     52                     53                     54
                      A                      A                      A
 Frequencies --   1426.8369              1431.6667              1464.0424
 Red. masses --      1.5794                 1.2654                 2.9481
 Frc consts  --      1.8945                 1.5282                 3.7231
 IR Inten    --      4.1377                 0.8385                16.0450

                     55                     56                     57
                      A                      A                      A
 Frequencies --   1504.1488              1511.2655              1514.8414
 Red. masses --      1.0622                 1.0777                 1.0400
 Frc consts  --      1.4159                 1.4502                 1.4061
 IR Inten    --      2.1304                 2.2624                 6.4184

                     58                     59                     60
                      A                      A                      A
 Frequencies --   1523.7899              1525.2006              1541.0459
 Red. masses --      1.2448                 1.5402                 1.1079
 Frc consts  --      1.7029                 2.1109                 1.5502
 IR Inten    --      0.9750                16.0582                50.6951

                     61                     62                     63
                      A                      A                      A
 Frequencies --   1563.9430              1601.2739              1652.7658
 Red. masses --      3.1259                 6.3294                 7.8359
 Frc consts  --      4.5047                 9.5619                12.6113
 IR Inten    --    176.6219                92.0046               111.7468

                     64                     65                     66
                      A                      A                      A
 Frequencies --   1663.5066              2986.3432              3016.8742
 Red. masses --      5.9311                 1.0666                 1.0628
 Frc consts  --      9.6702                 5.6045                 5.6992
 IR Inten    --    364.9896                42.1824                 8.7797

                     67                     68                     69
                      A                      A                      A
 Frequencies --   3030.0149              3036.4750              3042.2678
 Red. masses --      1.0683                 1.0825                 1.0373
 Frc consts  --      5.7787                 5.8804                 5.6566
 IR Inten    --     19.3220                32.8434                40.4867

                     70                     71                     72
                      A                      A                      A
 Frequencies --   3053.8241              3076.1623              3110.8486
 Red. masses --      1.1014                 1.1051                 1.1031
 Frc consts  --      6.0519                 6.1615                 6.2894
 IR Inten    --      1.8918                47.4313                55.7409

                     73                     74                     75
                      A                      A                      A
 Frequencies --   3118.7956              3181.9487              3221.6131
 Red. masses --      1.1019                 1.0900                 1.0885
 Frc consts  --      6.3147                 6.5021                 6.6562
 IR Inten    --     34.3919                12.6616                 8.9595

                     76                     77                     78
                      A                      A                      A
 Frequencies --   3243.1808              3243.6615              3633.4433
 Red. masses --      1.0925                 1.0936                 1.0766
 Frc consts  --      6.7707                 6.7794                 8.3743
 IR Inten    --      0.2255                 2.6811                46.5605

 - Thermochemistry -
 -------------------
 Temperature   298.150 Kelvin.  Pressure   1.00000 Atm.
 Atom     1 has atomic number  8 and mass  15.99491

 Molecular mass:   194.10553 amu.
 Principal axes and moments of inertia in atomic units:
                           1         2         3
     Eigenvalues --   599.535768733.001359285.46567
           X            0.99999   0.00383   0.00035
           Y           -0.00383   0.99999  -0.00097
           Z           -0.00035   0.00097   1.00000
 This molecule is an asymmetric top.
 Rotational symmetry number  1.
 Warning -- assumption of classical behavior for rotation
           may cause significant error
 Rotational temperatures (Kelvin)      0.14447     0.00992     0.00933
 Rotational constants (GHZ):           3.01023     0.20666     0.19436
 Zero-point vibrational energy     613328.0 (Joules/Mol)
                                  146.58891 (Kcal/Mol)
 Warning -- explicit consideration of  19 degrees of freedom as
           vibrations may cause significant error
 Vibrational temperatures:     36.62    71.87    93.28   113.41   139.29
          (Kelvin)            184.15   214.73   256.81   325.37   358.64
                              404.69   425.61   466.39   560.85   611.79
                              618.96   727.58   746.37   794.97   927.98
                              969.94  1011.53  1080.68  1090.29  1167.20
                             1184.87  1196.65  1216.83  1257.53  1326.26
                             1388.05  1399.73  1413.87  1465.58  1481.65
                             1540.60  1585.22  1634.69  1637.44  1676.38
                             1703.77  1748.40  1807.82  1843.36  1898.46
                             1905.10  1926.70  1929.32  1985.13  2004.41
                             2009.62  2052.90  2059.85  2106.43  2164.13
                             2174.37  2179.52  2192.39  2194.42  2217.22
                             2250.16  2303.87  2377.96  2393.41  4296.68
                             4340.60  4359.51  4368.80  4377.14  4393.77
                             4425.91  4475.81  4487.25  4578.11  4635.18
                             4666.21  4666.90  5227.71

 Zero-point correction=                           0.233604 (Hartree/Particle)
 Thermal correction to Energy=                    0.247610
 Thermal correction to Enthalpy=                  0.248554
 Thermal correction to Gibbs Free Energy=         0.191137
 Sum of electronic and zero-point Energies=           -649.150107
 Sum of electronic and thermal Energies=              -649.136101
 Sum of electronic and thermal Enthalpies=            -649.135157
 Sum of electronic and thermal Free Energies=         -649.192574

                     E (Thermal)             CV                S
                      KCal/Mol        Cal/Mol-Kelvin    Cal/Mol-Kelvin
 Total                  155.377             51.245            120.843
 Electronic               0.000              0.000              0.000
 Translational            0.889              2.981             41.695
 Rotational               0.889              2.981             32.253
 Vibrational            153.600             45.284             46.895
 Vibration     1          0.593              1.985              6.156
 Vibration     2          0.595              1.978              4.819
 Vibration     3          0.597              1.971              4.304
 Vibration     4          0.600              1.963              3.920
 Vibration     5          0.603              1.951              3.518
 Vibration     6          0.611              1.925              2.976
 Vibration     7          0.618              1.903              2.682
 Vibration     8          0.629              1.869              2.344
 Vibration     9          0.650              1.801              1.909
 Vibration    10          0.662              1.764              1.736
 Vibration    11          0.681              1.708              1.526
 Vibration    12          0.690              1.682              1.440
 Vibration    13          0.709              1.627              1.289
 Vibration    14          0.758              1.492              1.001
 Vibration    15          0.787              1.415              0.874
 Vibration    16          0.791              1.404              0.858
 Vibration    17          0.861              1.237              0.644
 Vibration    18          0.874              1.208              0.613
 Vibration    19          0.908              1.134              0.539

 Normal termination of Gaussian 09 at Fri Aug 20 15:46:54 2021.
