 Gaussian 09, Revision E.01,
 Gaussian 09:  ES64L-G09RevE.01 30-Nov-2015

 -------------------------
 #P OPT Freq B3LYP/6-31G**
 -------------------------

 ------
 XAVMOW
 ------
 Symbolic Z-matrix:
 Charge =  0 Multiplicity = 1

 SCF Done:  E(RB3LYP) =  -680.485266362     A.U. after   18 cycles
 SCF Done:  E(RB3LYP) =  -680.575683300     A.U. after   13 cycles
 SCF Done:  E(RB3LYP) =  -680.611795080     A.U. after   16 cycles
 SCF Done:  E(RB3LYP) =  -680.597749587     A.U. after   17 cycles
 SCF Done:  E(RB3LYP) =  -680.613373125     A.U. after   13 cycles
 SCF Done:  E(RB3LYP) =  -680.614016627     A.U. after   15 cycles
 SCF Done:  E(RB3LYP) =  -680.615863076     A.U. after   14 cycles
 SCF Done:  E(RB3LYP) =  -680.616498220     A.U. after   14 cycles
 SCF Done:  E(RB3LYP) =  -680.616791028     A.U. after   14 cycles
 SCF Done:  E(RB3LYP) =  -680.617095572     A.U. after   13 cycles
 SCF Done:  E(RB3LYP) =  -680.620754724     A.U. after   13 cycles
 SCF Done:  E(RB3LYP) =  -680.617799986     A.U. after   15 cycles
 SCF Done:  E(RB3LYP) =  -680.621134980     A.U. after   12 cycles
 SCF Done:  E(RB3LYP) =  -680.621263637     A.U. after   12 cycles
 SCF Done:  E(RB3LYP) =  -680.621318460     A.U. after   12 cycles
 SCF Done:  E(RB3LYP) =  -680.621338546     A.U. after   12 cycles
 SCF Done:  E(RB3LYP) =  -680.621341233     A.U. after    9 cycles
 SCF Done:  E(RB3LYP) =  -680.621341604     A.U. after    8 cycles
 SCF Done:  E(RB3LYP) =  -680.621341653     A.U. after    8 cycles
 Optimization completed.
    -- Stationary point found.
 Normal termination of Gaussian 09 at Fri Aug 20 15:38:27 2021.

 ----------------------------------------------------------------------
 #P Geom=AllCheck Guess=TCheck SCRF=Check GenChk RB3LYP/6-31G(d,p) Freq
 ----------------------------------------------------------------------

 Structure from the checkpoint file:  "/public/home/users/caep010/.cache/gau_scr/Gau-86106.chk"
 ------
 XAVMOW
 ------
 Charge =  0 Multiplicity = 1

                         Standard orientation:
 ---------------------------------------------------------------------
 Center     Atomic      Atomic             Coordinates (Angstroms)
 Number     Number       Type             X           Y           Z
 ---------------------------------------------------------------------
      1          8           0       -4.519396   -0.626327    0.293463
      2          1           0       -4.582712    0.326730    0.057807
      3          7           0       -3.141359   -0.839270    0.169629
      4          1           0       -2.820688   -1.488566    0.877455
      5          6           0       -2.407607    0.284960   -0.110537
      6          8           0       -2.985292    1.334458   -0.399900
      7          6           0       -0.922916    0.137808   -0.081707
      8          6           0       -0.284842   -1.104937   -0.214138
      9          6           0        1.103292   -1.187643   -0.170964
     10          6           0        1.835803   -0.014932   -0.001689
     11          7           0        3.307941   -0.098423    0.046283
     12          8           0        3.818092   -1.212236   -0.063204
     13          6           0       -0.159943    1.304043    0.069285
     14          1           0       -0.673203    2.255765    0.146689
     15          6           0        1.227668    1.233635    0.114810
     16          1           0        1.841562    2.116890    0.236476
     17          8           0        3.932203    0.950393    0.194625
     18          1           0        1.623672   -2.130970   -0.276024
     19          1           0       -0.868290   -2.003913   -0.384005
 ---------------------------------------------------------------------

 SCF Done:  E(RB3LYP) =  -680.621341653     A.U. after    1 cycles

 The electronic state is 1-A.
 Alpha  occ. eigenvalues --  -19.20351 -19.19367 -19.19355 -19.15444 -14.58465
 Alpha  occ. eigenvalues --  -14.43495 -10.32171 -10.27198 -10.24640 -10.23933
 Alpha  occ. eigenvalues --  -10.23813 -10.23630 -10.23284  -1.23687  -1.12151
 Alpha  occ. eigenvalues --   -1.06441  -1.04581  -0.91221  -0.88037  -0.82458
 Alpha  occ. eigenvalues --   -0.79211  -0.72998  -0.65695  -0.65006  -0.61416
 Alpha  occ. eigenvalues --   -0.58301  -0.55829  -0.54413  -0.54301  -0.52449
 Alpha  occ. eigenvalues --   -0.49340  -0.48465  -0.46689  -0.46302  -0.45674
 Alpha  occ. eigenvalues --   -0.42827  -0.40936  -0.40064  -0.38661  -0.36917
 Alpha  occ. eigenvalues --   -0.32190  -0.31931  -0.30552  -0.30308  -0.29737
 Alpha  occ. eigenvalues --   -0.29236  -0.25561
 Alpha virt. eigenvalues --   -0.10897  -0.04721  -0.04199   0.02687   0.06115
 Alpha virt. eigenvalues --    0.07628   0.08503   0.12408   0.13569   0.13991
 Alpha virt. eigenvalues --    0.15083   0.17079   0.17697   0.22562   0.25468

 Mulliken charges:
               1
     1  O   -0.427544
     2  H    0.345664
     3  N   -0.269549
     4  H    0.288653
     5  C    0.542555
     6  O   -0.527998
     7  C    0.063053
     8  C   -0.132042
     9  C   -0.093577
    10  C    0.251424
    11  N    0.391184
    12  O   -0.390754
    13  C   -0.110605
    14  H    0.138355
    15  C   -0.093207
    16  H    0.147977
    17  O   -0.388217
    18  H    0.146704
    19  H    0.117924
 Sum of Mulliken charges =  -0.00000

 Dipole moment (field-independent basis, Debye):
    X=             -1.7831    Y=             -1.1456    Z=              1.1488  Tot=              2.4107
 Quadrupole moment (field-independent basis, Debye-Ang):
   XX=            -98.4527   YY=            -69.6418   ZZ=            -71.9896
   XY=              2.8222   XZ=             -3.6108   YZ=              0.0313

  Exact polarizability: 162.909   1.608 105.922   1.030   1.851  39.227
 Approx polarizability: 236.526   3.159 222.293   3.919   5.304  62.097

                      1                      2                      3
                      A                      A                      A
 Frequencies --     48.5774                63.8651                79.3223
 Red. masses --     11.6847                 7.3951                 6.0715
 Frc consts  --      0.0162                 0.0178                 0.0225
 IR Inten    --      0.4501                 2.1638                 5.1301

                      4                      5                      6
                      A                      A                      A
 Frequencies --    120.9187               181.2197               244.0685
 Red. masses --      8.1157                 6.4574                 8.1880
 Frc consts  --      0.0699                 0.1249                 0.2874
 IR Inten    --      4.0107                 0.8188                 3.4210

                      7                      8                      9
                      A                      A                      A
 Frequencies --    277.2954               299.4211               333.1444
 Red. masses --     10.4019                 6.1566                 6.2202
 Frc consts  --      0.4712                 0.3252                 0.4067
 IR Inten    --      0.9602                 9.3655                45.4465

                     10                     11                     12
                      A                      A                      A
 Frequencies --    417.8064               422.4069               449.9537
 Red. masses --      1.8700                 2.4332                 2.4390
 Frc consts  --      0.1923                 0.2558                 0.2909
 IR Inten    --     59.0227                24.0790                60.5345

                     13                     14                     15
                      A                      A                      A
 Frequencies --    488.8107               500.2863               522.7802
 Red. masses --      3.9261                 2.0187                 3.8651
 Frc consts  --      0.5527                 0.2977                 0.6224
 IR Inten    --     17.7704                37.2555                37.4465

                     16                     17                     18
                      A                      A                      A
 Frequencies --    549.8500               640.6942               686.6458
 Red. masses --      3.4031                 6.8283                 5.2675
 Frc consts  --      0.6062                 1.6515                 1.4632
 IR Inten    --     31.7352                 0.4082                 4.1672

                     19                     20                     21
                      A                      A                      A
 Frequencies --    724.8367               728.8329               774.8409
 Red. masses --      3.7101                 7.3843                 6.3666
 Frc consts  --      1.1485                 2.3111                 2.2521
 IR Inten    --     67.4413                 5.2543                 3.4571

                     22                     23                     24
                      A                      A                      A
 Frequencies --    860.7949               862.8078               890.0702
 Red. masses --      8.5697                 1.2797                 1.7166
 Frc consts  --      3.7413                 0.5613                 0.8013
 IR Inten    --     64.6895                 0.7058                22.2140

                     25                     26                     27
                      A                      A                      A
 Frequencies --    921.7200               992.3385              1004.2899
 Red. masses --      5.3693                 1.3246                 1.3263
 Frc consts  --      2.6876                 0.7685                 0.7881
 IR Inten    --     12.4733                 1.3434                 0.1169

                     28                     29                     30
                      A                      A                      A
 Frequencies --   1030.9259              1049.2742              1126.3928
 Red. masses --      3.0806                 4.9392                 2.7625
 Frc consts  --      1.9290                 3.2039                 2.0651
 IR Inten    --     28.1602                86.7653                26.6986

                     31                     32                     33
                      A                      A                      A
 Frequencies --   1129.2190              1167.3124              1201.7989
 Red. masses --      1.3341                 3.3191                 1.3045
 Frc consts  --      1.0023                 2.6647                 1.1101
 IR Inten    --     10.6344                22.8289                 0.3979

                     34                     35                     36
                      A                      A                      A
 Frequencies --   1283.7087              1322.3450              1373.5699
 Red. masses --      1.7832                 1.3149                 8.2300
 Frc consts  --      1.7314                 1.3547                 9.1485
 IR Inten    --      3.4819                 1.4690                20.9709

                     37                     38                     39
                      A                      A                      A
 Frequencies --   1397.6443              1415.3019              1444.0522
 Red. masses --     11.1999                 2.1219                 3.1964
 Frc consts  --     12.8902                 2.5042                 3.9272
 IR Inten    --    450.7430               160.5158                28.9848

                     40                     41                     42
                      A                      A                      A
 Frequencies --   1529.5182              1559.1259              1617.8208
 Red. masses --      2.2426                 1.4730                 9.4589
 Frc consts  --      3.0911                 2.1097                14.5865
 IR Inten    --      1.1412                49.0970                84.2204

                     43                     44                     45
                      A                      A                      A
 Frequencies --   1655.1584              1670.5219              1741.0063
 Red. masses --      5.8575                10.1654                 8.8698
 Frc consts  --      9.4546                16.7139                15.8403
 IR Inten    --      2.7194               133.5340               145.3332

                     46                     47                     48
                      A                      A                      A
 Frequencies --   3207.4258              3227.1024              3248.3701
 Red. masses --      1.0905                 1.0904                 1.0931
 Frc consts  --      6.6098                 6.6907                 6.7957
 IR Inten    --      2.4631                 0.6113                 2.0820

                     49                     50                     51
                      A                      A                      A
 Frequencies --   3249.5602              3542.3107              3605.6894
 Red. masses --      1.0938                 1.0641                 1.0792
 Frc consts  --      6.8052                 7.8669                 8.2666
 IR Inten    --      1.8563                44.3056                55.0891

 - Thermochemistry -
 -------------------
 Temperature   298.150 Kelvin.  Pressure   1.00000 Atm.
 Atom     1 has atomic number  8 and mass  15.99491

 Molecular mass:   182.03276 amu.
 Principal axes and moments of inertia in atomic units:
                           1         2         3
     Eigenvalues --   650.692685139.180465736.64321
           X            0.99999   0.00267  -0.00175
           Y           -0.00266   0.99998   0.00528
           Z            0.00177  -0.00528   0.99998
 This molecule is an asymmetric top.
 Rotational symmetry number  1.
 Warning -- assumption of classical behavior for rotation
           may cause significant error
 Rotational temperatures (Kelvin)      0.13311     0.01685     0.01510
 Rotational constants (GHZ):           2.77357     0.35117     0.31460
 Zero-point vibrational energy     352197.1 (Joules/Mol)
                                   84.17712 (Kcal/Mol)
 Warning -- explicit consideration of  16 degrees of freedom as
           vibrations may cause significant error
 Vibrational temperatures:     69.89    91.89   114.13   173.97   260.73
          (Kelvin)            351.16   398.97   430.80   479.32   601.13
                              607.75   647.38   703.29   719.80   752.16
                              791.11   921.81   987.93  1042.88  1048.63
                             1114.82  1238.49  1241.39  1280.61  1326.15
                             1427.75  1444.95  1483.27  1509.67  1620.63
                             1624.69  1679.50  1729.12  1846.97  1902.56
                             1976.26  2010.90  2036.30  2077.67  2200.63
                             2243.23  2327.68  2381.40  2403.51  2504.92
                             4614.76  4643.07  4673.67  4675.39  5096.59
                             5187.78

 Zero-point correction=                           0.134145 (Hartree/Particle)
 Thermal correction to Energy=                    0.145191
 Thermal correction to Enthalpy=                  0.146135
 Thermal correction to Gibbs Free Energy=         0.096147
 Sum of electronic and zero-point Energies=           -680.487197
 Sum of electronic and thermal Energies=              -680.476150
 Sum of electronic and thermal Enthalpies=            -680.475206
 Sum of electronic and thermal Free Energies=         -680.525195

                     E (Thermal)             CV                S
                      KCal/Mol        Cal/Mol-Kelvin    Cal/Mol-Kelvin
 Total                   91.109             41.042            105.209
 Electronic               0.000              0.000              0.000
 Translational            0.889              2.981             41.504
 Rotational               0.889              2.981             31.329
 Vibrational             89.331             35.081             32.377
 Vibration     1          0.595              1.978              4.874
 Vibration     2          0.597              1.972              4.334
 Vibration     3          0.600              1.963              3.908
 Vibration     4          0.609              1.932              3.086
 Vibration     5          0.630              1.865              2.316
 Vibration     6          0.659              1.773              1.773
 Vibration     7          0.678              1.715              1.550
 Vibration     8          0.692              1.675              1.420
 Vibration     9          0.715              1.609              1.245
 Vibration    10          0.781              1.432              0.899
 Vibration    11          0.785              1.422              0.884
 Vibration    12          0.809              1.361              0.796
 Vibration    13          0.845              1.275              0.687
 Vibration    14          0.856              1.249              0.657
 Vibration    15          0.878              1.200              0.604
 Vibration    16          0.905              1.140              0.544

 Optimization completed.
    -- Stationary point found.
 Normal termination of Gaussian 09 at Fri Aug 20 15:38:59 2021.
 Normal termination of Gaussian 09 at Fri Aug 20 15:38:54 2021.
