 Gaussian 09, Revision E.01,
 Gaussian 09:  ES64L-G09RevE.01 30-Nov-2015

 -------------------------
 #P OPT Freq B3LYP/6-31G**
 -------------------------

 ------
 GARBUY
 ------
 Symbolic Z-matrix:
 Charge =  0 Multiplicity = 1

 SCF Done:  E(RB3LYP) =  -680.553343291     A.U. after   16 cycles
 SCF Done:  E(RB3LYP) =  -680.660515549     A.U. after   14 cycles
 SCF Done:  E(RB3LYP) =  -680.702970297     A.U. after   15 cycles
 SCF Done:  E(RB3LYP) =  -680.696108288     A.U. after   17 cycles
 SCF Done:  E(RB3LYP) =  -680.704035980     A.U. after   13 cycles
 SCF Done:  E(RB3LYP) =  -680.703706251     A.U. after   14 cycles
 SCF Done:  E(RB3LYP) =  -680.704602861     A.U. after    9 cycles
 SCF Done:  E(RB3LYP) =  -680.704696380     A.U. after   13 cycles
 SCF Done:  E(RB3LYP) =  -680.704985879     A.U. after   12 cycles
 SCF Done:  E(RB3LYP) =  -680.704996854     A.U. after   10 cycles
 SCF Done:  E(RB3LYP) =  -680.704998862     A.U. after    9 cycles
 SCF Done:  E(RB3LYP) =  -680.704999520     A.U. after    9 cycles
 SCF Done:  E(RB3LYP) =  -680.704999552     A.U. after    8 cycles
 Optimization completed.
    -- Stationary point found.
 Normal termination of Gaussian 09 at Fri Aug 20 15:47:22 2021.

 ----------------------------------------------------------------------
 #P Geom=AllCheck Guess=TCheck SCRF=Check GenChk RB3LYP/6-31G(d,p) Freq
 ----------------------------------------------------------------------

 Structure from the checkpoint file:  "/public/home/users/caep010/.cache/gau_scr/Gau-106953.chk"
 ------
 GARBUY
 ------
 Charge =  0 Multiplicity = 1

                         Standard orientation:
 ---------------------------------------------------------------------
 Center     Atomic      Atomic             Coordinates (Angstroms)
 Number     Number       Type             X           Y           Z
 ---------------------------------------------------------------------
      1          6           0        1.143296    1.297396   -0.000207
      2          6           0        0.984678   -0.126576   -0.000171
      3          6           0       -0.027667    2.101871   -0.000013
      4          6           0        2.167611   -1.003675    0.000202
      5          7           0        2.363453    1.876080   -0.000868
      6          8           0        3.334546   -0.625220    0.000928
      7          1           0        2.450379    2.878485    0.001153
      8          6           0       -0.300529   -0.679535   -0.000156
      9          1           0       -0.431104   -1.753184   -0.000161
     10          6           0       -1.416554    0.141610   -0.000053
     11          1           0        0.082658    3.182317   -0.000036
     12          6           0       -1.283900    1.539240    0.000086
     13          1           0       -2.176601    2.152259    0.000240
     14          1           0        3.181779    1.278373    0.000493
     15          7           0       -2.745896   -0.452513    0.000033
     16          8           0       -2.830514   -1.683040   -0.000349
     17          8           0        1.867080   -2.321146   -0.000381
     18          1           0        2.718059   -2.789511    0.000054
     19          8           0       -3.714822    0.312443    0.000549
 ---------------------------------------------------------------------

 SCF Done:  E(RB3LYP) =  -680.704999552     A.U. after    1 cycles

 The electronic state is 1-A.
 Alpha  occ. eigenvalues --  -19.21164 -19.16929 -19.16903 -19.15839 -14.56215
 Alpha  occ. eigenvalues --  -14.37381 -10.34187 -10.27663 -10.24326 -10.22658
 Alpha  occ. eigenvalues --  -10.22618 -10.22586 -10.21622  -1.21196  -1.12328
 Alpha  occ. eigenvalues --   -1.03854  -1.03071  -0.95720  -0.88272  -0.80272
 Alpha  occ. eigenvalues --   -0.78800  -0.69498  -0.68318  -0.64205  -0.59090
 Alpha  occ. eigenvalues --   -0.56200  -0.54809  -0.53599  -0.52164  -0.51754
 Alpha  occ. eigenvalues --   -0.49798  -0.49256  -0.46773  -0.46178  -0.45116
 Alpha  occ. eigenvalues --   -0.43318  -0.41044  -0.41041  -0.38282  -0.34570
 Alpha  occ. eigenvalues --   -0.33414  -0.30259  -0.29994  -0.29455  -0.28464
 Alpha  occ. eigenvalues --   -0.28044  -0.23475
 Alpha virt. eigenvalues --   -0.07656  -0.06343   0.00498   0.04902   0.06398
 Alpha virt. eigenvalues --    0.07197   0.09749   0.13793   0.15935   0.16097
 Alpha virt. eigenvalues --    0.17504   0.19592   0.22867   0.22956   0.25249

 Mulliken charges:
               1
     1  C    0.330227
     2  C   -0.004845
     3  C   -0.129142
     4  C    0.588288
     5  N   -0.674891
     6  O   -0.521579
     7  H    0.272867
     8  C   -0.116713
     9  H    0.161850
    10  C    0.232672
    11  H    0.095284
    12  C   -0.083719
    13  H    0.140202
    14  H    0.312286
    15  N    0.379922
    16  O   -0.410222
    17  O   -0.492123
    18  H    0.330757
    19  O   -0.411120
 Sum of Mulliken charges =  -0.00000

 Dipole moment (field-independent basis, Debye):
    X=              4.9392    Y=              2.7917    Z=              0.0041  Tot=              5.6736
 Quadrupole moment (field-independent basis, Debye-Ang):
   XX=            -86.3518   YY=            -59.4478   ZZ=            -73.0477
   XY=             -3.4451   XZ=              0.0113   YZ=              0.0092

  Exact polarizability: 157.978   6.156 121.262  -0.005   0.005  35.813
 Approx polarizability: 275.160  15.781 220.352  -0.022   0.013  56.206

                      1                      2                      3
                      A                      A                      A
 Frequencies --     61.6183                74.1425               115.7060
 Red. masses --     13.0231                11.3600                 8.2937
 Frc consts  --      0.0291                 0.0368                 0.0654
 IR Inten    --      0.1530                 0.1213                 6.5927

                      4                      5                      6
                      A                      A                      A
 Frequencies --    147.4851               163.7680               289.4702
 Red. masses --      4.4283                 9.7633                 6.2131
 Frc consts  --      0.0568                 0.1543                 0.3067
 IR Inten    --      5.7326                 2.2093                 2.1108

                      7                      8                      9
                      A                      A                      A
 Frequencies --    291.0696               302.2739               352.8479
 Red. masses --      1.2029                 5.4333                 8.0045
 Frc consts  --      0.0600                 0.2925                 0.5872
 IR Inten    --    173.8213                12.0856                 1.5659

                     10                     11                     12
                      A                      A                      A
 Frequencies --    365.8426               420.3904               437.1306
 Red. masses --      7.5265                 5.8128                 3.1830
 Frc consts  --      0.5935                 0.6053                 0.3584
 IR Inten    --      5.7465                 1.9920                 1.2721

                     13                     14                     15
                      A                      A                      A
 Frequencies --    498.6399               523.5277               566.1961
 Red. masses --      6.1485                 3.0926                 4.8509
 Frc consts  --      0.9007                 0.4994                 0.9162
 IR Inten    --     10.0985                 6.3081                 0.0412

                     16                     17                     18
                      A                      A                      A
 Frequencies --    593.8086               653.3394               656.5749
 Red. masses --      1.2419                 7.2102                 1.0520
 Frc consts  --      0.2580                 1.8133                 0.2672
 IR Inten    --     98.8701                15.9201                23.7848

                     19                     20                     21
                      A                      A                      A
 Frequencies --    674.3164               709.3779               753.6929
 Red. masses --      5.0042                 4.3457                 7.5746
 Frc consts  --      1.3406                 1.2884                 2.5351
 IR Inten    --     70.1848                30.4034                14.4793

                     22                     23                     24
                      A                      A                      A
 Frequencies --    779.7421               788.8605               835.3122
 Red. masses --      5.5072                 5.0785                 6.8409
 Frc consts  --      1.9728                 1.8620                 2.8123
 IR Inten    --     15.9951                20.5119                 5.5463

                     25                     26                     27
                      A                      A                      A
 Frequencies --    840.8492               936.6825               968.1117
 Red. masses --      1.6787                 6.4485                 1.3987
 Frc consts  --      0.6993                 3.3335                 0.7724
 IR Inten    --     21.9594                14.9469                 5.4440

                     28                     29                     30
                      A                      A                      A
 Frequencies --    989.1539              1060.5257              1090.6343
 Red. masses --      1.3035                 1.7386                 2.2525
 Frc consts  --      0.7514                 1.1521                 1.5786
 IR Inten    --      0.5606                 0.5308                53.0483

                     31                     32                     33
                      A                      A                      A
 Frequencies --   1147.7647              1180.4195              1212.3140
 Red. masses --      2.9221                 1.1765                 2.0930
 Frc consts  --      2.2680                 0.9659                 1.8124
 IR Inten    --    189.9862                95.3852               189.5998

                     34                     35                     36
                      A                      A                      A
 Frequencies --   1301.1867              1362.5643              1378.9545
 Red. masses --      1.4551                 2.6056                 4.7848
 Frc consts  --      1.4515                 2.8502                 5.3606
 IR Inten    --     15.1381                21.3352               375.6435

                     37                     38                     39
                      A                      A                      A
 Frequencies --   1394.3233              1431.4797              1478.2222
 Red. masses --      5.9412                 5.7300                 4.7768
 Frc consts  --      6.8053                 6.9179                 6.1498
 IR Inten    --    299.6878                96.1296                10.0469

                     40                     41                     42
                      A                      A                      A
 Frequencies --   1524.2676              1593.2926              1619.1393
 Red. masses --      2.3105                 6.4488                 2.5521
 Frc consts  --      3.1628                 9.6453                 3.9419
 IR Inten    --     24.4580                25.9440                60.8911

                     43                     44                     45
                      A                      A                      A
 Frequencies --   1651.9283              1675.4170              1776.5786
 Red. masses --      4.0788                 4.5231                 7.1547
 Frc consts  --      6.5578                 7.4805                13.3048
 IR Inten    --    307.2982               310.5717               328.1407

                     46                     47                     48
                      A                      A                      A
 Frequencies --   3190.8713              3243.3412              3262.4822
 Red. masses --      1.0904                 1.0929                 1.0911
 Frc consts  --      6.5410                 6.7738                 6.8423
 IR Inten    --      9.6678                 1.9146                 7.8078

                     49                     50                     51
                      A                      A                      A
 Frequencies --   3531.1718              3721.3612              3769.5304
 Red. masses --      1.0523                 1.0989                 1.0645
 Frc consts  --      7.7311                 8.9661                 8.9117
 IR Inten    --    188.4637                82.0797                98.1824

 - Thermochemistry -
 -------------------
 Temperature   298.150 Kelvin.  Pressure   1.00000 Atm.
 Atom     1 has atomic number  6 and mass  12.00000

 Molecular mass:   182.03276 amu.
 Principal axes and moments of inertia in atomic units:
                           1         2         3
     Eigenvalues --  1238.585583297.626494536.21181
           X            1.00000  -0.00000   0.00000
           Y            0.00000   1.00000   0.00001
           Z           -0.00000  -0.00001   1.00000
 This molecule is an asymmetric top.
 Rotational symmetry number  1.
 Warning -- assumption of classical behavior for rotation
           may cause significant error
 Rotational temperatures (Kelvin)      0.06993     0.02627     0.01909
 Rotational constants (GHZ):           1.45710     0.54728     0.39785
 Zero-point vibrational energy     355217.3 (Joules/Mol)
                                   84.89898 (Kcal/Mol)
 Warning -- explicit consideration of  16 degrees of freedom as
           vibrations may cause significant error
 Vibrational temperatures:     88.65   106.67   166.47   212.20   235.63
          (Kelvin)            416.48   418.78   434.90   507.67   526.37
                              604.85   628.93   717.43   753.24   814.63
                              854.36   940.01   944.66   970.19  1020.64
                             1084.39  1121.87  1134.99  1201.83  1209.79
                             1347.68  1392.90  1423.17  1525.86  1569.18
                             1651.38  1698.36  1744.25  1872.12  1960.42
                             1984.01  2006.12  2059.58  2126.83  2193.08
                             2292.39  2329.58  2376.75  2410.55  2556.10
                             4590.95  4666.44  4693.98  5080.56  5354.20
                             5423.51

 Zero-point correction=                           0.135295 (Hartree/Particle)
 Thermal correction to Energy=                    0.146214
 Thermal correction to Enthalpy=                  0.147159
 Thermal correction to Gibbs Free Energy=         0.098055
 Sum of electronic and zero-point Energies=           -680.569704
 Sum of electronic and thermal Energies=              -680.558785
 Sum of electronic and thermal Enthalpies=            -680.557841
 Sum of electronic and thermal Free Energies=         -680.606945

                     E (Thermal)             CV                S
                      KCal/Mol        Cal/Mol-Kelvin    Cal/Mol-Kelvin
 Total                   91.751             41.463            103.347
 Electronic               0.000              0.000              0.000
 Translational            0.889              2.981             41.504
 Rotational               0.889              2.981             31.294
 Vibrational             89.973             35.501             30.549
 Vibration     1          0.597              1.973              4.405
 Vibration     2          0.599              1.966              4.040
 Vibration     3          0.608              1.936              3.171
 Vibration     4          0.617              1.905              2.704
 Vibration     5          0.623              1.887              2.506
 Vibration     6          0.686              1.693              1.477
 Vibration     7          0.687              1.690              1.468
 Vibration     8          0.694              1.669              1.404
 Vibration     9          0.729              1.569              1.153
 Vibration    10          0.739              1.543              1.097
 Vibration    11          0.783              1.426              0.891
 Vibration    12          0.797              1.389              0.836
 Vibration    13          0.854              1.253              0.662
 Vibration    14          0.878              1.198              0.602
 Vibration    15          0.922              1.104              0.512
 Vibration    16          0.951              1.045              0.460

 Normal termination of Gaussian 09 at Fri Aug 20 15:47:53 2021.
