 Gaussian 09, Revision E.01,
 Gaussian 09:  ES64L-G09RevE.01 30-Nov-2015

 -------------------------
 #P OPT Freq B3LYP/6-31G**
 -------------------------

 ------
 ROFGAV
 ------
 Symbolic Z-matrix:
 Charge =  0 Multiplicity = 1

 SCF Done:  E(RB3LYP) =  -568.200472922     A.U. after   16 cycles
 SCF Done:  E(RB3LYP) =  -568.280310779     A.U. after   14 cycles
 SCF Done:  E(RB3LYP) =  -568.309901524     A.U. after   16 cycles
 SCF Done:  E(RB3LYP) =  -568.301392442     A.U. after   16 cycles
 SCF Done:  E(RB3LYP) =  -568.310139726     A.U. after   12 cycles
 SCF Done:  E(RB3LYP) =  -568.309746163     A.U. after   15 cycles
 SCF Done:  E(RB3LYP) =  -568.310488842     A.U. after   11 cycles
 SCF Done:  E(RB3LYP) =  -568.310855737     A.U. after   14 cycles
 SCF Done:  E(RB3LYP) =  -568.311386404     A.U. after   13 cycles
 SCF Done:  E(RB3LYP) =  -568.312221520     A.U. after   16 cycles
 SCF Done:  E(RB3LYP) =  -568.312622207     A.U. after   14 cycles
 SCF Done:  E(RB3LYP) =  -568.313023874     A.U. after   14 cycles
 SCF Done:  E(RB3LYP) =  -568.313079359     A.U. after   14 cycles
 SCF Done:  E(RB3LYP) =  -568.313097803     A.U. after   14 cycles
 SCF Done:  E(RB3LYP) =  -568.313104735     A.U. after   12 cycles
 SCF Done:  E(RB3LYP) =  -568.313106956     A.U. after   12 cycles
 SCF Done:  E(RB3LYP) =  -568.313107199     A.U. after   10 cycles
 Optimization completed.
    -- Stationary point found.
 Normal termination of Gaussian 09 at Fri Aug 20 15:54:23 2021.

 ----------------------------------------------------------------------
 #P Geom=AllCheck Guess=TCheck SCRF=Check GenChk RB3LYP/6-31G(d,p) Freq
 ----------------------------------------------------------------------

 Structure from the checkpoint file:  "/public/home/users/caep010/.cache/gau_scr/Gau-164338.chk"
 ------
 ROFGAV
 ------
 Charge =  0 Multiplicity = 1

                         Standard orientation:
 ---------------------------------------------------------------------
 Center     Atomic      Atomic             Coordinates (Angstroms)
 Number     Number       Type             X           Y           Z
 ---------------------------------------------------------------------
      1          8           0        1.465379   -2.366495    0.235871
      2          7           0        1.737400   -1.192999   -0.010974
      3          6           0        0.626922   -0.216888    0.003167
      4          6           0        0.861112    1.173170    0.028840
      5          6           0        2.215976    1.832752    0.061254
      6          1           0        2.846653    1.426674    0.855263
      7          6           0       -0.653848   -0.764878   -0.010253
      8          1           0        2.097433    2.907776    0.215604
      9          1           0       -0.764993   -1.840996   -0.018009
     10          6           0       -1.767101    0.079297   -0.011798
     11          6           0       -3.091360   -0.470277   -0.036366
     12          7           0       -4.168989   -0.906741   -0.056452
     13          6           0       -1.572720    1.469936    0.013889
     14          1           0       -2.430593    2.133510    0.017013
     15          6           0       -0.284651    1.986892    0.039537
     16          1           0       -0.149495    3.063366    0.068651
     17          1           0        2.759245    1.666087   -0.872321
     18          8           0        2.866732   -0.783289   -0.276350
 ---------------------------------------------------------------------

 SCF Done:  E(RB3LYP) =  -568.313107199     A.U. after    1 cycles

 The electronic state is 1-A.
 Alpha  occ. eigenvalues --  -19.19700 -19.19595 -14.58848 -14.35147 -10.27717
 Alpha  occ. eigenvalues --  -10.26430 -10.25875 -10.24692 -10.24616 -10.24388
 Alpha  occ. eigenvalues --  -10.23572 -10.21098  -1.24070  -1.06730  -0.92776
 Alpha  occ. eigenvalues --   -0.90947  -0.83668  -0.81944  -0.74836  -0.71463
 Alpha  occ. eigenvalues --   -0.65536  -0.63415  -0.58439  -0.54948  -0.53413
 Alpha  occ. eigenvalues --   -0.53062  -0.50873  -0.49976  -0.46997  -0.44872
 Alpha  occ. eigenvalues --   -0.42643  -0.41706  -0.40518  -0.40072  -0.37240
 Alpha  occ. eigenvalues --   -0.36014  -0.34728  -0.32405  -0.32107  -0.30965
 Alpha  occ. eigenvalues --   -0.29879  -0.28343
 Alpha virt. eigenvalues --   -0.10460  -0.06997  -0.02676   0.02071   0.05969
 Alpha virt. eigenvalues --    0.06472   0.09532   0.11616   0.12803   0.13732
 Alpha virt. eigenvalues --    0.15229   0.17490   0.18403   0.19594   0.20901

 Mulliken charges:
               1
     1  O   -0.383006
     2  N    0.377374
     3  C    0.199331
     4  C    0.131819
     5  C   -0.350753
     6  H    0.146866
     7  C   -0.081654
     8  H    0.108094
     9  H    0.163671
    10  C    0.091352
    11  C    0.247861
    12  N   -0.465649
    13  C   -0.052838
    14  H    0.128518
    15  C   -0.135836
    16  H    0.111024
    17  H    0.156596
    18  O   -0.392769
 Sum of Mulliken charges =  -0.00000

 Dipole moment (field-independent basis, Debye):
    X=              1.3956    Y=              4.6506    Z=              0.0995  Tot=              4.8565
 Quadrupole moment (field-independent basis, Debye-Ang):
   XX=            -89.1359   YY=            -65.6223   ZZ=            -67.2287
   XY=             -0.3577   XZ=              0.4333   YZ=              0.6901

  Exact polarizability: 151.522  11.295 111.062  -0.905  -0.915  42.050
 Approx polarizability: 254.050  30.188 197.796  -5.558  -5.668  66.141

                      1                      2                      3
                      A                      A                      A
 Frequencies --     28.9845               100.0766               128.3147
 Red. masses --     10.5016                 4.5272                11.0163
 Frc consts  --      0.0052                 0.0267                 0.1069
 IR Inten    --      0.3196                 1.3707                 5.6839

                      4                      5                      6
                      A                      A                      A
 Frequencies --    147.2657               223.5384               264.2828
 Red. masses --      5.3824                 1.0930                 4.1386
 Frc consts  --      0.0688                 0.0322                 0.1703
 IR Inten    --      3.7527                 1.2778                 1.3926

                      7                      8                      9
                      A                      A                      A
 Frequencies --    271.7522               359.2494               391.0124
 Red. masses --      6.6501                 4.8899                 5.8590
 Frc consts  --      0.2893                 0.3718                 0.5278
 IR Inten    --      1.7352                 2.5506                 0.2701

                     10                     11                     12
                      A                      A                      A
 Frequencies --    417.8998               438.8324               456.4288
 Red. masses --      7.5562                 3.4971                 5.1289
 Frc consts  --      0.7775                 0.3968                 0.6295
 IR Inten    --      0.4478                 0.1508                 0.1261

                     13                     14                     15
                      A                      A                      A
 Frequencies --    514.9803               582.2808               603.1699
 Red. masses --      7.6436                 5.4538                 5.2211
 Frc consts  --      1.1944                 1.0895                 1.1191
 IR Inten    --      0.7764                 4.9320                10.8469

                     16                     17                     18
                      A                      A                      A
 Frequencies --    692.0708               701.1179               740.4021
 Red. masses --      7.1302                 3.6771                 5.2240
 Frc consts  --      2.0121                 1.0650                 1.6873
 IR Inten    --      2.5038                 0.5783                 9.1662

                     19                     20                     21
                      A                      A                      A
 Frequencies --    772.8304               821.4729               850.3986
 Red. masses --      7.0082                 8.9045                 1.3206
 Frc consts  --      2.4662                 3.5404                 0.5627
 IR Inten    --     10.5982                29.0002                14.4469

                     22                     23                     24
                      A                      A                      A
 Frequencies --    935.6590               944.4991               986.7709
 Red. masses --      6.1752                 1.4499                 1.3307
 Frc consts  --      3.1852                 0.7620                 0.7634
 IR Inten    --     10.8336                 9.6093                 0.0140

                     25                     26                     27
                      A                      A                      A
 Frequencies --   1029.7609              1062.7319              1095.1206
 Red. masses --      1.4646                 1.5494                 2.7346
 Frc consts  --      0.9151                 1.0310                 1.9323
 IR Inten    --      1.4599                 5.1081                18.4599

                     28                     29                     30
                      A                      A                      A
 Frequencies --   1186.6431              1224.0572              1232.3226
 Red. masses --      1.3626                 1.9690                 7.5298
 Frc consts  --      1.1304                 1.7382                 6.7372
 IR Inten    --      6.6530                 4.7973                 5.7882

                     31                     32                     33
                      A                      A                      A
 Frequencies --   1305.8864              1339.2730              1394.5931
 Red. masses --      1.4494                 6.5642                13.0106
 Frc consts  --      1.4563                 6.9370                14.9088
 IR Inten    --      4.2214                 7.3592               244.9760

                     34                     35                     36
                      A                      A                      A
 Frequencies --   1430.5203              1436.5441              1487.9060
 Red. masses --      1.2077                 3.1671                 1.0540
 Frc consts  --      1.4562                 3.8508                 1.3748
 IR Inten    --      2.4423                 4.4165                 7.2661

                     37                     38                     39
                      A                      A                      A
 Frequencies --   1497.4839              1531.1755              1595.0714
 Red. masses --      1.1457                 2.8859                 6.1013
 Frc consts  --      1.5137                 3.9863                 9.1461
 IR Inten    --     21.7248                11.6817                14.8565

                     40                     41                     42
                      A                      A                      A
 Frequencies --   1635.8275              1678.1167              2354.5552
 Red. masses --      9.1087                 7.8505                12.6796
 Frc consts  --     14.3609                13.0254                41.4166
 IR Inten    --    124.6344                92.1657                19.8780

                     43                     44                     45
                      A                      A                      A
 Frequencies --   3065.9835              3136.4371              3145.9923
 Red. masses --      1.0357                 1.1002                 1.1044
 Frc consts  --      5.7361                 6.3768                 6.4399
 IR Inten    --      9.4748                 4.0025                16.3889

                     46                     47                     48
                      A                      A                      A
 Frequencies --   3200.6502              3221.5418              3255.1386
 Red. masses --      1.0891                 1.0951                 1.0921
 Frc consts  --      6.5737                 6.6964                 6.8179
 IR Inten    --      5.0315                 2.0873                 7.7702

 - Thermochemistry -
 -------------------
 Temperature   298.150 Kelvin.  Pressure   1.00000 Atm.
 Atom     1 has atomic number  8 and mass  15.99491

 Molecular mass:   162.04293 amu.
 Principal axes and moments of inertia in atomic units:
                           1         2         3
     Eigenvalues --  1089.607932652.260263714.67994
           X            0.99970   0.02435   0.00064
           Y           -0.02435   0.99970   0.00231
           Z           -0.00058  -0.00233   1.00000
 This molecule is an asymmetric top.
 Rotational symmetry number  1.
 Warning -- assumption of classical behavior for rotation
           may cause significant error
 Rotational temperatures (Kelvin)      0.07949     0.03266     0.02332
 Rotational constants (GHZ):           1.65632     0.68045     0.48584
 Zero-point vibrational energy     340437.0 (Joules/Mol)
                                   81.36640 (Kcal/Mol)
 Warning -- explicit consideration of  15 degrees of freedom as
           vibrations may cause significant error
 Vibrational temperatures:     41.70   143.99   184.62   211.88   321.62
          (Kelvin)            380.24   390.99   516.88   562.58   601.26
                              631.38   656.70   740.94   837.77   867.83
                              995.73  1008.75  1065.27  1111.93  1181.91
                             1223.53  1346.20  1358.92  1419.74  1481.59
                             1529.03  1575.63  1707.31  1761.14  1773.04
                             1878.88  1926.91  2006.51  2058.20  2066.86
                             2140.76  2154.54  2203.02  2294.95  2353.59
                             2414.43  3387.68  4411.26  4512.63  4526.38
                             4605.02  4635.07  4683.41

 Zero-point correction=                           0.129666 (Hartree/Particle)
 Thermal correction to Energy=                    0.139805
 Thermal correction to Enthalpy=                  0.140750
 Thermal correction to Gibbs Free Energy=         0.092969
 Sum of electronic and zero-point Energies=           -568.183442
 Sum of electronic and thermal Energies=              -568.173302
 Sum of electronic and thermal Enthalpies=            -568.172358
 Sum of electronic and thermal Free Energies=         -568.220138

                     E (Thermal)             CV                S
                      KCal/Mol        Cal/Mol-Kelvin    Cal/Mol-Kelvin
 Total                   87.729             37.578            100.562
 Electronic               0.000              0.000              0.000
 Translational            0.889              2.981             41.157
 Rotational               0.889              2.981             30.752
 Vibrational             85.952             31.617             28.653
 Vibration     1          0.593              1.984              5.898
 Vibration     2          0.604              1.949              3.453
 Vibration     3          0.611              1.925              2.971
 Vibration     4          0.617              1.906              2.707
 Vibration     5          0.649              1.805              1.930
 Vibration     6          0.671              1.738              1.633
 Vibration     7          0.675              1.725              1.585
 Vibration     8          0.734              1.556              1.125
 Vibration     9          0.759              1.489              0.996
 Vibration    10          0.781              1.431              0.899
 Vibration    11          0.799              1.386              0.830
 Vibration    12          0.815              1.347              0.777
 Vibration    13          0.870              1.217              0.622
 Vibration    14          0.939              1.070              0.481
 Vibration    15          0.962              1.025              0.444

 Optimization completed.
    -- Stationary point found.
 Normal termination of Gaussian 09 at Fri Aug 20 15:54:49 2021.
