 Gaussian 09, Revision E.01,
 Gaussian 09:  ES64L-G09RevE.01 30-Nov-2015

 -------------------------
 #P OPT Freq B3LYP/6-31G**
 -------------------------

 --------
 ZZZTLC01
 --------
 Symbolic Z-matrix:
 Charge =  0 Multiplicity = 1

 SCF Done:  E(RB3LYP) =  -676.820010390     A.U. after   16 cycles
 SCF Done:  E(RB3LYP) =  -676.892901520     A.U. after   14 cycles
 SCF Done:  E(RB3LYP) =  -676.918110031     A.U. after   14 cycles
 SCF Done:  E(RB3LYP) =  -676.904318645     A.U. after   15 cycles
 SCF Done:  E(RB3LYP) =  -676.920627184     A.U. after   11 cycles
 SCF Done:  E(RB3LYP) =  -676.921042640     A.U. after   10 cycles
 SCF Done:  E(RB3LYP) =  -676.920559411     A.U. after   12 cycles
 SCF Done:  E(RB3LYP) =  -676.921060337     A.U. after    9 cycles
 SCF Done:  E(RB3LYP) =  -676.921075940     A.U. after    9 cycles
 SCF Done:  E(RB3LYP) =  -676.921077974     A.U. after    9 cycles
 SCF Done:  E(RB3LYP) =  -676.921078718     A.U. after    8 cycles
 SCF Done:  E(RB3LYP) =  -676.921079008     A.U. after    8 cycles
 Optimization completed.
    -- Stationary point found.
 Normal termination of Gaussian 09 at Fri Aug 20 15:57:04 2021.

 ----------------------------------------------------------------------
 #P Geom=AllCheck Guess=TCheck SCRF=Check GenChk RB3LYP/6-31G(d,p) Freq
 ----------------------------------------------------------------------

 Structure from the checkpoint file:  "/public/home/users/caep010/.cache/gau_scr/Gau-77901.chk"
 --------
 ZZZTLC01
 --------
 Charge =  0 Multiplicity = 1

                         Standard orientation:
 ---------------------------------------------------------------------
 Center     Atomic      Atomic             Coordinates (Angstroms)
 Number     Number       Type             X           Y           Z
 ---------------------------------------------------------------------
      1          7           0        2.776451    0.000001    0.044074
      2          8           0        3.332999   -1.094767    0.029938
      3          8           0        3.332988    1.094775    0.029937
      4          7           0        1.380970   -0.000003    0.140245
      5          6           0        0.714684   -1.239319   -0.267109
      6          6           0        0.714683    1.239313   -0.267110
      7          6           0       -0.714737   -1.239259    0.268570
      8          6           0       -0.714736    1.239253    0.268571
      9          7           0       -1.380941   -0.000003   -0.138782
     10          7           0       -2.776348    0.000001   -0.044947
     11          1           0        1.264124   -2.080898    0.150048
     12          1           0        1.264125    2.080891    0.150047
     13          1           0        0.710206   -1.331721   -1.362857
     14          1           0        0.710205    1.331714   -1.362858
     15          1           0       -1.264242   -2.080868   -0.148426
     16          1           0       -1.264242    2.080862   -0.148425
     17          1           0       -0.710179   -1.331519    1.364339
     18          1           0       -0.710178    1.331513    1.364340
     19          8           0       -3.333006   -1.094758   -0.031680
     20          8           0       -3.332994    1.094766   -0.031679
 ---------------------------------------------------------------------

 SCF Done:  E(RB3LYP) =  -676.921079008     A.U. after    1 cycles

 The electronic state is 1-A.
 Alpha  occ. eigenvalues --  -19.19161 -19.19160 -19.19156 -19.19154 -14.61095
 Alpha  occ. eigenvalues --  -14.61095 -14.42945 -14.42943 -10.26276 -10.26275
 Alpha  occ. eigenvalues --  -10.26255 -10.26253  -1.25301  -1.25271  -1.07183
 Alpha  occ. eigenvalues --   -1.07173  -1.01381  -0.97846  -0.82149  -0.81155
 Alpha  occ. eigenvalues --   -0.71728  -0.70045  -0.63693  -0.59507  -0.58389
 Alpha  occ. eigenvalues --   -0.56675  -0.56461  -0.54841  -0.54163  -0.53013
 Alpha  occ. eigenvalues --   -0.50443  -0.49979  -0.48492  -0.45469  -0.44475
 Alpha  occ. eigenvalues --   -0.42665  -0.40743  -0.40186  -0.34005  -0.33541
 Alpha  occ. eigenvalues --   -0.32254  -0.32164  -0.30634  -0.29871  -0.29779
 Alpha  occ. eigenvalues --   -0.28912
 Alpha virt. eigenvalues --   -0.06270  -0.06265   0.06291   0.08469   0.09513
 Alpha virt. eigenvalues --    0.10006   0.10619   0.12931   0.13068   0.13117
 Alpha virt. eigenvalues --    0.13414   0.16907   0.17498   0.18969   0.20010

 Mulliken charges:
               1
     1  N    0.657071
     2  O   -0.411150
     3  O   -0.411148
     4  N   -0.337459
     5  C   -0.051278
     6  C   -0.051278
     7  C   -0.051341
     8  C   -0.051341
     9  N   -0.337327
    10  N    0.657050
    11  H    0.168943
    12  H    0.168943
    13  H    0.133705
    14  H    0.133705
    15  H    0.168979
    16  H    0.168979
    17  H    0.133715
    18  H    0.133715
    19  O   -0.411244
    20  O   -0.411241
 Sum of Mulliken charges =  -0.00000

 Dipole moment (field-independent basis, Debye):
    X=              0.0015    Y=             -0.0000    Z=              0.0041  Tot=              0.0044
 Quadrupole moment (field-independent basis, Debye-Ang):
   XX=           -101.6079   YY=            -66.3451   ZZ=            -65.4463
   XY=              0.0000   XZ=             -1.4608   YZ=              0.0000

  Exact polarizability: 111.542  -0.000  90.585   1.129  -0.000  53.585
 Approx polarizability: 153.217  -0.000 171.635   1.060  -0.000  82.748

                      1                      2                      3
                      A                      A                      A
 Frequencies --     52.6961                81.6455               110.0197
 Red. masses --      7.2855                15.3914                 5.2654
 Frc consts  --      0.0119                 0.0604                 0.0376
 IR Inten    --      9.7144                 0.0167                 0.0000

                      4                      5                      6
                      A                      A                      A
 Frequencies --    135.5739               181.1766               250.3742
 Red. masses --      4.5672                 5.5501                 2.7568
 Frc consts  --      0.0495                 0.1073                 0.1018
 IR Inten    --      0.0001                 9.8727                26.1373

                      7                      8                      9
                      A                      A                      A
 Frequencies --    260.8841               286.0158               316.6513
 Red. masses --      2.1597                10.7738                 7.0036
 Frc consts  --      0.0866                 0.5193                 0.4137
 IR Inten    --      0.5031                 0.0000                 0.0000

                     10                     11                     12
                      A                      A                      A
 Frequencies --    362.6645               480.9635               503.0061
 Red. masses --      2.0573                 2.9150                 4.3820
 Frc consts  --      0.1594                 0.3973                 0.6532
 IR Inten    --      0.0000                 0.0000                 9.6246

                     13                     14                     15
                      A                      A                      A
 Frequencies --    570.8462               597.2635               661.6599
 Red. masses --      8.3402                 6.1193                 7.0282
 Frc consts  --      1.6013                 1.2861                 1.8129
 IR Inten    --      8.3380                 0.0000                 0.0000

                     16                     17                     18
                      A                      A                      A
 Frequencies --    691.5610               773.6720               779.3076
 Red. masses --      2.1422                13.8178                10.2560
 Frc consts  --      0.6036                 4.8731                 3.6698
 IR Inten    --      2.8055                 0.0022                39.9622

                     19                     20                     21
                      A                      A                      A
 Frequencies --    832.7239               837.4166               866.1334
 Red. masses --      6.9367                 5.8174                 1.4824
 Frc consts  --      2.8340                 2.4036                 0.6552
 IR Inten    --      0.0011                33.3499                 0.0000

                     22                     23                     24
                      A                      A                      A
 Frequencies --    973.2190               984.8471               997.8387
 Red. masses --      3.1454                 3.7254                 1.8325
 Frc consts  --      1.7553                 2.1289                 1.0750
 IR Inten    --    215.5054                 0.0220                 7.5699

                     25                     26                     27
                      A                      A                      A
 Frequencies --   1066.8109              1086.2295              1113.8668
 Red. masses --      2.1446                 1.7412                 2.6758
 Frc consts  --      1.4381                 1.2104                 1.9560
 IR Inten    --      0.0001                 0.2563               161.2494

                     28                     29                     30
                      A                      A                      A
 Frequencies --   1140.1960              1178.6095              1230.9004
 Red. masses --      2.2133                 2.7179                 1.0603
 Frc consts  --      1.6953                 2.2244                 0.9465
 IR Inten    --      0.0019                 6.5309                 0.0000

                     31                     32                     33
                      A                      A                      A
 Frequencies --   1280.8413              1292.4124              1318.4391
 Red. masses --      9.4888                 2.2390                 1.8946
 Frc consts  --      9.1717                 2.2034                 1.9404
 IR Inten    --      0.0001               509.4150                31.0843

                     34                     35                     36
                      A                      A                      A
 Frequencies --   1334.7160              1346.6983              1351.4287
 Red. masses --      2.2565                 1.9952                 1.7427
 Frc consts  --      2.3684                 2.1320                 1.8752
 IR Inten    --      0.0017                 0.0928               193.2627

                     37                     38                     39
                      A                      A                      A
 Frequencies --   1354.0034              1397.7092              1426.6816
 Red. masses --      1.2550                 1.3624                 1.9229
 Frc consts  --      1.3556                 1.5681                 2.3060
 IR Inten    --      0.0000                 7.3436               173.7618

                     40                     41                     42
                      A                      A                      A
 Frequencies --   1439.7436              1500.4032              1505.3474
 Red. masses --      1.7845                 1.0728                 1.0823
 Frc consts  --      2.1794                 1.4230                 1.4450
 IR Inten    --      0.0003                 0.0000                 3.5061

                     43                     44                     45
                      A                      A                      A
 Frequencies --   1512.5154              1522.6955              1663.9795
 Red. masses --      1.1034                 1.1103                14.4230
 Frc consts  --      1.4873                 1.5167                23.5289
 IR Inten    --     13.6504                 0.0000               508.9260

                     46                     47                     48
                      A                      A                      A
 Frequencies --   1665.6609              3018.4175              3020.7832
 Red. masses --     14.0693                 1.0734                 1.0731
 Frc consts  --     22.9982                 5.7621                 5.7694
 IR Inten    --      1.4859                18.5892                 0.0016

                     49                     50                     51
                      A                      A                      A
 Frequencies --   3029.8116              3032.7577              3174.9759
 Red. masses --      1.0715                 1.0715                 1.0900
 Frc consts  --      5.7953                 5.8063                 6.4740
 IR Inten    --      0.0003                85.4413                 0.6032

                     52                     53                     54
                      A                      A                      A
 Frequencies --   3175.2839              3175.4483              3175.5476
 Red. masses --      1.0934                 1.0944                 1.0921
 Frc consts  --      6.4951                 6.5019                 6.4887
 IR Inten    --      0.0093                 6.2143                 1.3198

 - Thermochemistry -
 -------------------
 Temperature   298.150 Kelvin.  Pressure   1.00000 Atm.
 Atom     1 has atomic number  7 and mass  14.00307

 Molecular mass:   176.05455 amu.
 Principal axes and moments of inertia in atomic units:
                           1         2         3
     Eigenvalues --   666.665273659.334494242.57337
           X            1.00000   0.00000  -0.00309
           Y           -0.00000   1.00000   0.00000
           Z            0.00309  -0.00000   1.00000
 This molecule is an asymmetric top.
 Rotational symmetry number  1.
 Warning -- assumption of classical behavior for rotation
           may cause significant error
 Rotational temperatures (Kelvin)      0.12992     0.02367     0.02042
 Rotational constants (GHZ):           2.70712     0.49319     0.42539
 Zero-point vibrational energy     401473.2 (Joules/Mol)
                                   95.95439 (Kcal/Mol)
 Warning -- explicit consideration of  14 degrees of freedom as
           vibrations may cause significant error
 Vibrational temperatures:     75.82   117.47   158.29   195.06   260.67
          (Kelvin)            360.23   375.35   411.51   455.59   521.79
                              692.00   723.71   821.32   859.33   951.98
                              995.00  1113.14  1121.25  1198.10  1204.85
                             1246.17  1400.24  1416.97  1435.67  1534.90
                             1562.84  1602.60  1640.49  1695.75  1770.99
                             1842.84  1859.49  1896.94  1920.36  1937.60
                             1944.40  1948.11  2010.99  2052.67  2071.47
                             2158.74  2165.86  2176.17  2190.82  2394.09
                             2396.51  4342.82  4346.23  4359.22  4363.46
                             4568.08  4568.52  4568.76  4568.90

 Zero-point correction=                           0.152913 (Hartree/Particle)
 Thermal correction to Energy=                    0.163242
 Thermal correction to Enthalpy=                  0.164186
 Thermal correction to Gibbs Free Energy=         0.116044
 Sum of electronic and zero-point Energies=           -676.768166
 Sum of electronic and thermal Energies=              -676.757837
 Sum of electronic and thermal Enthalpies=            -676.756893
 Sum of electronic and thermal Free Energies=         -676.805035

                     E (Thermal)             CV                S
                      KCal/Mol        Cal/Mol-Kelvin    Cal/Mol-Kelvin
 Total                  102.436             37.885            101.323
 Electronic               0.000              0.000              0.000
 Translational            0.889              2.981             41.404
 Rotational               0.889              2.981             30.716
 Vibrational            100.658             31.923             29.204
 Vibration     1          0.596              1.977              4.714
 Vibration     2          0.600              1.962              3.851
 Vibration     3          0.606              1.941              3.269
 Vibration     4          0.613              1.918              2.865
 Vibration     5          0.630              1.865              2.316
 Vibration     6          0.663              1.762              1.728
 Vibration     7          0.669              1.744              1.656
 Vibration     8          0.684              1.700              1.497
 Vibration     9          0.704              1.642              1.327
 Vibration    10          0.737              1.549              1.111
 Vibration    11          0.837              1.292              0.707
 Vibration    12          0.858              1.243              0.651
 Vibration    13          0.927              1.094              0.503
 Vibration    14          0.955              1.038              0.454

 Normal termination of Gaussian 09 at Fri Aug 20 15:57:34 2021.
