 Gaussian 09, Revision E.01,
 Gaussian 09:  ES64L-G09RevE.01 30-Nov-2015

 -------------------------
 #P OPT Freq B3LYP/6-31G**
 -------------------------

 ------
 TITKUC
 ------
 Symbolic Z-matrix:
 Charge =  0 Multiplicity = 1

 SCF Done:  E(RB3LYP) =  -610.994333188     A.U. after   15 cycles
 SCF Done:  E(RB3LYP) =  -611.126309805     A.U. after   14 cycles
 SCF Done:  E(RB3LYP) =  -611.237146101     A.U. after   14 cycles
 SCF Done:  E(RB3LYP) =  -611.239071724     A.U. after   15 cycles
 SCF Done:  E(RB3LYP) =  -611.236216916     A.U. after   16 cycles
 SCF Done:  E(RB3LYP) =  -611.242065995     A.U. after   11 cycles
 SCF Done:  E(RB3LYP) =  -611.243225524     A.U. after   12 cycles
 SCF Done:  E(RB3LYP) =  -611.243783240     A.U. after   12 cycles
 SCF Done:  E(RB3LYP) =  -611.244088578     A.U. after   12 cycles
 SCF Done:  E(RB3LYP) =  -611.244163188     A.U. after   12 cycles
 SCF Done:  E(RB3LYP) =  -611.244182406     A.U. after   11 cycles
 SCF Done:  E(RB3LYP) =  -611.244185430     A.U. after    9 cycles
 SCF Done:  E(RB3LYP) =  -611.244186222     A.U. after    8 cycles
 SCF Done:  E(RB3LYP) =  -611.244186777     A.U. after    9 cycles
 SCF Done:  E(RB3LYP) =  -611.244186919     A.U. after    8 cycles
 SCF Done:  E(RB3LYP) =  -611.244186958     A.U. after    7 cycles
 Optimization completed.
    -- Stationary point found.
 Normal termination of Gaussian 09 at Fri Aug 20 15:51:23 2021.

 ----------------------------------------------------------------------
 #P Geom=AllCheck Guess=TCheck SCRF=Check GenChk RB3LYP/6-31G(d,p) Freq
 ----------------------------------------------------------------------

 Structure from the checkpoint file:  "/public/home/users/caep010/.cache/gau_scr/Gau-79751.chk"
 ------
 TITKUC
 ------
 Charge =  0 Multiplicity = 1

                         Standard orientation:
 ---------------------------------------------------------------------
 Center     Atomic      Atomic             Coordinates (Angstroms)
 Number     Number       Type             X           Y           Z
 ---------------------------------------------------------------------
      1          8           0       -4.843882    0.221017   -0.037950
      2          7           0       -3.781632   -0.418507   -0.006530
      3          6           0       -2.555015    0.356442   -0.012593
      4          6           0       -1.387422   -0.338580    0.020965
      5          6           0       -2.748898    1.839619   -0.056209
      6          6           0       -0.062785    0.188854    0.022234
      7          1           0        0.089745    1.262524   -0.007618
      8          1           0       -3.329756    2.189453    0.802819
      9          6           0        1.017765   -0.652808    0.057682
     10          7           0        2.320755   -0.298277    0.057302
     11          6           0        2.785389    1.090549    0.019454
     12          1           0        2.311126    1.680416    0.813150
     13          6           0        4.308399    0.974947    0.196400
     14          6           0        4.632656   -0.423255   -0.358788
     15          1           0        5.580415   -0.823580    0.009422
     16          1           0        0.846637   -1.727288    0.084629
     17          1           0        2.514986    1.551863   -0.941277
     18          1           0        4.566246    1.026532    1.259803
     19          1           0        4.678802   -0.395667   -1.452892
     20          1           0       -3.300910    2.141932   -0.951586
     21          1           0       -1.784398    2.351474   -0.054309
     22          1           0        4.846739    1.776324   -0.315223
     23          8           0       -3.732750   -1.657296    0.028633
     24          6           0        3.428733   -1.260123    0.091259
     25          1           0        3.224393   -2.109155   -0.568972
     26          1           0        3.577220   -1.650986    1.108811
     27          1           0       -1.494985   -1.419998    0.049952
 ---------------------------------------------------------------------

 SCF Done:  E(RB3LYP) =  -611.244186958     A.U. after    1 cycles

 The electronic state is 1-A.
 Alpha  occ. eigenvalues --  -19.13894 -19.13647 -14.52951 -14.38559 -10.24717
 Alpha  occ. eigenvalues --  -10.24710 -10.24433 -10.21724 -10.21556 -10.21535
 Alpha  occ. eigenvalues --  -10.20267 -10.18905 -10.18128  -1.17778  -1.00384
 Alpha  occ. eigenvalues --   -0.98297  -0.84070  -0.82316  -0.76877  -0.76134
 Alpha  occ. eigenvalues --   -0.69439  -0.68559  -0.63120  -0.61880  -0.57484
 Alpha  occ. eigenvalues --   -0.54515  -0.52667  -0.51933  -0.49224  -0.49045
 Alpha  occ. eigenvalues --   -0.47706  -0.46556  -0.45430  -0.43608  -0.43378
 Alpha  occ. eigenvalues --   -0.41462  -0.40483  -0.40314  -0.38379  -0.37668
 Alpha  occ. eigenvalues --   -0.37464  -0.36160  -0.35910  -0.34361  -0.28540
 Alpha  occ. eigenvalues --   -0.27073  -0.26801  -0.24894  -0.19507
 Alpha virt. eigenvalues --   -0.06022   0.01739   0.06084   0.08024   0.08557
 Alpha virt. eigenvalues --    0.09925   0.10554   0.11675   0.11857   0.13061
 Alpha virt. eigenvalues --    0.13831   0.14060   0.15003   0.16997   0.18456

 Mulliken charges:
               1
     1  O   -0.423430
     2  N    0.401376
     3  C    0.197729
     4  C   -0.084386
     5  C   -0.353343
     6  C   -0.136800
     7  H    0.078489
     8  H    0.136226
     9  C    0.150571
    10  N   -0.456745
    11  C   -0.013129
    12  H    0.120860
    13  C   -0.229001
    14  C   -0.219484
    15  H    0.114835
    16  H    0.108891
    17  H    0.120299
    18  H    0.119653
    19  H    0.120617
    20  H    0.136067
    21  H    0.096059
    22  H    0.116472
    23  O   -0.442610
    24  C   -0.021658
    25  H    0.120845
    26  H    0.118200
    27  H    0.123396
 Sum of Mulliken charges =  -0.00000

 Dipole moment (field-independent basis, Debye):
    X=             10.1067    Y=              1.5864    Z=              0.0002  Tot=             10.2304
 Quadrupole moment (field-independent basis, Debye-Ang):
   XX=            -93.5745   YY=            -75.0271   ZZ=            -77.2888
   XY=             -7.9682   XZ=              0.0038   YZ=             -0.0290

  Exact polarizability: 263.114 -12.629 114.019   2.163  -1.300  69.191
 Approx polarizability: 394.857 -36.240 184.693   5.333  -3.237 104.360

                      1                      2                      3
                      A                      A                      A
 Frequencies --     39.5670                52.4171                71.1605
 Red. masses --      3.9650                 3.8532                 4.7739
 Frc consts  --      0.0037                 0.0062                 0.0142
 IR Inten    --      0.3439                 0.3665                 0.6800

                      4                      5                      6
                      A                      A                      A
 Frequencies --     78.6750               117.8283               144.3105
 Red. masses --      3.4677                 3.2214                 1.1351
 Frc consts  --      0.0126                 0.0264                 0.0139
 IR Inten    --      0.9038                 0.0062                 0.1711

                      7                      8                      9
                      A                      A                      A
 Frequencies --    168.8764               180.5978               244.5906
 Red. masses --      2.8942                 5.3086                 2.1010
 Frc consts  --      0.0486                 0.1020                 0.0741
 IR Inten    --      1.2509                 0.5514                 1.2960

                     10                     11                     12
                      A                      A                      A
 Frequencies --    255.4147               279.9415               329.7633
 Red. masses --      2.9087                 2.1069                 3.3215
 Frc consts  --      0.1118                 0.0973                 0.2128
 IR Inten    --      0.8960                 3.4352                 1.3275

                     13                     14                     15
                      A                      A                      A
 Frequencies --    353.5046               396.5347               462.7938
 Red. masses --      4.6647                 4.1219                 2.9731
 Frc consts  --      0.3434                 0.3819                 0.3752
 IR Inten    --      2.4332                 1.8167                 0.0454

                     16                     17                     18
                      A                      A                      A
 Frequencies --    531.0019               561.5135               583.1478
 Red. masses --      4.8328                 6.0583                 1.8258
 Frc consts  --      0.8029                 1.1254                 0.3658
 IR Inten    --      1.4488                 3.2035                 1.6312

                     19                     20                     21
                      A                      A                      A
 Frequencies --    675.5334               720.8999               744.9395
 Red. masses --      3.6888                 3.9487                 8.2380
 Frc consts  --      0.9918                 1.2091                 2.6935
 IR Inten    --      3.8338                 4.7078                16.5203

                     22                     23                     24
                      A                      A                      A
 Frequencies --    822.4443               834.9956               871.5546
 Red. masses --      1.9027                 1.8283                 2.7757
 Frc consts  --      0.7583                 0.7511                 1.2423
 IR Inten    --      4.3823                13.9809                32.0968

                     25                     26                     27
                      A                      A                      A
 Frequencies --    882.9562               893.7349               922.8371
 Red. masses --      2.0927                 3.3893                 2.3578
 Frc consts  --      0.9612                 1.5951                 1.1831
 IR Inten    --      9.1397                 1.8110                 3.1153

                     28                     29                     30
                      A                      A                      A
 Frequencies --    938.0132               940.5991               984.8860
 Red. masses --      1.4861                 1.2939                 1.5668
 Frc consts  --      0.7704                 0.6745                 0.8954
 IR Inten    --      1.1919                 2.7939                 2.3805

                     31                     32                     33
                      A                      A                      A
 Frequencies --   1003.5963              1006.9670              1046.0472
 Red. masses --      2.0206                 1.2645                 1.8797
 Frc consts  --      1.1991                 0.7554                 1.2118
 IR Inten    --    141.1747                23.3143                 1.5195

                     34                     35                     36
                      A                      A                      A
 Frequencies --   1067.9088              1132.0173              1146.6633
 Red. masses --      1.3798                 2.2275                 1.6210
 Frc consts  --      0.9271                 1.6818                 1.2558
 IR Inten    --      0.6657                19.5296                41.8771

                     37                     38                     39
                      A                      A                      A
 Frequencies --   1162.9169              1199.1875              1202.7858
 Red. masses --      2.4925                 1.3582                 1.5258
 Frc consts  --      1.9860                 1.1508                 1.3006
 IR Inten    --    100.1209                11.7759                 3.7365

                     40                     41                     42
                      A                      A                      A
 Frequencies --   1237.6667              1253.9234              1271.3152
 Red. masses --      1.9051                 1.2510                 1.2231
 Frc consts  --      1.7194                 1.1589                 1.1647
 IR Inten    --    298.2956                20.4211                 7.5800

                     43                     44                     45
                      A                      A                      A
 Frequencies --   1320.4075              1326.9908              1332.4494
 Red. masses --      1.4930                 1.7160                 1.6879
 Frc consts  --      1.5337                 1.7804                 1.7656
 IR Inten    --     91.0972               101.1244               132.1552

                     46                     47                     48
                      A                      A                      A
 Frequencies --   1353.2848              1358.6877              1361.5662
 Red. masses --      3.2582                 1.3656                 1.4844
 Frc consts  --      3.5157                 1.4853                 1.6214
 IR Inten    --    911.3888                86.1987               116.6837

                     49                     50                     51
                      A                      A                      A
 Frequencies --   1384.8993              1414.7657              1437.0904
 Red. masses --      1.4430                 1.6120                 1.5911
 Frc consts  --      1.6306                 1.9011                 1.9361
 IR Inten    --     10.7600                96.4322                39.5176

                     52                     53                     54
                      A                      A                      A
 Frequencies --   1455.3404              1483.8037              1499.0062
 Red. masses --      3.0819                 1.0428                 1.1041
 Frc consts  --      3.8458                 1.3527                 1.4617
 IR Inten    --    100.8299                 4.5544                30.8812

                     55                     56                     57
                      A                      A                      A
 Frequencies --   1505.2886              1512.9345              1530.8306
 Red. masses --      1.0916                 1.0951                 1.0826
 Frc consts  --      1.4573                 1.4768                 1.4948
 IR Inten    --      5.5585                13.8207                 2.7197

                     58                     59                     60
                      A                      A                      A
 Frequencies --   1542.1380              1587.6552              1681.3690
 Red. masses --      1.1034                12.4127                 5.6109
 Frc consts  --      1.5461                18.4344                 9.3456
 IR Inten    --     43.1426               151.2609               367.6722

                     61                     62                     63
                      A                      A                      A
 Frequencies --   1691.6169              3005.9597              3013.5794
 Red. masses --      5.5918                 1.0693                 1.0656
 Frc consts  --      9.4278                 5.6924                 5.7015
 IR Inten    --    733.7817                92.4966                28.7721

                     64                     65                     66
                      A                      A                      A
 Frequencies --   3055.4602              3056.0139              3064.7121
 Red. masses --      1.0372                 1.0889                 1.0707
 Frc consts  --      5.7052                 5.9917                 5.9252
 IR Inten    --     18.4413                 8.4769                13.2392

                     67                     68                     69
                      A                      A                      A
 Frequencies --   3071.3209              3086.1358              3111.7301
 Red. masses --      1.0714                 1.0930                 1.1012
 Frc consts  --      5.9547                 6.1333                 6.2825
 IR Inten    --     41.4902                38.8604                11.4163

                     70                     71                     72
                      A                      A                      A
 Frequencies --   3122.5078              3130.3104              3142.4240
 Red. masses --      1.0995                 1.1053                 1.1014
 Frc consts  --      6.3161                 6.3814                 6.4083
 IR Inten    --     31.2984                33.7722                11.8681

                     73                     74                     75
                      A                      A                      A
 Frequencies --   3172.3815              3186.7434              3204.0919
 Red. masses --      1.0902                 1.0887                 1.0867
 Frc consts  --      6.4642                 6.5142                 6.5731
 IR Inten    --      4.8855                 1.8280                14.6193

 - Thermochemistry -
 -------------------
 Temperature   298.150 Kelvin.  Pressure   1.00000 Atm.
 Atom     1 has atomic number  8 and mass  15.99491

 Molecular mass:   182.10553 amu.
 Principal axes and moments of inertia in atomic units:
                           1         2         3
     Eigenvalues --   693.169077009.112187625.05831
           X            0.99996  -0.00848  -0.00017
           Y            0.00848   0.99996  -0.00036
           Z            0.00017   0.00036   1.00000
 This molecule is an asymmetric top.
 Rotational symmetry number  1.
 Warning -- assumption of classical behavior for rotation
           may cause significant error
 Rotational temperatures (Kelvin)      0.12495     0.01236     0.01136
 Rotational constants (GHZ):           2.60361     0.25748     0.23669
 Zero-point vibrational energy     598249.6 (Joules/Mol)
                                  142.98509 (Kcal/Mol)
 Warning -- explicit consideration of  18 degrees of freedom as
           vibrations may cause significant error
 Vibrational temperatures:     56.93    75.42   102.38   113.20   169.53
          (Kelvin)            207.63   242.98   259.84   351.91   367.48
                              402.77   474.46   508.61   570.52   665.86
                              763.99   807.89   839.02   971.94  1037.21
                             1071.80  1183.31  1201.37  1253.97  1270.38
                             1285.88  1327.76  1349.59  1353.31  1417.03
                             1443.95  1448.80  1505.03  1536.48  1628.72
                             1649.79  1673.18  1725.36  1730.54  1780.72
                             1804.11  1829.14  1899.77  1909.24  1917.10
                             1947.07  1954.85  1958.99  1992.56  2035.53
                             2067.65  2093.91  2134.86  2156.73  2165.77
                             2176.77  2202.52  2218.79  2284.28  2419.11
                             2433.86  4324.90  4335.86  4396.12  4396.92
                             4409.43  4418.94  4440.26  4477.08  4492.59
                             4503.81  4521.24  4564.34  4585.01  4609.97

 Zero-point correction=                           0.227861 (Hartree/Particle)
 Thermal correction to Energy=                    0.240992
 Thermal correction to Enthalpy=                  0.241936
 Thermal correction to Gibbs Free Energy=         0.186805
 Sum of electronic and zero-point Energies=           -611.016326
 Sum of electronic and thermal Energies=              -611.003195
 Sum of electronic and thermal Enthalpies=            -611.002251
 Sum of electronic and thermal Free Energies=         -611.057382

                     E (Thermal)             CV                S
                      KCal/Mol        Cal/Mol-Kelvin    Cal/Mol-Kelvin
 Total                  151.225             47.753            116.033
 Electronic               0.000              0.000              0.000
 Translational            0.889              2.981             41.505
 Rotational               0.889              2.981             31.983
 Vibrational            149.447             41.791             42.546
 Vibration     1          0.594              1.981              5.281
 Vibration     2          0.596              1.977              4.724
 Vibration     3          0.598              1.968              4.121
 Vibration     4          0.600              1.964              3.924
 Vibration     5          0.608              1.935              3.136
 Vibration     6          0.616              1.909              2.746
 Vibration     7          0.625              1.881              2.448
 Vibration     8          0.630              1.866              2.322
 Vibration     9          0.660              1.772              1.769
 Vibration    10          0.666              1.754              1.693
 Vibration    11          0.680              1.711              1.534
 Vibration    12          0.713              1.616              1.261
 Vibration    13          0.730              1.568              1.151
 Vibration    14          0.763              1.478              0.975
 Vibration    15          0.820              1.333              0.758
 Vibration    16          0.886              1.181              0.585
 Vibration    17          0.917              1.115              0.521
 Vibration    18          0.940              1.068              0.480

 Normal termination of Gaussian 09 at Fri Aug 20 15:52:09 2021.
