 Gaussian 09, Revision E.01,
 Gaussian 09:  ES64L-G09RevE.01 30-Nov-2015

 -------------------------
 #P OPT Freq B3LYP/6-31G**
 -------------------------

 ------
 TENZOD
 ------
 Symbolic Z-matrix:
 Charge =  0 Multiplicity = 1

 SCF Done:  E(RB3LYP) =  -706.450076802     A.U. after   16 cycles
 SCF Done:  E(RB3LYP) =  -706.511986597     A.U. after   14 cycles
 SCF Done:  E(RB3LYP) =  -706.515446418     A.U. after   16 cycles
 SCF Done:  E(RB3LYP) =  -706.506289601     A.U. after   17 cycles
 SCF Done:  E(RB3LYP) =  -706.517417951     A.U. after   13 cycles
 SCF Done:  E(RB3LYP) =  -706.518514539     A.U. after   15 cycles
 SCF Done:  E(RB3LYP) =  -706.518136541     A.U. after   14 cycles
 SCF Done:  E(RB3LYP) =  -706.518652278     A.U. after   10 cycles
 SCF Done:  E(RB3LYP) =  -706.518353185     A.U. after   14 cycles
 SCF Done:  E(RB3LYP) =  -706.518778026     A.U. after   10 cycles
 SCF Done:  E(RB3LYP) =  -706.519203634     A.U. after    8 cycles
 SCF Done:  E(RB3LYP) =  -706.519286635     A.U. after   14 cycles
 SCF Done:  E(RB3LYP) =  -706.519330811     A.U. after   14 cycles
 SCF Done:  E(RB3LYP) =  -706.519342205     A.U. after   13 cycles
 SCF Done:  E(RB3LYP) =  -706.519347129     A.U. after   13 cycles
 SCF Done:  E(RB3LYP) =  -706.519349155     A.U. after   13 cycles
 SCF Done:  E(RB3LYP) =  -706.519351431     A.U. after   13 cycles
 SCF Done:  E(RB3LYP) =  -706.519352633     A.U. after   13 cycles
 SCF Done:  E(RB3LYP) =  -706.519352837     A.U. after   11 cycles
 Optimization completed.
    -- Stationary point found.
 Normal termination of Gaussian 09 at Fri Aug 20 15:59:08 2021.

 ----------------------------------------------------------------------
 #P Geom=AllCheck Guess=TCheck SCRF=Check GenChk RB3LYP/6-31G(d,p) Freq
 ----------------------------------------------------------------------

 Structure from the checkpoint file:  "/public/home/users/caep010/.cache/gau_scr/Gau-107539.chk"
 ------
 TENZOD
 ------
 Charge =  0 Multiplicity = 1

                         Standard orientation:
 ---------------------------------------------------------------------
 Center     Atomic      Atomic             Coordinates (Angstroms)
 Number     Number       Type             X           Y           Z
 ---------------------------------------------------------------------
      1          6           0       -0.044062    0.695589    0.013631
      2          7           0        1.009380    1.690651    0.111776
      3          8           0        0.771714    2.798614   -0.353512
      4          6           0        0.012109   -0.704108   -0.019797
      5          7           0        1.145829   -1.610152   -0.106521
      6          7           0       -1.232691   -1.184884   -0.055721
      7          7           0       -1.964837   -0.087969   -0.007177
      8          7           0       -1.326488    1.069014    0.039451
      9          8           0        2.123325   -1.191213   -0.716952
     10          8           0        2.038198    1.330442    0.674488
     11          8           0        1.017272   -2.709335    0.417921
     12          7           0       -3.350368   -0.157971   -0.090632
     13          1           0       -3.679966    0.803382   -0.129586
     14          1           0       -3.698181   -0.611159    0.752782
 ---------------------------------------------------------------------

 SCF Done:  E(RB3LYP) =  -706.519352837     A.U. after    1 cycles

 The electronic state is 1-A.
 Alpha  occ. eigenvalues --  -19.20944 -19.20911 -19.20911 -19.20880 -14.60580
 Alpha  occ. eigenvalues --  -14.60499 -14.55415 -14.44165 -14.43940 -14.43910
 Alpha  occ. eigenvalues --  -10.32354 -10.32295  -1.25816  -1.25450  -1.20393
 Alpha  occ. eigenvalues --   -1.08515  -1.08274  -1.01528  -0.97835  -0.87434
 Alpha  occ. eigenvalues --   -0.80576  -0.74607  -0.65996  -0.65716  -0.60634
 Alpha  occ. eigenvalues --   -0.58827  -0.57609  -0.56986  -0.56040  -0.55201
 Alpha  occ. eigenvalues --   -0.52934  -0.52710  -0.51859  -0.41890  -0.39318
 Alpha  occ. eigenvalues --   -0.36756  -0.36391  -0.34079  -0.33341  -0.33140
 Alpha  occ. eigenvalues --   -0.32882  -0.31914  -0.31847  -0.29722
 Alpha virt. eigenvalues --   -0.11897  -0.09505  -0.05207   0.02320   0.03335
 Alpha virt. eigenvalues --    0.05587   0.09108   0.13727   0.14452   0.19147
 Alpha virt. eigenvalues --    0.20437   0.23310   0.23994   0.24976   0.33182

 Mulliken charges:
               1
     1  C    0.491251
     2  N    0.345962
     3  O   -0.353364
     4  C    0.493795
     5  N    0.347129
     6  N   -0.267691
     7  N    0.073664
     8  N   -0.283667
     9  O   -0.362124
    10  O   -0.364919
    11  O   -0.350967
    12  N   -0.378522
    13  H    0.304229
    14  H    0.305223
 Sum of Mulliken charges =  -0.00000

 Dipole moment (field-independent basis, Debye):
    X=             -6.2815    Y=              0.5076    Z=              1.2542  Tot=              6.4256
 Quadrupole moment (field-independent basis, Debye-Ang):
   XX=            -57.3283   YY=            -79.2761   ZZ=            -63.8256
   XY=             -2.3094   XZ=             -5.1123   YZ=              0.2725

  Exact polarizability: 102.067   0.386  85.983  -0.763  -7.914  38.774
 Approx polarizability: 174.445   0.920 165.559   0.412 -29.861  72.892

                      1                      2                      3
                      A                      A                      A
 Frequencies --     29.4416                68.4462                88.8222
 Red. masses --     14.3988                 2.5405                 1.6800
 Frc consts  --      0.0074                 0.0070                 0.0078
 IR Inten    --      0.8240                20.7542                35.2711

                      4                      5                      6
                      A                      A                      A
 Frequencies --    148.2910               163.2966               182.2991
 Red. masses --      6.1243                15.1538                13.7835
 Frc consts  --      0.0793                 0.2381                 0.2699
 IR Inten    --      0.9446                 0.9029                 0.1576

                      7                      8                      9
                      A                      A                      A
 Frequencies --    213.7919               291.5411               373.4325
 Red. masses --      7.7149                 6.4585                11.6861
 Frc consts  --      0.2078                 0.3234                 0.9602
 IR Inten    --      0.8871                12.1935                 5.0919

                     10                     11                     12
                      A                      A                      A
 Frequencies --    394.5805               461.5897               464.6700
 Red. masses --     13.7015                 8.0365                 8.2272
 Frc consts  --      1.2569                 1.0089                 1.0466
 IR Inten    --      1.0404                 5.2450                 5.5774

                     13                     14                     15
                      A                      A                      A
 Frequencies --    630.3806               654.3027               689.3322
 Red. masses --     10.7774                12.7280                10.6921
 Frc consts  --      2.5233                 3.2105                 2.9934
 IR Inten    --      4.5238                 0.1127                 6.2948

                     16                     17                     18
                      A                      A                      A
 Frequencies --    750.6208               770.4603               793.2746
 Red. masses --      8.6496                12.5230                13.0045
 Frc consts  --      2.8714                 4.3799                 4.8216
 IR Inten    --     49.5420                 7.2353                 1.8764

                     19                     20                     21
                      A                      A                      A
 Frequencies --    821.3079               878.9209               949.4920
 Red. masses --     14.9095                 9.5327                 1.4992
 Frc consts  --      5.9255                 4.3388                 0.7963
 IR Inten    --     76.8255                16.6657               237.9241

                     22                     23                     24
                      A                      A                      A
 Frequencies --   1048.4275              1169.8811              1207.1180
 Red. masses --      8.8312                11.1253                 2.5030
 Frc consts  --      5.7193                 8.9711                 2.1489
 IR Inten    --      2.5489                16.0448                 0.7447

                     25                     26                     27
                      A                      A                      A
 Frequencies --   1374.1714              1401.1121              1412.2209
 Red. masses --     13.1697                 7.5788                13.5680
 Frc consts  --     14.6524                 8.7659                15.9431
 IR Inten    --     45.2285               177.6872               109.8758

                     28                     29                     30
                      A                      A                      A
 Frequencies --   1432.9142              1446.6700              1507.5866
 Red. masses --      3.3040                 7.9637                 4.4883
 Frc consts  --      3.9970                 9.8198                 6.0103
 IR Inten    --      4.4517                 7.6886                47.8067

                     31                     32                     33
                      A                      A                      A
 Frequencies --   1520.1895              1658.9507              1660.8557
 Red. masses --     11.7031                 2.5378                 1.7186
 Frc consts  --     15.9348                 4.1150                 2.7932
 IR Inten    --     67.9373               235.0313               150.1015

                     34                     35                     36
                      A                      A                      A
 Frequencies --   1677.0368              3488.3669              3604.4047
 Red. masses --     13.5942                 1.0483                 1.0966
 Frc consts  --     22.5262                 7.5161                 8.3943
 IR Inten    --     89.4091                25.5158                37.1382

 - Thermochemistry -
 -------------------
 Temperature   298.150 Kelvin.  Pressure   1.00000 Atm.
 Atom     1 has atomic number  6 and mass  12.00000

 Molecular mass:   174.01375 amu.
 Principal axes and moments of inertia in atomic units:
                           1         2         3
     Eigenvalues --  1572.359961796.281053215.89900
           X            0.99992  -0.01126  -0.00503
           Y            0.01125   0.99994  -0.00141
           Z            0.00505   0.00135   0.99999
 This molecule is an asymmetric top.
 Rotational symmetry number  1.
 Warning -- assumption of classical behavior for rotation
           may cause significant error
 Rotational temperatures (Kelvin)      0.05509     0.04822     0.02693
 Rotational constants (GHZ):           1.14779     1.00471     0.56119
 Zero-point vibrational energy     211907.7 (Joules/Mol)
                                   50.64715 (Kcal/Mol)
 Warning -- explicit consideration of  12 degrees of freedom as
           vibrations may cause significant error
 Vibrational temperatures:     42.36    98.48   127.80   213.36   234.95
          (Kelvin)            262.29   307.60   419.46   537.29   567.71
                              664.12   668.56   906.98   941.39   991.79
                             1079.97  1108.52  1141.34  1181.68  1264.57
                             1366.11  1508.45  1683.20  1736.77  1977.12
                             2015.89  2031.87  2061.64  2081.43  2169.08
                             2187.21  2386.86  2389.60  2412.88  5018.98
                             5185.93

 Zero-point correction=                           0.080711 (Hartree/Particle)
 Thermal correction to Energy=                    0.090907
 Thermal correction to Enthalpy=                  0.091851
 Thermal correction to Gibbs Free Energy=         0.043016
 Sum of electronic and zero-point Energies=           -706.438641
 Sum of electronic and thermal Energies=              -706.428446
 Sum of electronic and thermal Enthalpies=            -706.427502
 Sum of electronic and thermal Free Energies=         -706.476337

                     E (Thermal)             CV                S
                      KCal/Mol        Cal/Mol-Kelvin    Cal/Mol-Kelvin
 Total                   57.045             34.653            102.781
 Electronic               0.000              0.000              0.000
 Translational            0.889              2.981             41.369
 Rotational               0.889              2.981             30.586
 Vibrational             55.267             28.692             30.826
 Vibration     1          0.593              1.984              5.867
 Vibration     2          0.598              1.969              4.198
 Vibration     3          0.602              1.957              3.686
 Vibration     4          0.618              1.905              2.694
 Vibration     5          0.623              1.887              2.511
 Vibration     6          0.630              1.864              2.305
 Vibration     7          0.644              1.820              2.011
 Vibration     8          0.687              1.689              1.465
 Vibration     9          0.745              1.527              1.066
 Vibration    10          0.762              1.482              0.983
 Vibration    11          0.819              1.335              0.761
 Vibration    12          0.822              1.328              0.753

 Optimization completed.
    -- Stationary point found.
 Normal termination of Gaussian 09 at Fri Aug 20 15:59:26 2021.
