 Gaussian 09, Revision E.01,
 Gaussian 09:  ES64L-G09RevE.01 30-Nov-2015

 -------------------------
 #P OPT Freq B3LYP/6-31G**
 -------------------------

 ------
 YODHUV
 ------
 Symbolic Z-matrix:
 Charge =  0 Multiplicity = 1

 SCF Done:  E(RB3LYP) =  -621.080191631     A.U. after   16 cycles
 SCF Done:  E(RB3LYP) =  -621.184627881     A.U. after   13 cycles
 SCF Done:  E(RB3LYP) =  -621.246924414     A.U. after   14 cycles
 SCF Done:  E(RB3LYP) =  -621.244939905     A.U. after   14 cycles
 SCF Done:  E(RB3LYP) =  -621.248356125     A.U. after   11 cycles
 SCF Done:  E(RB3LYP) =  -621.249806101     A.U. after   14 cycles
 SCF Done:  E(RB3LYP) =  -621.250152887     A.U. after   13 cycles
 SCF Done:  E(RB3LYP) =  -621.250255219     A.U. after   12 cycles
 SCF Done:  E(RB3LYP) =  -621.250292469     A.U. after   11 cycles
 SCF Done:  E(RB3LYP) =  -621.250333398     A.U. after   11 cycles
 SCF Done:  E(RB3LYP) =  -621.250377256     A.U. after   11 cycles
 SCF Done:  E(RB3LYP) =  -621.250386747     A.U. after   10 cycles
 SCF Done:  E(RB3LYP) =  -621.250403639     A.U. after   11 cycles
 SCF Done:  E(RB3LYP) =  -621.250418265     A.U. after   11 cycles
 SCF Done:  E(RB3LYP) =  -621.250429867     A.U. after   11 cycles
 SCF Done:  E(RB3LYP) =  -621.250432943     A.U. after   10 cycles
 SCF Done:  E(RB3LYP) =  -621.250433921     A.U. after    9 cycles
 SCF Done:  E(RB3LYP) =  -621.250434302     A.U. after    8 cycles
 SCF Done:  E(RB3LYP) =  -621.250434438     A.U. after    8 cycles
 Optimization completed.
    -- Stationary point found.
 Normal termination of Gaussian 09 at Fri Aug 20 15:52:11 2021.

 ----------------------------------------------------------------------
 #P Geom=AllCheck Guess=TCheck SCRF=Check GenChk RB3LYP/6-31G(d,p) Freq
 ----------------------------------------------------------------------

 Structure from the checkpoint file:  "/public/home/users/caep010/.cache/gau_scr/Gau-128991.chk"
 ------
 YODHUV
 ------
 Charge =  0 Multiplicity = 1

                         Standard orientation:
 ---------------------------------------------------------------------
 Center     Atomic      Atomic             Coordinates (Angstroms)
 Number     Number       Type             X           Y           Z
 ---------------------------------------------------------------------
      1          8           0        2.423173   -1.458882   -0.053643
      2          7           0        2.556228   -0.217529    0.123407
      3          7           0        1.503469    0.654446    0.087914
      4          6           0        0.267296    0.195294   -0.159502
      5          7           0       -0.725636    1.133544   -0.132258
      6          7           0       -0.084591   -1.084810   -0.395293
      7          6           0       -1.455369   -1.493571   -0.714513
      8          1           0       -1.605725   -1.494574   -1.802190
      9          1           0       -1.602848   -2.513255   -0.350001
     10          1           0        0.713262   -1.722176   -0.365906
     11          7           0       -2.426288   -0.605403   -0.112170
     12          8           0        3.649026    0.293152    0.341548
     13          6           0       -0.440774    2.559272   -0.025046
     14          1           0       -1.149882    3.017824    0.672168
     15          1           0       -0.537311    3.057272   -0.998983
     16          6           0       -2.570731   -0.785755    1.337310
     17          1           0       -3.356153   -0.116959    1.699812
     18          1           0       -2.887423   -1.813320    1.535071
     19          1           0       -1.652632   -0.587437    1.908475
     20          1           0        0.573847    2.694500    0.340881
     21          6           0       -2.101930    0.748368   -0.498305
     22          1           0       -2.245796    0.853576   -1.583591
     23          1           0       -2.780166    1.447005    0.000166
 ---------------------------------------------------------------------

 SCF Done:  E(RB3LYP) =  -621.250434438     A.U. after    1 cycles

 The electronic state is 1-A.
 Alpha  occ. eigenvalues --  -19.14926 -19.14479 -14.56609 -14.38612 -14.37218
 Alpha  occ. eigenvalues --  -14.36493 -14.34361 -10.32297 -10.27655 -10.27624
 Alpha  occ. eigenvalues --  -10.22918 -10.22835  -1.20147  -1.03746  -1.01419
 Alpha  occ. eigenvalues --   -0.95749  -0.93296  -0.89734  -0.75060  -0.74883
 Alpha  occ. eigenvalues --   -0.72245  -0.67810  -0.63034  -0.57573  -0.55096
 Alpha  occ. eigenvalues --   -0.53674  -0.52577  -0.51277  -0.49842  -0.49295
 Alpha  occ. eigenvalues --   -0.47839  -0.47485  -0.46651  -0.43764  -0.41648
 Alpha  occ. eigenvalues --   -0.41262  -0.40428  -0.39486  -0.38108  -0.32499
 Alpha  occ. eigenvalues --   -0.28457  -0.28303  -0.26289  -0.25950  -0.24969
 Alpha  occ. eigenvalues --   -0.24646
 Alpha virt. eigenvalues --   -0.04300   0.04529   0.06106   0.09630   0.10226
 Alpha virt. eigenvalues --    0.11185   0.11810   0.12721   0.13257   0.14207
 Alpha virt. eigenvalues --    0.15264   0.16069   0.16664   0.17906   0.18251

 Mulliken charges:
               1
     1  O   -0.482648
     2  N    0.592508
     3  N   -0.459780
     4  C    0.823205
     5  N   -0.504663
     6  N   -0.577671
     7  C    0.092075
     8  H    0.131051
     9  H    0.127603
    10  H    0.315427
    11  N   -0.411063
    12  O   -0.399668
    13  C   -0.179874
    14  H    0.113743
    15  H    0.119547
    16  C   -0.176868
    17  H    0.118366
    18  H    0.120973
    19  H    0.119406
    20  H    0.183465
    21  C    0.090420
    22  H    0.125144
    23  H    0.119304
 Sum of Mulliken charges =  -0.00000

 Dipole moment (field-independent basis, Debye):
    X=             -7.4287    Y=              0.4225    Z=             -0.6651  Tot=              7.4704
 Quadrupole moment (field-independent basis, Debye-Ang):
   XX=            -88.2448   YY=            -64.6972   ZZ=            -67.6690
   XY=             -0.4332   XZ=             -2.8066   YZ=             -0.3289

  Exact polarizability: 126.394  -1.585 100.762   4.788   2.371  65.281
 Approx polarizability: 186.123   2.422 161.217  12.919   8.899  95.600

                      1                      2                      3
                      A                      A                      A
 Frequencies --     48.6699                56.9343                83.2509
 Red. masses --      2.6175                 7.0070                 2.2135
 Frc consts  --      0.0037                 0.0134                 0.0090
 IR Inten    --      0.2090                 0.2042                 0.5528

                      4                      5                      6
                      A                      A                      A
 Frequencies --     99.8607               161.4002               190.0329
 Red. masses --      1.5693                 6.0290                 3.6957
 Frc consts  --      0.0092                 0.0925                 0.0786
 IR Inten    --      1.0638                 1.0732                 0.4415

                      7                      8                      9
                      A                      A                      A
 Frequencies --    192.1979               210.1675               240.6936
 Red. masses --      1.0465                 5.3957                 4.0215
 Frc consts  --      0.0228                 0.1404                 0.1373
 IR Inten    --      0.0780                 5.6299                14.7503

                     10                     11                     12
                      A                      A                      A
 Frequencies --    319.0144               398.0385               415.5813
 Red. masses --      3.4839                 3.2223                 4.1688
 Frc consts  --      0.2089                 0.3008                 0.4242
 IR Inten    --      2.3109                 0.4876                 2.7803

                     13                     14                     15
                      A                      A                      A
 Frequencies --    445.0168               460.1625               555.3533
 Red. masses --      2.1939                 3.2275                 4.2688
 Frc consts  --      0.2560                 0.4027                 0.7757
 IR Inten    --      2.5604                 0.2179                 2.8624

                     16                     17                     18
                      A                      A                      A
 Frequencies --    618.3882               679.3785               713.2562
 Red. masses --      4.9943                 1.2653                 6.5582
 Frc consts  --      1.1253                 0.3441                 1.9657
 IR Inten    --     18.0922                36.4924                46.5448

                     19                     20                     21
                      A                      A                      A
 Frequencies --    742.5047               763.7595               779.9245
 Red. masses --      4.4035                10.6677                13.9975
 Frc consts  --      1.4304                 3.6664                 5.0166
 IR Inten    --     16.0284                 6.1281                18.6672

                     22                     23                     24
                      A                      A                      A
 Frequencies --    850.6116               878.9438               965.7075
 Red. masses --      5.3125                 4.4990                 3.2241
 Frc consts  --      2.2647                 2.0478                 1.7715
 IR Inten    --     11.4002                 8.8051                63.1575

                     25                     26                     27
                      A                      A                      A
 Frequencies --   1016.4688              1018.8884              1049.4117
 Red. masses --      2.7082                 2.2015                 1.9154
 Frc consts  --      1.6486                 1.3466                 1.2428
 IR Inten    --     59.8361                39.5780                25.5152

                     28                     29                     30
                      A                      A                      A
 Frequencies --   1066.7192              1090.7797              1149.6727
 Red. masses --      2.0816                 2.1113                 1.5191
 Frc consts  --      1.3955                 1.4800                 1.1830
 IR Inten    --      3.0783               121.0321                26.9592

                     31                     32                     33
                      A                      A                      A
 Frequencies --   1158.7067              1183.8917              1235.0267
 Red. masses --      1.3312                 1.7985                 2.5261
 Frc consts  --      1.0531                 1.4852                 2.2702
 IR Inten    --      5.9835                24.1728               110.3700

                     34                     35                     36
                      A                      A                      A
 Frequencies --   1246.8393              1256.5073              1305.9399
 Red. masses --      2.8412                 2.2064                 2.7919
 Frc consts  --      2.6024                 2.0524                 2.8054
 IR Inten    --    177.7897                35.5856               113.8196

                     37                     38                     39
                      A                      A                      A
 Frequencies --   1320.7636              1345.6145              1385.8251
 Red. masses --      2.0212                 1.4884                 1.5793
 Frc consts  --      2.0774                 1.5879                 1.7871
 IR Inten    --     57.2702                21.0114                12.8522

                     40                     41                     42
                      A                      A                      A
 Frequencies --   1392.2145              1425.3227              1447.5164
 Red. masses --      2.2180                 1.3787                 1.2064
 Frc consts  --      2.5329                 1.6503                 1.4893
 IR Inten    --    167.4664               104.4392                46.5379

                     43                     44                     45
                      A                      A                      A
 Frequencies --   1473.0920              1501.4863              1501.9348
 Red. masses --      1.1859                 1.1721                 1.0678
 Frc consts  --      1.5163                 1.5569                 1.4192
 IR Inten    --     38.5284                82.8351                 5.4602

                     46                     47                     48
                      A                      A                      A
 Frequencies --   1510.6250              1518.0003              1523.6935
 Red. masses --      1.0934                 1.0726                 1.0520
 Frc consts  --      1.4701                 1.4562                 1.4390
 IR Inten    --      3.1435                12.1569                 9.1114

                     49                     50                     51
                      A                      A                      A
 Frequencies --   1529.1982              1572.7981              1623.6676
 Red. masses --      1.1322                 2.9389                 5.2407
 Frc consts  --      1.5599                 4.2834                 8.1402
 IR Inten    --     27.9408               495.8981               580.4950

                     52                     53                     54
                      A                      A                      A
 Frequencies --   1647.7552              3010.7033              3016.0412
 Red. masses --      3.4701                 1.0666                 1.0469
 Frc consts  --      5.5510                 5.6963                 5.6109
 IR Inten    --    142.6927                46.2815                32.4541

                     55                     56                     57
                      A                      A                      A
 Frequencies --   3026.6408              3032.7313              3088.6292
 Red. masses --      1.0457                 1.0687                 1.0991
 Frc consts  --      5.6438                 5.7914                 6.1777
 IR Inten    --     70.1522                69.5539                29.6221

                     58                     59                     60
                      A                      A                      A
 Frequencies --   3096.3325              3098.6818              3112.1729
 Red. masses --      1.0968                 1.0901                 1.0986
 Frc consts  --      6.1955                 6.1670                 6.2694
 IR Inten    --     15.4757                37.6093                17.8710

                     61                     62                     63
                      A                      A                      A
 Frequencies --   3133.8292              3198.3220              3424.8522
 Red. masses --      1.1041                 1.0968                 1.0794
 Frc consts  --      6.3888                 6.6103                 7.4598
 IR Inten    --     21.3000                 0.5650               259.5312

 - Thermochemistry -
 -------------------
 Temperature   298.150 Kelvin.  Pressure   1.00000 Atm.
 Atom     1 has atomic number  8 and mass  15.99491

 Molecular mass:   173.09127 amu.
 Principal axes and moments of inertia in atomic units:
                           1         2         3
     Eigenvalues --  1063.713032766.438093457.07600
           X            0.99994   0.00409  -0.00991
           Y           -0.00415   0.99997  -0.00699
           Z            0.00988   0.00703   0.99993
 This molecule is an asymmetric top.
 Rotational symmetry number  1.
 Warning -- assumption of classical behavior for rotation
           may cause significant error
 Rotational temperatures (Kelvin)      0.08143     0.03131     0.02505
 Rotational constants (GHZ):           1.69664     0.65237     0.52204
 Zero-point vibrational energy     494094.5 (Joules/Mol)
                                  118.09141 (Kcal/Mol)
 Warning -- explicit consideration of  16 degrees of freedom as
           vibrations may cause significant error
 Vibrational temperatures:     70.03    81.92   119.78   143.68   232.22
          (Kelvin)            273.41   276.53   302.38   346.30   458.99
                              572.69   597.93   640.28   662.07   799.03
                              889.72   977.47  1026.22  1068.30  1098.88
                             1122.14  1223.84  1264.60  1389.44  1462.47
                             1465.95  1509.87  1534.77  1569.39  1654.12
                             1667.12  1703.35  1776.93  1793.92  1807.83
                             1878.95  1900.28  1936.04  1993.89  2003.08
                             2050.72  2082.65  2119.45  2160.30  2160.95
                             2173.45  2184.06  2192.25  2200.17  2262.90
                             2336.09  2370.75  4331.73  4339.41  4354.66
                             4363.42  4443.84  4454.93  4458.31  4477.72
                             4508.88  4601.67  4927.59

 Zero-point correction=                           0.188191 (Hartree/Particle)
 Thermal correction to Energy=                    0.199883
 Thermal correction to Enthalpy=                  0.200828
 Thermal correction to Gibbs Free Energy=         0.149545
 Sum of electronic and zero-point Energies=           -621.062244
 Sum of electronic and thermal Energies=              -621.050551
 Sum of electronic and thermal Enthalpies=            -621.049607
 Sum of electronic and thermal Free Energies=         -621.100890

                     E (Thermal)             CV                S
                      KCal/Mol        Cal/Mol-Kelvin    Cal/Mol-Kelvin
 Total                  125.429             42.077            107.934
 Electronic               0.000              0.000              0.000
 Translational            0.889              2.981             41.353
 Rotational               0.889              2.981             30.699
 Vibrational            123.651             36.115             35.882
 Vibration     1          0.595              1.978              4.871
 Vibration     2          0.596              1.975              4.561
 Vibration     3          0.600              1.961              3.813
 Vibration     4          0.604              1.949              3.457
 Vibration     5          0.622              1.890              2.533
 Vibration     6          0.633              1.854              2.228
 Vibration     7          0.634              1.851              2.207
 Vibration     8          0.642              1.825              2.042
 Vibration     9          0.658              1.778              1.798
 Vibration    10          0.705              1.637              1.315
 Vibration    11          0.764              1.474              0.970
 Vibration    12          0.779              1.436              0.907
 Vibration    13          0.804              1.372              0.811
 Vibration    14          0.818              1.338              0.766
 Vibration    15          0.911              1.128              0.533
 Vibration    16          0.978              0.993              0.419

 Normal termination of Gaussian 09 at Fri Aug 20 15:52:49 2021.
