 Gaussian 09, Revision E.01,
 Gaussian 09:  ES64L-G09RevE.01 30-Nov-2015

 -------------------------
 #P OPT Freq B3LYP/6-31G**
 -------------------------

 ------
 TENZUJ
 ------
 Symbolic Z-matrix:
 Charge =  0 Multiplicity = 1

 SCF Done:  E(RB3LYP) =  -706.493104023     A.U. after   16 cycles
 SCF Done:  E(RB3LYP) =  -706.548638369     A.U. after   15 cycles
 SCF Done:  E(RB3LYP) =  -706.551925574     A.U. after   17 cycles
 SCF Done:  E(RB3LYP) =  -706.545620246     A.U. after   17 cycles
 SCF Done:  E(RB3LYP) =  -706.553788586     A.U. after   13 cycles
 SCF Done:  E(RB3LYP) =  -706.554405986     A.U. after   15 cycles
 SCF Done:  E(RB3LYP) =  -706.554473896     A.U. after   14 cycles
 SCF Done:  E(RB3LYP) =  -706.554300236     A.U. after   14 cycles
 SCF Done:  E(RB3LYP) =  -706.554518647     A.U. after   10 cycles
 SCF Done:  E(RB3LYP) =  -706.554570564     A.U. after   13 cycles
 SCF Done:  E(RB3LYP) =  -706.554635570     A.U. after   14 cycles
 SCF Done:  E(RB3LYP) =  -706.552517588     A.U. after   16 cycles
 SCF Done:  E(RB3LYP) =  -706.554665764     A.U. after   11 cycles
 SCF Done:  E(RB3LYP) =  -706.554720838     A.U. after   14 cycles
 SCF Done:  E(RB3LYP) =  -706.554732634     A.U. after   14 cycles
 SCF Done:  E(RB3LYP) =  -706.554737689     A.U. after   12 cycles
 SCF Done:  E(RB3LYP) =  -706.554739072     A.U. after   10 cycles
 SCF Done:  E(RB3LYP) =  -706.554739465     A.U. after    9 cycles
 SCF Done:  E(RB3LYP) =  -706.554739502     A.U. after    9 cycles
 Optimization completed.
    -- Stationary point found.
 Normal termination of Gaussian 09 at Fri Aug 20 16:00:02 2021.

 ----------------------------------------------------------------------
 #P Geom=AllCheck Guess=TCheck SCRF=Check GenChk RB3LYP/6-31G(d,p) Freq
 ----------------------------------------------------------------------

 Structure from the checkpoint file:  "/public/home/users/caep010/.cache/gau_scr/Gau-98365.chk"
 ------
 TENZUJ
 ------
 Charge =  0 Multiplicity = 1

                         Standard orientation:
 ---------------------------------------------------------------------
 Center     Atomic      Atomic             Coordinates (Angstroms)
 Number     Number       Type             X           Y           Z
 ---------------------------------------------------------------------
      1          7           0        1.908934    1.357756   -0.079086
      2          6           0        1.248485    0.204234    0.013145
      3          6           0       -0.139795    0.461780    0.166613
      4          7           0        0.940566    2.237747    0.015557
      5          1           0        1.125662    3.230476   -0.029797
      6          7           0       -0.310219    1.784584    0.173914
      7          7           0       -1.116323   -0.496896    0.348420
      8          1           0       -0.809646   -1.465336    0.308678
      9          7           0       -2.453939   -0.340220   -0.051898
     10          8           0       -2.847279    0.785524   -0.297010
     11          8           0       -3.086875   -1.387924   -0.075280
     12          7           0        1.911365   -1.067275   -0.040661
     13          8           0        3.117567   -1.100180   -0.224241
     14          8           0        1.175233   -2.058808    0.106387
 ---------------------------------------------------------------------

 SCF Done:  E(RB3LYP) =  -706.554739502     A.U. after    1 cycles

 The electronic state is 1-A.
 Alpha  occ. eigenvalues --  -19.21575 -19.21449 -19.20709 -19.20376 -14.63030
 Alpha  occ. eigenvalues --  -14.61075 -14.50732 -14.44925 -14.43766 -14.42159
 Alpha  occ. eigenvalues --  -10.32722 -10.31226  -1.27052  -1.26019  -1.17154
 Alpha  occ. eigenvalues --   -1.09123  -1.08700  -1.01508  -0.95760  -0.89609
 Alpha  occ. eigenvalues --   -0.79605  -0.75700  -0.66530  -0.63783  -0.61464
 Alpha  occ. eigenvalues --   -0.58343  -0.57918  -0.57824  -0.56968  -0.55897
 Alpha  occ. eigenvalues --   -0.53455  -0.52509  -0.51586  -0.41212  -0.39737
 Alpha  occ. eigenvalues --   -0.36129  -0.35020  -0.34610  -0.34078  -0.33661
 Alpha  occ. eigenvalues --   -0.33363  -0.32423  -0.31455  -0.29199
 Alpha virt. eigenvalues --   -0.11888  -0.07723  -0.04223   0.03260   0.03456
 Alpha virt. eigenvalues --    0.08472   0.09331   0.13442   0.16387   0.20146
 Alpha virt. eigenvalues --    0.21682   0.23673   0.25441   0.26941   0.34050

 Mulliken charges:
               1
     1  N   -0.284778
     2  C    0.459636
     3  C    0.581032
     4  N   -0.073507
     5  H    0.328615
     6  N   -0.314531
     7  N   -0.474893
     8  H    0.322890
     9  N    0.634022
    10  O   -0.372791
    11  O   -0.387715
    12  N    0.361338
    13  O   -0.358887
    14  O   -0.420430
 Sum of Mulliken charges =  -0.00000

 Dipole moment (field-independent basis, Debye):
    X=              1.5702    Y=              3.2239    Z=              0.3531  Tot=              3.6033
 Quadrupole moment (field-independent basis, Debye-Ang):
   XX=            -84.9380   YY=            -59.9882   ZZ=            -63.2620
   XY=              7.2799   XZ=             -0.1240   YZ=             -0.2582

  Exact polarizability: 106.714   4.474  91.818  -1.473  -1.839  30.911
 Approx polarizability: 184.342  14.269 181.801  -6.606  -7.409  50.314

                      1                      2                      3
                      A                      A                      A
 Frequencies --     30.1233                74.2814                95.0184
 Red. masses --     11.7199                14.8859                12.7307
 Frc consts  --      0.0063                 0.0484                 0.0677
 IR Inten    --      1.7608                 0.2249                 0.3783

                      4                      5                      6
                      A                      A                      A
 Frequencies --    135.4851               209.4200               225.5019
 Red. masses --     12.2264                10.9183                10.9677
 Frc consts  --      0.1322                 0.2821                 0.3286
 IR Inten    --      6.1185                 2.6877                 0.8406

                      7                      8                      9
                      A                      A                      A
 Frequencies --    327.7753               355.2902               413.1384
 Red. masses --     12.0571                 9.2634                13.3603
 Frc consts  --      0.7632                 0.6890                 1.3436
 IR Inten    --      1.1662                 0.6059                 0.8941

                     10                     11                     12
                      A                      A                      A
 Frequencies --    476.3318               579.4614               581.9285
 Red. masses --     11.9253                 2.5336                 6.2518
 Frc consts  --      1.5942                 0.5012                 1.2474
 IR Inten    --      1.9601                19.9541                23.2686

                     13                     14                     15
                      A                      A                      A
 Frequencies --    643.2056               692.9187               708.1111
 Red. masses --      1.3605                 9.9622                 2.0404
 Frc consts  --      0.3316                 2.8182                 0.6028
 IR Inten    --     70.2118                 1.8521                90.7479

                     16                     17                     18
                      A                      A                      A
 Frequencies --    754.4165               765.3657               774.0022
 Red. masses --     10.6683                 7.2498                 9.6135
 Frc consts  --      3.5774                 2.5022                 3.3933
 IR Inten    --      9.4014                53.4237                13.1288

                     19                     20                     21
                      A                      A                      A
 Frequencies --    832.9565               921.1465               983.1996
 Red. masses --     10.0647                 5.6352                 7.7206
 Frc consts  --      4.1143                 2.8172                 4.3973
 IR Inten    --     33.4177                24.8938                92.2194

                     22                     23                     24
                      A                      A                      A
 Frequencies --    999.9349              1156.1983              1211.6815
 Red. masses --      9.0414                 3.2297                 6.6199
 Frc consts  --      5.3263                 2.5438                 5.7264
 IR Inten    --     33.8894                47.5539                 2.9595

                     25                     26                     27
                      A                      A                      A
 Frequencies --   1276.8342              1349.7280              1365.4360
 Red. masses --      3.9014                11.3655                 2.8792
 Frc consts  --      3.7475                12.1992                 3.1627
 IR Inten    --     34.4952               536.8834               152.5709

                     28                     29                     30
                      A                      A                      A
 Frequencies --   1402.3555              1413.8497              1461.5522
 Red. masses --     10.5920                 7.2114                 1.9576
 Frc consts  --     12.2728                 8.4933                 2.4638
 IR Inten    --     32.9453               100.9621               115.8284

                     31                     32                     33
                      A                      A                      A
 Frequencies --   1544.7321              1595.2628              1654.5805
 Red. masses --      2.7732                10.1610                11.9216
 Frc consts  --      3.8988                15.2353                19.2292
 IR Inten    --    124.3887                12.5784               280.6138

                     34                     35                     36
                      A                      A                      A
 Frequencies --   1723.6601              3556.5444              3656.6599
 Red. masses --      7.9281                 1.0792                 1.0831
 Frc consts  --     13.8778                 8.0425                 8.5331
 IR Inten    --    277.7402               122.8319               180.0037

 - Thermochemistry -
 -------------------
 Temperature   298.150 Kelvin.  Pressure   1.00000 Atm.
 Atom     1 has atomic number  7 and mass  14.00307

 Molecular mass:   174.01375 amu.
 Principal axes and moments of inertia in atomic units:
                           1         2         3
     Eigenvalues --  1107.956702512.082943582.95157
           X            0.99993   0.01210  -0.00041
           Y           -0.01210   0.99993  -0.00182
           Z            0.00039   0.00182   1.00000
 This molecule is an asymmetric top.
 Rotational symmetry number  1.
 Warning -- assumption of classical behavior for rotation
           may cause significant error
 Rotational temperatures (Kelvin)      0.07817     0.03448     0.02417
 Rotational constants (GHZ):           1.62889     0.71842     0.50370
 Zero-point vibrational energy     215017.3 (Joules/Mol)
                                   51.39037 (Kcal/Mol)
 Warning -- explicit consideration of  12 degrees of freedom as
           vibrations may cause significant error
 Vibrational temperatures:     43.34   106.87   136.71   194.93   301.31
          (Kelvin)            324.45   471.59   511.18   594.41   685.33
                              833.71   837.26   925.43   996.95  1018.81
                             1085.44  1101.19  1113.62  1198.44  1325.32
                             1414.60  1438.68  1663.51  1743.34  1837.08
                             1941.96  1964.56  2017.67  2034.21  2102.84
                             2222.52  2295.22  2380.57  2479.96  5117.07
                             5261.11

 Zero-point correction=                           0.081896 (Hartree/Particle)
 Thermal correction to Energy=                    0.091418
 Thermal correction to Enthalpy=                  0.092363
 Thermal correction to Gibbs Free Energy=         0.044965
 Sum of electronic and zero-point Energies=           -706.472844
 Sum of electronic and thermal Energies=              -706.463321
 Sum of electronic and thermal Enthalpies=            -706.462377
 Sum of electronic and thermal Free Energies=         -706.509775

                     E (Thermal)             CV                S
                      KCal/Mol        Cal/Mol-Kelvin    Cal/Mol-Kelvin
 Total                   57.366             33.382             99.757
 Electronic               0.000              0.000              0.000
 Translational            0.889              2.981             41.369
 Rotational               0.889              2.981             30.679
 Vibrational             55.588             27.421             27.709
 Vibration     1          0.594              1.984              5.821
 Vibration     2          0.599              1.966              4.037
 Vibration     3          0.603              1.953              3.554
 Vibration     4          0.613              1.918              2.867
 Vibration     5          0.642              1.826              2.049
 Vibration     6          0.650              1.802              1.914
 Vibration     7          0.711              1.620              1.271
 Vibration     8          0.731              1.564              1.143
 Vibration     9          0.777              1.442              0.916
 Vibration    10          0.833              1.303              0.720
 Vibration    11          0.936              1.076              0.486
 Vibration    12          0.939              1.070              0.482

 Optimization completed.
    -- Stationary point found.
 Normal termination of Gaussian 09 at Fri Aug 20 16:00:21 2021.
