 Gaussian 09, Revision E.01,
 Gaussian 09:  ES64L-G09RevE.01 30-Nov-2015

 -------------------------
 #P OPT Freq B3LYP/6-31G**
 -------------------------

 ------
 ZUGPOG
 ------
 Symbolic Z-matrix:
 Charge =  0 Multiplicity = 1

 SCF Done:  E(RB3LYP) =  -568.211695761     A.U. after   16 cycles
 SCF Done:  E(RB3LYP) =  -568.288346523     A.U. after   14 cycles
 SCF Done:  E(RB3LYP) =  -568.304318706     A.U. after   15 cycles
 SCF Done:  E(RB3LYP) =  -568.308023003     A.U. after   17 cycles
 SCF Done:  E(RB3LYP) =  -568.297838813     A.U. after   17 cycles
 SCF Done:  E(RB3LYP) =  -568.308699971     A.U. after   12 cycles
 SCF Done:  E(RB3LYP) =  -568.309140625     A.U. after   14 cycles
 SCF Done:  E(RB3LYP) =  -568.309436959     A.U. after   13 cycles
 SCF Done:  E(RB3LYP) =  -568.309443009     A.U. after    9 cycles
 SCF Done:  E(RB3LYP) =  -568.309444029     A.U. after    9 cycles
 SCF Done:  E(RB3LYP) =  -568.309444109     A.U. after    8 cycles
 SCF Done:  E(RB3LYP) =  -568.309444162     A.U. after    8 cycles
 SCF Done:  E(RB3LYP) =  -568.309444257     A.U. after    9 cycles
 SCF Done:  E(RB3LYP) =  -568.309444314     A.U. after    9 cycles
 Optimization completed.
    -- Stationary point found.
 Normal termination of Gaussian 09 at Fri Aug 20 15:36:29 2021.

 ----------------------------------------------------------------------
 #P Geom=AllCheck Guess=TCheck SCRF=Check GenChk RB3LYP/6-31G(d,p) Freq
 ----------------------------------------------------------------------

 Structure from the checkpoint file:  "/public/home/users/caep010/.cache/gau_scr/Gau-215486.chk"
 ------
 ZUGPOG
 ------
 Charge =  0 Multiplicity = 1

                         Standard orientation:
 ---------------------------------------------------------------------
 Center     Atomic      Atomic             Coordinates (Angstroms)
 Number     Number       Type             X           Y           Z
 ---------------------------------------------------------------------
      1          6           0        0.437816    0.384264    0.000002
      2          6           0       -0.704450   -0.439137   -0.000022
      3          6           0       -0.608421   -1.825847   -0.000110
      4          6           0        0.651714   -2.415200   -0.000251
      5          1           0        0.740632   -3.496561   -0.000350
      6          6           0        1.795602   -1.619047   -0.000247
      7          1           0        2.775507   -2.086683   -0.000373
      8          6           0        1.718470   -0.222469   -0.000066
      9          6           0        0.401847    1.818079    0.000441
     10          7           0        0.563558    2.970315    0.000975
     11          7           0       -2.061026    0.144481   -0.000169
     12          8           0       -2.158023    1.368094   -0.002334
     13          8           0       -3.011591   -0.636196    0.001842
     14          6           0        2.968823    0.619484    0.000057
     15          1           0        3.006375    1.273569   -0.876949
     16          1           0        3.859849   -0.011589   -0.000568
     17          1           0        3.006841    1.272572    0.877782
     18          1           0       -1.518425   -2.410825   -0.000081
 ---------------------------------------------------------------------

 SCF Done:  E(RB3LYP) =  -568.309444314     A.U. after    1 cycles

 The electronic state is 1-A.
 Alpha  occ. eigenvalues --  -19.19604 -19.19421 -14.58718 -14.34499 -10.28071
 Alpha  occ. eigenvalues --  -10.26906 -10.25148 -10.24092 -10.23741 -10.23674
 Alpha  occ. eigenvalues --  -10.23548 -10.21102  -1.23997  -1.06709  -0.92695
 Alpha  occ. eigenvalues --   -0.90277  -0.83579  -0.81484  -0.74258  -0.71773
 Alpha  occ. eigenvalues --   -0.66119  -0.60927  -0.58689  -0.54840  -0.54683
 Alpha  occ. eigenvalues --   -0.53049  -0.50456  -0.49873  -0.45501  -0.45425
 Alpha  occ. eigenvalues --   -0.42470  -0.40689  -0.40380  -0.39415  -0.36783
 Alpha  occ. eigenvalues --   -0.36378  -0.34768  -0.32162  -0.31683  -0.29836
 Alpha  occ. eigenvalues --   -0.29737  -0.28236
 Alpha virt. eigenvalues --   -0.10906  -0.06307  -0.01700   0.02828   0.06117
 Alpha virt. eigenvalues --    0.06582   0.09648   0.11449   0.13814   0.14352
 Alpha virt. eigenvalues --    0.15354   0.17213   0.17776   0.19043   0.21674

 Mulliken charges:
               1
     1  C    0.079159
     2  C    0.263208
     3  C   -0.099128
     4  C   -0.079537
     5  H    0.116491
     6  C   -0.109671
     7  H    0.108355
     8  C    0.111843
     9  C    0.294556
    10  N   -0.480490
    11  N    0.373459
    12  O   -0.380084
    13  O   -0.390030
    14  C   -0.378331
    15  H    0.152037
    16  H    0.116041
    17  H    0.152041
    18  H    0.150081
 Sum of Mulliken charges =  -0.00000

 Dipole moment (field-independent basis, Debye):
    X=              4.2298    Y=             -5.2990    Z=             -0.0012  Tot=              6.7801
 Quadrupole moment (field-independent basis, Debye-Ang):
   XX=            -68.9537   YY=            -73.7130   ZZ=            -66.9740
   XY=             -0.9697   XZ=              0.0015   YZ=              0.0039

  Exact polarizability: 121.502   3.063 135.868  -0.009  -0.006  41.053
 Approx polarizability: 194.650  13.168 265.261  -0.032  -0.049  63.576

                      1                      2                      3
                      A                      A                      A
 Frequencies --     18.7097                85.1993                97.6580
 Red. masses --     14.5915                 5.2354                 1.0290
 Frc consts  --      0.0030                 0.0224                 0.0058
 IR Inten    --      0.3797                 0.2181                 0.7895

                      4                      5                      6
                      A                      A                      A
 Frequencies --    172.9116               192.0611               220.4353
 Red. masses --     11.2319                 5.8875                 5.7823
 Frc consts  --      0.1979                 0.1280                 0.1655
 IR Inten    --      3.5179                 3.0178                 2.6142

                      7                      8                      9
                      A                      A                      A
 Frequencies --    224.6310               365.8687               373.1839
 Red. masses --      3.3729                 6.7730                 4.5578
 Frc consts  --      0.1003                 0.5342                 0.3740
 IR Inten    --      0.1398                 2.3434                 1.5466

                     10                     11                     12
                      A                      A                      A
 Frequencies --    411.8096               449.3108               499.9218
 Red. masses --      5.7119                 9.8513                 4.7005
 Frc consts  --      0.5707                 1.1718                 0.6922
 IR Inten    --      2.2755                 2.2404                 3.4196

                     13                     14                     15
                      A                      A                      A
 Frequencies --    500.1975               581.1343               592.1423
 Red. masses --      5.4055                 4.4422                 6.3595
 Frc consts  --      0.7968                 0.8839                 1.3138
 IR Inten    --      2.3969                 2.7086                 0.1126

                     16                     17                     18
                      A                      A                      A
 Frequencies --    632.8025               718.7748               756.0356
 Red. masses --      6.5266                 6.4433                 2.9165
 Frc consts  --      1.5398                 1.9613                 0.9822
 IR Inten    --      4.8986                 5.4826                23.6382

                     19                     20                     21
                      A                      A                      A
 Frequencies --    780.4121               822.3410               822.5317
 Red. masses --      7.3461                 6.5345                 1.6515
 Frc consts  --      2.6360                 2.6036                 0.6583
 IR Inten    --     15.9618                15.5735                14.5389

                     22                     23                     24
                      A                      A                      A
 Frequencies --    930.6955               944.8630              1004.8058
 Red. masses --      5.1614                 1.3410                 1.3141
 Frc consts  --      2.6341                 0.7054                 0.7817
 IR Inten    --     21.6876                 0.5039                 0.5372

                     25                     26                     27
                      A                      A                      A
 Frequencies --   1033.3414              1067.2282              1110.7842
 Red. masses --      1.6634                 1.5344                 1.8741
 Frc consts  --      1.0465                 1.0297                 1.3624
 IR Inten    --      4.3410                 3.3606                 6.8371

                     28                     29                     30
                      A                      A                      A
 Frequencies --   1187.3442              1199.6743              1225.1672
 Red. masses --      2.8227                 1.4588                 2.7997
 Frc consts  --      2.3446                 1.2370                 2.4760
 IR Inten    --      4.3029                 1.8257                18.9911

                     31                     32                     33
                      A                      A                      A
 Frequencies --   1277.5436              1346.5967              1392.0802
 Red. masses --      2.0630                 7.0867                14.3480
 Frc consts  --      1.9838                 7.5713                16.3821
 IR Inten    --      1.5598                14.8934               239.6932

                     34                     35                     36
                      A                      A                      A
 Frequencies --   1432.7925              1472.6892              1491.7046
 Red. masses --      1.2286                 1.9618                 1.0417
 Frc consts  --      1.4860                 2.5068                 1.3657
 IR Inten    --      4.2750                 0.0620                 8.5202

                     37                     38                     39
                      A                      A                      A
 Frequencies --   1499.1962              1509.2479              1612.8923
 Red. masses --      2.9175                 1.3266                 6.1392
 Frc consts  --      3.8635                 1.7803                 9.4096
 IR Inten    --      7.6389                17.2414                 1.6571

                     40                     41                     42
                      A                      A                      A
 Frequencies --   1634.3120              1676.5298              2341.4391
 Red. masses --      8.7420                 8.9713                12.6784
 Frc consts  --     13.7572                14.8569                40.9524
 IR Inten    --    161.6252                49.6093                 4.5016

                     43                     44                     45
                      A                      A                      A
 Frequencies --   3055.1357              3115.5612              3144.2919
 Red. masses --      1.0367                 1.1006                 1.1033
 Frc consts  --      5.7013                 6.2944                 6.4266
 IR Inten    --      7.1402                 4.8516                11.3574

                     46                     47                     48
                      A                      A                      A
 Frequencies --   3196.4571              3214.2392              3254.4713
 Red. masses --      1.0887                 1.0944                 1.0930
 Frc consts  --      6.5536                 6.6615                 6.8204
 IR Inten    --      4.5134                 8.1654                 4.5990

 - Thermochemistry -
 -------------------
 Temperature   298.150 Kelvin.  Pressure   1.00000 Atm.
 Atom     1 has atomic number  6 and mass  12.00000

 Molecular mass:   162.04293 amu.
 Principal axes and moments of inertia in atomic units:
                           1         2         3
     Eigenvalues --  1349.227881884.558463222.70357
           X            0.99986   0.01644  -0.00000
           Y           -0.01644   0.99986   0.00001
           Z            0.00000  -0.00001   1.00000
 This molecule is an asymmetric top.
 Rotational symmetry number  1.
 Warning -- assumption of classical behavior for rotation
           may cause significant error
 Rotational temperatures (Kelvin)      0.06420     0.04596     0.02688
 Rotational constants (GHZ):           1.33761     0.95765     0.56001
 Zero-point vibrational energy     339076.5 (Joules/Mol)
                                   81.04122 (Kcal/Mol)
 Warning -- explicit consideration of  15 degrees of freedom as
           vibrations may cause significant error
 Vibrational temperatures:     26.92   122.58   140.51   248.78   276.33
          (Kelvin)            317.16   323.19   526.40   536.93   592.50
                              646.46   719.28   719.67   836.12   851.96
                              910.46  1034.16  1087.77  1122.84  1183.16
                             1183.44  1339.06  1359.45  1445.69  1486.75
                             1535.50  1598.17  1708.32  1726.06  1762.74
                             1838.10  1937.45  2002.89  2061.47  2118.87
                             2146.23  2157.01  2171.47  2320.59  2351.41
                             2412.15  3368.80  4395.65  4482.59  4523.93
                             4598.98  4624.57  4682.45

 Zero-point correction=                           0.129147 (Hartree/Particle)
 Thermal correction to Energy=                    0.139538
 Thermal correction to Enthalpy=                  0.140482
 Thermal correction to Gibbs Free Energy=         0.091705
 Sum of electronic and zero-point Energies=           -568.180297
 Sum of electronic and thermal Energies=              -568.169906
 Sum of electronic and thermal Enthalpies=            -568.168962
 Sum of electronic and thermal Free Energies=         -568.217740

                     E (Thermal)             CV                S
                      KCal/Mol        Cal/Mol-Kelvin    Cal/Mol-Kelvin
 Total                   87.561             37.830            102.661
 Electronic               0.000              0.000              0.000
 Translational            0.889              2.981             41.157
 Rotational               0.889              2.981             30.484
 Vibrational             85.784             31.868             31.020
 Vibration     1          0.593              1.986              6.767
 Vibration     2          0.601              1.959              3.767
 Vibration     3          0.603              1.951              3.501
 Vibration     4          0.626              1.876              2.404
 Vibration     5          0.634              1.851              2.208
 Vibration     6          0.647              1.810              1.956
 Vibration     7          0.649              1.804              1.921
 Vibration     8          0.739              1.542              1.097
 Vibration     9          0.745              1.527              1.067
 Vibration    10          0.776              1.445              0.920
 Vibration    11          0.808              1.362              0.798
 Vibration    12          0.855              1.250              0.658
 Vibration    13          0.856              1.250              0.658
 Vibration    14          0.938              1.072              0.483
 Vibration    15          0.950              1.049              0.463

 Normal termination of Gaussian 09 at Fri Aug 20 15:36:55 2021.
