 Gaussian 09, Revision E.01,
 Gaussian 09:  ES64L-G09RevE.01 30-Nov-2015

 -------------------------
 #P OPT Freq B3LYP/6-31G**
 -------------------------

 ------
 WOBLUU
 ------
 Symbolic Z-matrix:
 Charge =  0 Multiplicity = 1

 SCF Done:  E(RB3LYP) =  -690.490048774     A.U. after   16 cycles
 SCF Done:  E(RB3LYP) =  -690.536563852     A.U. after   15 cycles
 SCF Done:  E(RB3LYP) =  -690.540600310     A.U. after   16 cycles
 SCF Done:  E(RB3LYP) =  -690.529337628     A.U. after   17 cycles
 SCF Done:  E(RB3LYP) =  -690.542404201     A.U. after   12 cycles
 SCF Done:  E(RB3LYP) =  -690.543020192     A.U. after   14 cycles
 SCF Done:  E(RB3LYP) =  -690.543100208     A.U. after   14 cycles
 SCF Done:  E(RB3LYP) =  -690.542854105     A.U. after   14 cycles
 SCF Done:  E(RB3LYP) =  -690.543131274     A.U. after   10 cycles
 SCF Done:  E(RB3LYP) =  -690.543256878     A.U. after   14 cycles
 SCF Done:  E(RB3LYP) =  -690.543297668     A.U. after   14 cycles
 SCF Done:  E(RB3LYP) =  -690.543305441     A.U. after   13 cycles
 SCF Done:  E(RB3LYP) =  -690.543308671     A.U. after   13 cycles
 SCF Done:  E(RB3LYP) =  -690.543309029     A.U. after   12 cycles
 SCF Done:  E(RB3LYP) =  -690.543308865     A.U. after   10 cycles
 SCF Done:  E(RB3LYP) =  -690.543308747     A.U. after    9 cycles
 SCF Done:  E(RB3LYP) =  -690.543308646     A.U. after    9 cycles
 SCF Done:  E(RB3LYP) =  -690.543308615     A.U. after    9 cycles
 Optimization completed.
    -- Stationary point found.
 Normal termination of Gaussian 09 at Fri Aug 20 16:01:49 2021.

 ----------------------------------------------------------------------
 #P Geom=AllCheck Guess=TCheck SCRF=Check GenChk RB3LYP/6-31G(d,p) Freq
 ----------------------------------------------------------------------

 Structure from the checkpoint file:  "/public/home/users/caep010/.cache/gau_scr/Gau-145585.chk"
 ------
 WOBLUU
 ------
 Charge =  0 Multiplicity = 1

                         Standard orientation:
 ---------------------------------------------------------------------
 Center     Atomic      Atomic             Coordinates (Angstroms)
 Number     Number       Type             X           Y           Z
 ---------------------------------------------------------------------
      1          7           0        0.388592   -0.573814   -0.505500
      2          7           0       -0.581382    0.367304   -0.619326
      3          6           0        1.407612    0.160168   -0.104321
      4          7           0        1.182678    1.486351    0.061481
      5          6           0       -1.914226   -0.016503   -0.942269
      6          7           0       -2.765140   -0.278387    0.311177
      7          8           0       -3.832769   -0.827575    0.083962
      8          8           0       -2.337996    0.104699    1.387344
      9          7           0        2.718908   -0.447633    0.136760
     10          8           0        3.605972    0.301908    0.524214
     11          8           0        2.812886   -1.652572   -0.070585
     12          6           0       -0.086577    1.588499   -0.260273
     13          1           0       -2.436854    0.772242   -1.484445
     14          1           0       -1.912472   -0.944553   -1.509143
     15          1           0       -0.681857    2.490910   -0.256844
 ---------------------------------------------------------------------

 SCF Done:  E(RB3LYP) =  -690.543308615     A.U. after    1 cycles

 The electronic state is 1-A.
 Alpha  occ. eigenvalues --  -19.22843 -19.22487 -19.19618 -19.19482 -14.61203
 Alpha  occ. eigenvalues --  -14.59086 -14.48781 -14.42152 -14.38396 -10.33725
 Alpha  occ. eigenvalues --  -10.32185 -10.31369  -1.26961  -1.24290  -1.14428
 Alpha  occ. eigenvalues --   -1.10160  -1.07043  -0.97697  -0.91488  -0.84020
 Alpha  occ. eigenvalues --   -0.76784  -0.70820  -0.65254  -0.63223  -0.59571
 Alpha  occ. eigenvalues --   -0.58810  -0.57717  -0.55854  -0.55383  -0.53487
 Alpha  occ. eigenvalues --   -0.52424  -0.50268  -0.49708  -0.48210  -0.38783
 Alpha  occ. eigenvalues --   -0.36614  -0.35203  -0.34044  -0.33674  -0.33422
 Alpha  occ. eigenvalues --   -0.32134  -0.32026  -0.31807  -0.30299
 Alpha virt. eigenvalues --   -0.10311  -0.10107  -0.04917   0.03357   0.05387
 Alpha virt. eigenvalues --    0.07104   0.08423   0.09531   0.11547   0.15090
 Alpha virt. eigenvalues --    0.19381   0.21116   0.22874   0.24162   0.28317

 Mulliken charges:
               1
     1  N   -0.268307
     2  N   -0.251903
     3  C    0.626842
     4  N   -0.440502
     5  C    0.038291
     6  N    0.454084
     7  O   -0.346131
     8  O   -0.341981
     9  N    0.377950
    10  O   -0.358977
    11  O   -0.370024
    12  C    0.321311
    13  H    0.189993
    14  H    0.210038
    15  H    0.159316
 Sum of Mulliken charges =  -0.00000

 Dipole moment (field-independent basis, Debye):
    X=             -4.2649    Y=              2.5537    Z=             -3.4533  Tot=              6.0528
 Quadrupole moment (field-independent basis, Debye-Ang):
   XX=            -83.6450   YY=            -66.8338   ZZ=            -64.0092
   XY=             -4.3909   XZ=              5.0705   YZ=             -2.5455

  Exact polarizability: 105.223   3.278  71.989  11.730   6.512  49.325
 Approx polarizability: 160.797  24.192 146.178  33.845  26.730  88.081

                      1                      2                      3
                      A                      A                      A
 Frequencies --     33.8357                36.8170                47.5986
 Red. masses --     14.0884                12.7700                 8.7893
 Frc consts  --      0.0095                 0.0102                 0.0117
 IR Inten    --      0.7198                 0.6742                 5.3035

                      4                      5                      6
                      A                      A                      A
 Frequencies --     93.4426               197.2939               204.7947
 Red. masses --      9.5727                 6.0351                 7.1194
 Frc consts  --      0.0492                 0.1384                 0.1759
 IR Inten    --      2.5153                 1.6954                 1.5558

                      7                      8                      9
                      A                      A                      A
 Frequencies --    331.6167               353.2893               374.9357
 Red. masses --      8.7691                 4.2334                 6.1848
 Frc consts  --      0.5682                 0.3113                 0.5123
 IR Inten    --      2.1310                 3.2761                 0.4418

                     10                     11                     12
                      A                      A                      A
 Frequencies --    464.3514               547.7365               581.6974
 Red. masses --      9.7481                 5.8038                 5.2420
 Frc consts  --      1.2384                 1.0259                 1.0451
 IR Inten    --      3.4548                 1.8851                 5.5244

                     13                     14                     15
                      A                      A                      A
 Frequencies --    643.5677               664.1631               696.9234
 Red. masses --      5.4185                 9.1941                 5.8872
 Frc consts  --      1.3223                 2.3895                 1.6847
 IR Inten    --      2.9527                22.0334                41.4912

                     16                     17                     18
                      A                      A                      A
 Frequencies --    787.5671               825.0126               846.6049
 Red. masses --     13.1670                 5.8273                10.8840
 Frc consts  --      4.8118                 2.3369                 4.5962
 IR Inten    --      0.0963                14.4449                97.1882

                     19                     20                     21
                      A                      A                      A
 Frequencies --    861.2785               890.0197               997.6272
 Red. masses --      1.4485                11.1419                 2.3764
 Frc consts  --      0.6331                 5.2001                 1.3935
 IR Inten    --      7.2043                14.8180                 0.7839

                     22                     23                     24
                      A                      A                      A
 Frequencies --   1034.9010              1048.7189              1203.0165
 Red. masses --      7.3519                 4.8112                 1.5358
 Frc consts  --      4.6393                 3.1176                 1.3096
 IR Inten    --      1.6405                33.5250                 1.6277

                     25                     26                     27
                      A                      A                      A
 Frequencies --   1235.9435              1345.0852              1355.0555
 Red. masses --      1.6205                 1.3233                 6.8505
 Frc consts  --      1.4584                 1.4106                 7.4111
 IR Inten    --     36.4845                26.7836                68.5943

                     28                     29                     30
                      A                      A                      A
 Frequencies --   1356.1662              1415.6884              1418.6080
 Red. masses --      3.1534                 7.1198                 7.0375
 Frc consts  --      3.4171                 8.4073                 8.3444
 IR Inten    --    107.8258               176.3514                31.5644

                     31                     32                     33
                      A                      A                      A
 Frequencies --   1447.0475              1462.1106              1473.8892
 Red. masses --      3.9971                 2.7098                 1.9484
 Frc consts  --      4.9313                 3.4130                 2.4938
 IR Inten    --     32.5274                17.6619                23.7010

                     34                     35                     36
                      A                      A                      A
 Frequencies --   1563.5921              1673.8175              1707.8823
 Red. masses --      6.7784                14.4825                12.4725
 Frc consts  --      9.7639                23.9061                21.4347
 IR Inten    --     64.5536               198.9565               247.7654

                     37                     38                     39
                      A                      A                      A
 Frequencies --   3128.5387              3211.4040              3274.6554
 Red. masses --      1.0605                 1.1096                 1.0997
 Frc consts  --      6.1158                 6.7421                 6.9479
 IR Inten    --      4.4163                 3.0474                 1.2793

 - Thermochemistry -
 -------------------
 Temperature   298.150 Kelvin.  Pressure   1.00000 Atm.
 Atom     1 has atomic number  7 and mass  14.00307

 Molecular mass:   173.01850 amu.
 Principal axes and moments of inertia in atomic units:
                           1         2         3
     Eigenvalues --   706.971973692.146823955.85814
           X            0.99997  -0.00215   0.00739
           Y            0.00219   0.99998  -0.00558
           Z           -0.00738   0.00560   0.99996
 This molecule is an asymmetric top.
 Rotational symmetry number  1.
 Warning -- assumption of classical behavior for rotation
           may cause significant error
 Rotational temperatures (Kelvin)      0.12251     0.02346     0.02190
 Rotational constants (GHZ):           2.55278     0.48881     0.45622
 Zero-point vibrational energy     244255.3 (Joules/Mol)
                                   58.37841 (Kcal/Mol)
 Warning -- explicit consideration of  12 degrees of freedom as
           vibrations may cause significant error
 Vibrational temperatures:     48.68    52.97    68.48   134.44   283.86
          (Kelvin)            294.65   477.12   508.30   539.45   668.10
                              788.07   836.93   925.95   955.58  1002.72
                             1133.13  1187.01  1218.07  1239.19  1280.54
                             1435.36  1488.99  1508.87  1730.87  1778.24
                             1935.28  1949.62  1951.22  2036.86  2041.06
                             2081.98  2103.65  2120.60  2249.66  2408.25
                             2457.26  4501.26  4620.49  4711.49

 Zero-point correction=                           0.093032 (Hartree/Particle)
 Thermal correction to Energy=                    0.102904
 Thermal correction to Enthalpy=                  0.103848
 Thermal correction to Gibbs Free Energy=         0.054675
 Sum of electronic and zero-point Energies=           -690.450277
 Sum of electronic and thermal Energies=              -690.440404
 Sum of electronic and thermal Enthalpies=            -690.439460
 Sum of electronic and thermal Free Energies=         -690.488634

                     E (Thermal)             CV                S
                      KCal/Mol        Cal/Mol-Kelvin    Cal/Mol-Kelvin
 Total                   64.573             33.787            103.494
 Electronic               0.000              0.000              0.000
 Translational            0.889              2.981             41.352
 Rotational               0.889              2.981             30.713
 Vibrational             62.796             27.825             31.429
 Vibration     1          0.594              1.983              5.591
 Vibration     2          0.594              1.982              5.423
 Vibration     3          0.595              1.978              4.915
 Vibration     4          0.602              1.954              3.587
 Vibration     5          0.637              1.844              2.158
 Vibration     6          0.640              1.833              2.090
 Vibration     7          0.714              1.612              1.252
 Vibration     8          0.729              1.569              1.151
 Vibration     9          0.746              1.523              1.060
 Vibration    10          0.822              1.329              0.754
 Vibration    11          0.903              1.145              0.549
 Vibration    12          0.938              1.071              0.482

 Optimization completed.
    -- Stationary point found.
 Normal termination of Gaussian 09 at Fri Aug 20 16:02:10 2021.
