 Gaussian 09, Revision E.01,
 Gaussian 09:  ES64L-G09RevE.01 30-Nov-2015

 -------------------------
 #P OPT Freq B3LYP/6-31G**
 -------------------------

 ------
 YIKBUP
 ------
 Symbolic Z-matrix:
 Charge =  0 Multiplicity = 1

 SCF Done:  E(RB3LYP) =  -791.811216183     A.U. after   16 cycles
 SCF Done:  E(RB3LYP) =  -791.856503314     A.U. after   14 cycles
 SCF Done:  E(RB3LYP) =  -791.864006608     A.U. after   15 cycles
 SCF Done:  E(RB3LYP) =  -791.860207492     A.U. after   16 cycles
 SCF Done:  E(RB3LYP) =  -791.865323418     A.U. after   11 cycles
 SCF Done:  E(RB3LYP) =  -791.858830505     A.U. after   15 cycles
 SCF Done:  E(RB3LYP) =  -791.867095963     A.U. after   12 cycles
 SCF Done:  E(RB3LYP) =  -791.864034127     A.U. after   15 cycles
 SCF Done:  E(RB3LYP) =  -791.867217075     A.U. after   11 cycles
 SCF Done:  E(RB3LYP) =  -791.867879938     A.U. after   15 cycles
 SCF Done:  E(RB3LYP) =  -791.870906631     A.U. after   15 cycles
 SCF Done:  E(RB3LYP) =  -791.870943933     A.U. after   15 cycles
 SCF Done:  E(RB3LYP) =  -791.871022109     A.U. after   13 cycles
 SCF Done:  E(RB3LYP) =  -791.871040813     A.U. after   12 cycles
 SCF Done:  E(RB3LYP) =  -791.871045534     A.U. after   12 cycles
 SCF Done:  E(RB3LYP) =  -791.871047749     A.U. after   12 cycles
 SCF Done:  E(RB3LYP) =  -791.871048257     A.U. after   10 cycles
 SCF Done:  E(RB3LYP) =  -791.871048278     A.U. after    9 cycles
 SCF Done:  E(RB3LYP) =  -791.871048273     A.U. after    8 cycles
 Optimization completed.
    -- Stationary point found.
 Normal termination of Gaussian 09 at Fri Aug 20 15:59:33 2021.

 ----------------------------------------------------------------------
 #P Geom=AllCheck Guess=TCheck SCRF=Check GenChk RB3LYP/6-31G(d,p) Freq
 ----------------------------------------------------------------------

 Structure from the checkpoint file:  "/public/home/users/caep010/.cache/gau_scr/Gau-173241.chk"
 ------
 YIKBUP
 ------
 Charge =  0 Multiplicity = 1

                         Standard orientation:
 ---------------------------------------------------------------------
 Center     Atomic      Atomic             Coordinates (Angstroms)
 Number     Number       Type             X           Y           Z
 ---------------------------------------------------------------------
      1          6           0       -0.376467   -0.098229   -0.175540
      2          7           0       -1.228090    1.133277   -0.400265
      3          8           0       -0.602303    2.107827   -0.824783
      4          6           0        0.267332   -0.582688   -1.495119
      5          6           0        0.846818    0.225447    0.755325
      6          8           0        0.810226    1.432977    1.444140
      7          1           0        0.779059    2.156042    0.798652
      8          1           0        0.246514    0.243481   -2.217721
      9          7           0       -1.320585   -1.144062    0.435832
     10          8           0       -1.410779   -1.153619    1.653809
     11          8           0       -1.926729   -1.864138   -0.345520
     12          6           0        2.043670    0.028462   -0.201023
     13          1           0        2.274709    0.972512   -0.728093
     14          8           0        3.124187   -0.452936    0.508602
     15          1           0        3.897281   -0.472148   -0.071530
     16          8           0       -2.419507    1.092757   -0.159502
     17          8           0        1.589041   -0.943771   -1.143486
     18          1           0        0.891689   -0.566103    1.505861
     19          1           0       -0.249735   -1.449021   -1.904072
 ---------------------------------------------------------------------

 SCF Done:  E(RB3LYP) =  -791.871048273     A.U. after    2 cycles

 The electronic state is 1-A.
 Alpha  occ. eigenvalues --  -19.23344 -19.22922 -19.21735 -19.21733 -19.19264
 Alpha  occ. eigenvalues --  -19.19007 -19.18575 -14.61689 -14.60241 -10.33053
 Alpha  occ. eigenvalues --  -10.32075 -10.28894 -10.28650  -1.27704  -1.25705
 Alpha  occ. eigenvalues --   -1.11343  -1.10402  -1.09072  -1.06455  -1.05033
 Alpha  occ. eigenvalues --   -0.89439  -0.77358  -0.73536  -0.72754  -0.65772
 Alpha  occ. eigenvalues --   -0.62090  -0.59655  -0.59370  -0.58069  -0.56774
 Alpha  occ. eigenvalues --   -0.55121  -0.54332  -0.53886  -0.52627  -0.48764
 Alpha  occ. eigenvalues --   -0.47839  -0.47333  -0.45532  -0.40115  -0.39379
 Alpha  occ. eigenvalues --   -0.37402  -0.35760  -0.35024  -0.34163  -0.33885
 Alpha  occ. eigenvalues --   -0.33462  -0.32914  -0.32525  -0.31756  -0.29103
 Alpha virt. eigenvalues --   -0.11134  -0.10175   0.03561   0.04876   0.05681
 Alpha virt. eigenvalues --    0.08023   0.11549   0.12398   0.13907   0.14162
 Alpha virt. eigenvalues --    0.15759   0.16502   0.18364   0.21674   0.23189

 Mulliken charges:
               1
     1  C    0.165076
     2  N    0.472930
     3  O   -0.385621
     4  C    0.073603
     5  C    0.164625
     6  O   -0.525527
     7  H    0.325521
     8  H    0.132051
     9  N    0.450287
    10  O   -0.337090
    11  O   -0.349219
    12  C    0.396349
    13  H    0.085431
    14  O   -0.518917
    15  H    0.326410
    16  O   -0.331236
    17  O   -0.492105
    18  H    0.178892
    19  H    0.168540
 Sum of Mulliken charges =  -0.00000

 Dipole moment (field-independent basis, Debye):
    X=              3.5485    Y=              0.8412    Z=             -2.8555  Tot=              4.6318
 Quadrupole moment (field-independent basis, Debye-Ang):
   XX=            -71.8082   YY=            -76.9274   ZZ=            -75.7850
   XY=              1.0636   XZ=             -2.1824   YZ=              0.1999

  Exact polarizability:  87.165   4.688  71.032   0.892   0.127  70.602
 Approx polarizability: 137.342  17.986 116.484   1.261   3.582 131.447

                      1                      2                      3
                      A                      A                      A
 Frequencies --     34.6892                40.5971                89.9113
 Red. masses --     12.4771                 6.5335                15.0887
 Frc consts  --      0.0088                 0.0063                 0.0719
 IR Inten    --      0.3319                 0.1620                 0.2029

                      4                      5                      6
                      A                      A                      A
 Frequencies --    145.1165               185.5724               210.4008
 Red. masses --      7.6979                12.6081                 7.4947
 Frc consts  --      0.0955                 0.2558                 0.1955
 IR Inten    --      1.4960                 2.1230                 4.4288

                      7                      8                      9
                      A                      A                      A
 Frequencies --    232.5134               275.1434               315.1003
 Red. masses --      7.7300                 2.5543                 1.7626
 Frc consts  --      0.2462                 0.1139                 0.1031
 IR Inten    --      3.3898                31.8555                43.5941

                     10                     11                     12
                      A                      A                      A
 Frequencies --    335.2378               351.3863               400.3728
 Red. masses --      2.4540                 7.8123                 5.2476
 Frc consts  --      0.1625                 0.5683                 0.4956
 IR Inten    --     26.6283                 7.8180                 1.0195

                     13                     14                     15
                      A                      A                      A
 Frequencies --    413.6960               426.6405               482.4311
 Red. masses --      4.5731                 4.4018                 1.3208
 Frc consts  --      0.4611                 0.4721                 0.1811
 IR Inten    --      5.1629                14.5100               201.4537

                     16                     17                     18
                      A                      A                      A
 Frequencies --    523.3839               587.8082               596.3817
 Red. masses --      5.2718                 7.9947                 6.3590
 Frc consts  --      0.8508                 1.6275                 1.3326
 IR Inten    --      5.8460                 5.5714                25.7761

                     19                     20                     21
                      A                      A                      A
 Frequencies --    663.2078               709.3340               758.6498
 Red. masses --      9.7020                 6.5953                 5.4447
 Frc consts  --      2.5143                 1.9552                 1.8463
 IR Inten    --      7.6527                 4.2835                34.9492

                     22                     23                     24
                      A                      A                      A
 Frequencies --    791.6002               856.9082               884.9519
 Red. masses --      6.0791                 9.2346                 4.1998
 Frc consts  --      2.2444                 3.9952                 1.9378
 IR Inten    --     51.9278                11.0831                31.4598

                     25                     26                     27
                      A                      A                      A
 Frequencies --    983.0474              1012.8665              1058.2152
 Red. masses --      3.5523                 4.4488                 8.3191
 Frc consts  --      2.0226                 2.6890                 5.4888
 IR Inten    --     64.4887                20.9858                11.8650

                     28                     29                     30
                      A                      A                      A
 Frequencies --   1083.4869              1098.4271              1131.5049
 Red. masses --      6.0290                 3.0569                 3.7972
 Frc consts  --      4.1701                 2.1731                 2.8644
 IR Inten    --     51.4426                91.7847                51.1328

                     31                     32                     33
                      A                      A                      A
 Frequencies --   1156.4160              1192.7404              1221.5810
 Red. masses --      2.2703                 3.7282                 1.2819
 Frc consts  --      1.7888                 3.1249                 1.1271
 IR Inten    --    142.3482                80.9255                33.9441

                     34                     35                     36
                      A                      A                      A
 Frequencies --   1264.2691              1306.8722              1318.1781
 Red. masses --      1.2497                 1.4173                 1.4973
 Frc consts  --      1.1769                 1.4262                 1.5328
 IR Inten    --     11.6497                37.8970                74.0352

                     37                     38                     39
                      A                      A                      A
 Frequencies --   1356.8754              1377.3293              1387.8789
 Red. masses --      1.2547                 3.5810                 2.2409
 Frc consts  --      1.3610                 4.0024                 2.5432
 IR Inten    --     24.1630                99.0039                46.0342

                     40                     41                     42
                      A                      A                      A
 Frequencies --   1432.2417              1444.2600              1476.8465
 Red. masses --      2.1572                 1.5530                 1.6544
 Frc consts  --      2.6071                 1.9086                 2.1260
 IR Inten    --     43.6545                38.7607                11.7819

                     43                     44                     45
                      A                      A                      A
 Frequencies --   1516.4244              1677.1075              1687.8509
 Red. masses --      1.1011                13.2106                13.8134
 Frc consts  --      1.4919                21.8924                23.1856
 IR Inten    --     15.6609               216.4876               220.7887

                     46                     47                     48
                      A                      A                      A
 Frequencies --   2955.3683              3042.5152              3134.1875
 Red. masses --      1.0834                 1.0697                 1.0857
 Frc consts  --      5.5750                 5.8341                 6.2837
 IR Inten    --     58.1472                19.7612                 1.7237

                     49                     50                     51
                      A                      A                      A
 Frequencies --   3174.2105              3765.5061              3817.2137
 Red. masses --      1.0964                 1.0654                 1.0662
 Frc consts  --      6.5088                 8.9007                 9.1536
 IR Inten    --      0.1126                34.5769                51.6405

 - Thermochemistry -
 -------------------
 Temperature   298.150 Kelvin.  Pressure   1.00000 Atm.
 Atom     1 has atomic number  6 and mass  12.00000

 Molecular mass:   194.01750 amu.
 Principal axes and moments of inertia in atomic units:
                           1         2         3
     Eigenvalues --  1548.761762474.790302832.45799
           X            0.99997   0.00767  -0.00027
           Y           -0.00766   0.99969   0.02381
           Z            0.00045  -0.02381   0.99972
 This molecule is an asymmetric top.
 Rotational symmetry number  1.
 Warning -- assumption of classical behavior for rotation
           may cause significant error
 Rotational temperatures (Kelvin)      0.05592     0.03500     0.03058
 Rotational constants (GHZ):           1.16528     0.72925     0.63716
 Zero-point vibrational energy     343235.3 (Joules/Mol)
                                   82.03520 (Kcal/Mol)
 Warning -- explicit consideration of  18 degrees of freedom as
           vibrations may cause significant error
 Vibrational temperatures:     49.91    58.41   129.36   208.79   267.00
          (Kelvin)            302.72   334.53   395.87   453.36   482.33
                              505.57   576.05   595.22   613.84   694.11
                              753.03   845.72   858.06   954.21  1020.57
                             1091.53  1138.93  1232.90  1273.25  1414.38
                             1457.29  1522.53  1558.89  1580.39  1627.98
                             1663.82  1716.09  1757.58  1819.00  1880.30
                             1896.56  1952.24  1981.67  1996.85  2060.67
                             2077.97  2124.85  2181.79  2412.98  2428.44
                             4252.11  4377.50  4509.39  4566.98  5417.72
                             5492.11

 Zero-point correction=                           0.130731 (Hartree/Particle)
 Thermal correction to Energy=                    0.142433
 Thermal correction to Enthalpy=                  0.143377
 Thermal correction to Gibbs Free Energy=         0.091933
 Sum of electronic and zero-point Energies=           -791.740317
 Sum of electronic and thermal Energies=              -791.728615
 Sum of electronic and thermal Enthalpies=            -791.727671
 Sum of electronic and thermal Free Energies=         -791.779116

                     E (Thermal)             CV                S
                      KCal/Mol        Cal/Mol-Kelvin    Cal/Mol-Kelvin
 Total                   89.378             42.651            108.274
 Electronic               0.000              0.000              0.000
 Translational            0.889              2.981             41.694
 Rotational               0.889              2.981             30.763
 Vibrational             87.601             36.690             35.817
 Vibration     1          0.594              1.983              5.541
 Vibration     2          0.594              1.981              5.230
 Vibration     3          0.602              1.956              3.662
 Vibration     4          0.617              1.908              2.735
 Vibration     5          0.632              1.860              2.272
 Vibration     6          0.643              1.825              2.040
 Vibration     7          0.653              1.791              1.859
 Vibration     8          0.677              1.719              1.564
 Vibration     9          0.702              1.645              1.335
 Vibration    10          0.716              1.605              1.235
 Vibration    11          0.728              1.572              1.160
 Vibration    12          0.766              1.469              0.961
 Vibration    13          0.777              1.440              0.914
 Vibration    14          0.788              1.412              0.870
 Vibration    15          0.839              1.289              0.704
 Vibration    16          0.878              1.198              0.602
 Vibration    17          0.945              1.058              0.471
 Vibration    18          0.954              1.039              0.456

 Normal termination of Gaussian 09 at Fri Aug 20 16:00:09 2021.
