 Gaussian 09, Revision E.01,
 Gaussian 09:  ES64L-G09RevE.01 30-Nov-2015

 -------------------------
 #P OPT Freq B3LYP/6-31G**
 -------------------------

 ------
 MENFXN
 ------
 Symbolic Z-matrix:
 Charge =  0 Multiplicity = 1

 SCF Done:  E(RB3LYP) =  -580.883029298     A.U. after   17 cycles
 SCF Done:  E(RB3LYP) =  -580.979513843     A.U. after   15 cycles
 SCF Done:  E(RB3LYP) =  -581.014642507     A.U. after   15 cycles
 SCF Done:  E(RB3LYP) =  -581.017182568     A.U. after   15 cycles
 SCF Done:  E(RB3LYP) =  -581.012744842     A.U. after   16 cycles
 SCF Done:  E(RB3LYP) =  -581.017297386     A.U. after   12 cycles
 SCF Done:  E(RB3LYP) =  -581.017612032     A.U. after   15 cycles
 SCF Done:  E(RB3LYP) =  -581.017678303     A.U. after   15 cycles
 SCF Done:  E(RB3LYP) =  -581.017747856     A.U. after   13 cycles
 SCF Done:  E(RB3LYP) =  -581.017778657     A.U. after   14 cycles
 SCF Done:  E(RB3LYP) =  -581.017782221     A.U. after   11 cycles
 Optimization completed.
    -- Stationary point found.
 Normal termination of Gaussian 09 at Fri Aug 20 15:54:05 2021.

 ----------------------------------------------------------------------
 #P Geom=AllCheck Guess=TCheck SCRF=Check GenChk RB3LYP/6-31G(d,p) Freq
 ----------------------------------------------------------------------

 Structure from the checkpoint file:  "/public/home/users/caep010/.cache/gau_scr/Gau-21636.chk"
 ------
 MENFXN
 ------
 Charge =  0 Multiplicity = 1

                         Standard orientation:
 ---------------------------------------------------------------------
 Center     Atomic      Atomic             Coordinates (Angstroms)
 Number     Number       Type             X           Y           Z
 ---------------------------------------------------------------------
      1          6           0       -0.614708    0.598651   -0.000356
      2          6           0        0.465030   -0.321840    0.000088
      3          7           0        0.098498   -1.575599    0.001432
      4          7           0       -1.715377   -0.155597   -0.000165
      5          6           0       -0.696805    2.086667   -0.001913
      6          1           0       -0.202862    2.498978   -0.885057
      7          1           0       -0.195594    2.501218    0.876584
      8          1           0       -1.746557    2.384113    0.001642
      9          7           0        1.882716    0.017284    0.000249
     10          8           0       -1.245685   -1.575342    0.001003
     11          8           0        2.689694   -0.898818   -0.003921
     12          8           0       -2.911382    0.055403   -0.000088
     13          8           0        2.137754    1.222784    0.004168
 ---------------------------------------------------------------------

 SCF Done:  E(RB3LYP) =  -581.017782221     A.U. after    1 cycles

 The electronic state is 1-A.
 Alpha  occ. eigenvalues --  -19.30413 -19.21737 -19.21686 -19.21336 -14.61268
 Alpha  occ. eigenvalues --  -14.57299 -14.45475 -10.32273 -10.30117 -10.23477
 Alpha  occ. eigenvalues --   -1.26439  -1.24466  -1.15973  -1.09158  -0.94497
 Alpha  occ. eigenvalues --   -0.91655  -0.79064  -0.77464  -0.66737  -0.65191
 Alpha  occ. eigenvalues --   -0.58988  -0.58060  -0.55438  -0.54390  -0.53224
 Alpha  occ. eigenvalues --   -0.50834  -0.46377  -0.46103  -0.45055  -0.44372
 Alpha  occ. eigenvalues --   -0.40373  -0.35274  -0.34217  -0.34077  -0.32819
 Alpha  occ. eigenvalues --   -0.32391  -0.27414
 Alpha virt. eigenvalues --   -0.12377  -0.07172  -0.01096   0.01925   0.07199
 Alpha virt. eigenvalues --    0.09251   0.12399   0.13850   0.15351   0.19204
 Alpha virt. eigenvalues --    0.22518   0.23957   0.28983   0.31051   0.34870

 Mulliken charges:
               1
     1  C    0.348929
     2  C    0.417614
     3  N   -0.145157
     4  N    0.263259
     5  C   -0.354474
     6  H    0.162154
     7  H    0.162297
     8  H    0.152229
     9  N    0.377806
    10  O   -0.216159
    11  O   -0.351169
    12  O   -0.432960
    13  O   -0.384371
 Sum of Mulliken charges =  -0.00000

 Dipole moment (field-independent basis, Debye):
    X=             -0.9546    Y=              2.4443    Z=             -0.0036  Tot=              2.6241
 Quadrupole moment (field-independent basis, Debye-Ang):
   XX=            -69.2383   YY=            -55.8345   ZZ=            -52.2851
   XY=             -1.4612   XZ=              0.0041   YZ=             -0.0154

  Exact polarizability:  90.735  -2.634  75.601  -0.011   0.019  31.353
 Approx polarizability: 175.308 -14.141 160.487  -0.030   0.113  47.774

                      1                      2                      3
                      A                      A                      A
 Frequencies --     45.9081                99.1185               131.8372
 Red. masses --      7.4225                 1.0587                 8.7874
 Frc consts  --      0.0092                 0.0061                 0.0900
 IR Inten    --      0.5649                 0.1898                 6.0046

                      4                      5                      6
                      A                      A                      A
 Frequencies --    196.7245               259.6005               292.5053
 Red. masses --      6.7691                 4.6021                 3.7893
 Frc consts  --      0.1543                 0.1827                 0.1910
 IR Inten    --      3.3738                 2.0921                 2.8480

                      7                      8                      9
                      A                      A                      A
 Frequencies --    358.8916               401.4151               416.5294
 Red. masses --     11.9312                14.6766                12.0997
 Frc consts  --      0.9054                 1.3934                 1.2369
 IR Inten    --      0.0971                 3.5441                 4.3739

                     10                     11                     12
                      A                      A                      A
 Frequencies --    478.4583               575.5826               642.6912
 Red. masses --     10.5901                13.9580                 8.5480
 Frc consts  --      1.4284                 2.7245                 2.0803
 IR Inten    --     13.2644                 0.1186                10.3804

                     13                     14                     15
                      A                      A                      A
 Frequencies --    646.0761               726.9245               760.5593
 Red. masses --      7.1868                 7.0765                12.5152
 Frc consts  --      1.7675                 2.2032                 4.2654
 IR Inten    --     26.0426                 0.8769                 2.8513

                     16                     17                     18
                      A                      A                      A
 Frequencies --    838.0284               856.2951               995.1684
 Red. masses --     11.7996                12.2130                 1.9333
 Frc consts  --      4.8824                 5.2762                 1.1281
 IR Inten    --     81.9962                 0.7303                 1.6201

                     19                     20                     21
                      A                      A                      A
 Frequencies --   1064.9619              1102.4230              1162.4327
 Red. masses --      1.3943                10.4259                 4.5500
 Frc consts  --      0.9317                 7.4655                 3.6224
 IR Inten    --      0.9972                50.2345                23.1416

                     22                     23                     24
                      A                      A                      A
 Frequencies --   1327.0122              1409.2899              1429.1334
 Red. masses --      5.3688                10.1161                 1.3109
 Frc consts  --      5.5703                11.8376                 1.5775
 IR Inten    --      2.9294               167.3929                12.8825

                     25                     26                     27
                      A                      A                      A
 Frequencies --   1466.7984              1489.0685              1499.7756
 Red. masses --      5.0656                 1.0429                 1.2125
 Frc consts  --      6.4213                 1.3625                 1.6069
 IR Inten    --     20.9443                 9.7927                16.8568

                     28                     29                     30
                      A                      A                      A
 Frequencies --   1566.5414              1669.1470              1736.8678
 Red. masses --     11.8898                14.3226                12.6704
 Frc consts  --     17.1913                23.5105                22.5204
 IR Inten    --    102.7495               179.4458               390.6786

                     31                     32                     33
                      A                      A                      A
 Frequencies --   3070.5220              3138.9890              3166.6873
 Red. masses --      1.0347                 1.1023                 1.1045
 Frc consts  --      5.7475                 6.3990                 6.5255
 IR Inten    --      2.5028                 1.5956                 1.8987

 - Thermochemistry -
 -------------------
 Temperature   298.150 Kelvin.  Pressure   1.00000 Atm.
 Atom     1 has atomic number  6 and mass  12.00000

 Molecular mass:   145.01236 amu.
 Principal axes and moments of inertia in atomic units:
                           1         2         3
     Eigenvalues --   674.579071635.285682298.69100
           X            0.99981  -0.01940   0.00001
           Y            0.01940   0.99981  -0.00008
           Z           -0.00001   0.00008   1.00000
 This molecule is an asymmetric top.
 Rotational symmetry number  1.
 Warning -- assumption of classical behavior for rotation
           may cause significant error
 Rotational temperatures (Kelvin)      0.12840     0.05297     0.03768
 Rotational constants (GHZ):           2.67536     1.10362     0.78512
 Zero-point vibrational energy     209477.9 (Joules/Mol)
                                   50.06641 (Kcal/Mol)
 Warning -- explicit consideration of  11 degrees of freedom as
           vibrations may cause significant error
 Vibrational temperatures:     66.05   142.61   189.68   283.04   373.51
          (Kelvin)            420.85   516.36   577.55   599.29   688.39
                              828.13   924.69   929.56  1045.88  1094.27
                             1205.73  1232.02  1431.82  1532.24  1586.14
                             1672.48  1909.27  2027.65  2056.20  2110.39
                             2142.43  2157.84  2253.90  2401.53  2498.96
                             4417.79  4516.30  4556.15

 Zero-point correction=                           0.079786 (Hartree/Particle)
 Thermal correction to Energy=                    0.088467
 Thermal correction to Enthalpy=                  0.089411
 Thermal correction to Gibbs Free Energy=         0.045216
 Sum of electronic and zero-point Energies=           -580.937996
 Sum of electronic and thermal Energies=              -580.929316
 Sum of electronic and thermal Enthalpies=            -580.928371
 Sum of electronic and thermal Free Energies=         -580.972567

                     E (Thermal)             CV                S
                      KCal/Mol        Cal/Mol-Kelvin    Cal/Mol-Kelvin
 Total                   55.514             30.364             93.017
 Electronic               0.000              0.000              0.000
 Translational            0.889              2.981             40.826
 Rotational               0.889              2.981             29.318
 Vibrational             53.736             24.403             22.873
 Vibration     1          0.595              1.979              4.986
 Vibration     2          0.604              1.950              3.472
 Vibration     3          0.612              1.922              2.919
 Vibration     4          0.636              1.844              2.164
 Vibration     5          0.668              1.747              1.664
 Vibration     6          0.688              1.688              1.459
 Vibration     7          0.734              1.557              1.127
 Vibration     8          0.767              1.467              0.957
 Vibration     9          0.780              1.434              0.904
 Vibration    10          0.835              1.298              0.714
 Vibration    11          0.932              1.084              0.494

 Normal termination of Gaussian 09 at Fri Aug 20 15:54:21 2021.
