 Gaussian 09, Revision E.01,
 Gaussian 09:  ES64L-G09RevE.01 30-Nov-2015

 -------------------------
 #P OPT Freq B3LYP/6-31G**
 -------------------------

 ------
 OXISEV
 ------
 Symbolic Z-matrix:
 Charge =  0 Multiplicity = 1

 SCF Done:  E(RB3LYP) =  -524.066598392     A.U. after   15 cycles
 SCF Done:  E(RB3LYP) =  -524.127317426     A.U. after   14 cycles
 SCF Done:  E(RB3LYP) =  -524.139175538     A.U. after   15 cycles
 SCF Done:  E(RB3LYP) =  -524.127333890     A.U. after   17 cycles
 SCF Done:  E(RB3LYP) =  -524.139824442     A.U. after   11 cycles
 SCF Done:  E(RB3LYP) =  -524.140172185     A.U. after   13 cycles
 SCF Done:  E(RB3LYP) =  -524.140196334     A.U. after   12 cycles
 SCF Done:  E(RB3LYP) =  -524.140218493     A.U. after   10 cycles
 SCF Done:  E(RB3LYP) =  -524.140219828     A.U. after   10 cycles
 SCF Done:  E(RB3LYP) =  -524.140220493     A.U. after    9 cycles
 SCF Done:  E(RB3LYP) =  -524.140220854     A.U. after    9 cycles
 SCF Done:  E(RB3LYP) =  -524.140221071     A.U. after    9 cycles
 SCF Done:  E(RB3LYP) =  -524.140221150     A.U. after    9 cycles
 Optimization completed.
    -- Stationary point found.
 Normal termination of Gaussian 09 at Fri Aug 20 16:00:19 2021.

 ----------------------------------------------------------------------
 #P Geom=AllCheck Guess=TCheck SCRF=Check GenChk RB3LYP/6-31G(d,p) Freq
 ----------------------------------------------------------------------

 Structure from the checkpoint file:  "/public/home/users/caep010/.cache/gau_scr/Gau-93593.chk"
 ------
 OXISEV
 ------
 Charge =  0 Multiplicity = 1

                         Standard orientation:
 ---------------------------------------------------------------------
 Center     Atomic      Atomic             Coordinates (Angstroms)
 Number     Number       Type             X           Y           Z
 ---------------------------------------------------------------------
      1          7           0        1.339775    0.364168    0.000410
      2          7           0        0.359509   -0.565827    0.000682
      3          6           0       -0.720860    0.195611   -0.000101
      4          7           0       -0.529028    1.534338   -0.000868
      5          7           0       -2.054922   -0.403838    0.000017
      6          8           0       -3.005582    0.369496    0.000903
      7          8           0       -2.110701   -1.629916   -0.000693
      8          6           0        0.786130    1.612248   -0.000594
      9          1           0        1.376462    2.517849   -0.000996
     10          6           0        2.712593    0.024770    0.000646
     11          1           0        3.354956    0.898233    0.001807
     12          6           0        3.166289   -1.225086   -0.000408
     13          1           0        2.492733   -2.073398   -0.001427
     14          1           0        4.233859   -1.406472   -0.000011
 ---------------------------------------------------------------------

 SCF Done:  E(RB3LYP) =  -524.140221150     A.U. after    1 cycles

 The electronic state is 1-A.
 Alpha  occ. eigenvalues --  -19.18550 -19.18431 -14.58008 -14.47417 -14.40411
 Alpha  occ. eigenvalues --  -14.36996 -10.30803 -10.29675 -10.27195 -10.22290
 Alpha  occ. eigenvalues --   -1.23188  -1.12843  -1.05901  -0.95745  -0.89430
 Alpha  occ. eigenvalues --   -0.81215  -0.75903  -0.67970  -0.62972  -0.61335
 Alpha  occ. eigenvalues --   -0.56513  -0.54630  -0.52495  -0.51305  -0.50398
 Alpha  occ. eigenvalues --   -0.48853  -0.47855  -0.42316  -0.37377  -0.37003
 Alpha  occ. eigenvalues --   -0.32187  -0.31892  -0.31038  -0.30866  -0.29216
 Alpha  occ. eigenvalues --   -0.27936
 Alpha virt. eigenvalues --   -0.09396  -0.05034   0.02091   0.04845   0.07040
 Alpha virt. eigenvalues --    0.10449   0.11133   0.12847   0.15115   0.19778
 Alpha virt. eigenvalues --    0.21119   0.23848   0.25640   0.29811   0.31594

 Mulliken charges:
               1
     1  N   -0.270628
     2  N   -0.281842
     3  C    0.624034
     4  N   -0.449462
     5  N    0.374190
     6  O   -0.366066
     7  O   -0.376154
     8  C    0.299210
     9  H    0.149982
    10  C    0.127484
    11  H    0.127250
    12  C   -0.242663
    13  H    0.157079
    14  H    0.127585
 Sum of Mulliken charges =  -0.00000

 Dipole moment (field-independent basis, Debye):
    X=              6.7929    Y=              1.6202    Z=             -0.0001  Tot=              6.9835
 Quadrupole moment (field-independent basis, Debye-Ang):
   XX=            -54.1303   YY=            -56.4579   ZZ=            -55.3627
   XY=              2.3680   XZ=              0.0024   YZ=              0.0024

  Exact polarizability: 110.357 -10.544  84.203  -0.001   0.012  29.003
 Approx polarizability: 163.461 -32.249 168.478  -0.007   0.032  45.146

                      1                      2                      3
                      A                      A                      A
 Frequencies --     38.2446               104.0222               151.5363
 Red. masses --     10.3430                 3.7099                 5.0985
 Frc consts  --      0.0089                 0.0237                 0.0690
 IR Inten    --      0.0307                 0.0320                 0.2140

                      4                      5                      6
                      A                      A                      A
 Frequencies --    163.8780               284.9780               294.4653
 Red. masses --      3.4056                 5.7104                 3.5105
 Frc consts  --      0.0539                 0.2732                 0.1793
 IR Inten    --      0.3238                 0.4269                 0.3949

                      7                      8                      9
                      A                      A                      A
 Frequencies --    421.9397               497.0193               551.0919
 Red. masses --     10.0215                 3.9869                 7.6572
 Frc consts  --      1.0512                 0.5803                 1.3702
 IR Inten    --      1.4623                 0.2619                 0.0382

                     10                     11                     12
                      A                      A                      A
 Frequencies --    624.8635               664.3338               717.0140
 Red. masses --      2.7246                 7.2964                 3.4286
 Frc consts  --      0.6268                 1.8973                 1.0385
 IR Inten    --      2.1009                28.2122                10.8634

                     13                     14                     15
                      A                      A                      A
 Frequencies --    724.1345               782.7033               845.6562
 Red. masses --      2.3648                12.7664                13.6991
 Frc consts  --      0.7306                 4.6080                 5.7720
 IR Inten    --      2.5293                 0.2668                77.5158

                     16                     17                     18
                      A                      A                      A
 Frequencies --    850.8500               938.6745               986.9234
 Red. masses --      1.4229                 1.3773                 1.0639
 Frc consts  --      0.6069                 0.7150                 0.6105
 IR Inten    --     10.7854                27.8331                32.9820

                     19                     20                     21
                      A                      A                      A
 Frequencies --   1020.9072              1039.4839              1069.0139
 Red. masses --      3.1917                 6.8495                 2.4689
 Frc consts  --      1.9599                 4.3606                 1.6623
 IR Inten    --     10.9675                31.8921                 7.7624

                     22                     23                     24
                      A                      A                      A
 Frequencies --   1221.5039              1299.2126              1352.1679
 Red. masses --      1.4693                 3.8847                 2.4065
 Frc consts  --      1.2917                 3.8634                 2.5924
 IR Inten    --     27.5214                37.1310                25.4618

                     25                     26                     27
                      A                      A                      A
 Frequencies --   1363.6217              1383.8277              1423.0034
 Red. masses --      3.0879                 3.4547                 4.5555
 Frc consts  --      3.3830                 3.8978                 5.4350
 IR Inten    --    133.9169                21.9634                46.5202

                     28                     29                     30
                      A                      A                      A
 Frequencies --   1456.4825              1463.4469              1554.5005
 Red. masses --      7.4002                 1.7152                 6.3485
 Frc consts  --      9.2492                 2.1643                 9.0387
 IR Inten    --     76.1121                 3.0101                68.8263

                     31                     32                     33
                      A                      A                      A
 Frequencies --   1667.2187              1730.1710              3192.7643
 Red. masses --     14.4070                 4.7603                 1.0580
 Frc consts  --     23.5944                 8.3959                 6.3540
 IR Inten    --    187.9883                35.8680                 0.9658

                     34                     35                     36
                      A                      A                      A
 Frequencies --   3223.0289              3272.8545              3292.3100
 Red. masses --      1.0960                 1.0989                 1.1186
 Frc consts  --      6.7081                 6.9350                 7.1440
 IR Inten    --      3.9988                 1.0582                 1.3755

 - Thermochemistry -
 -------------------
 Temperature   298.150 Kelvin.  Pressure   1.00000 Atm.
 Atom     1 has atomic number  7 and mass  14.00307

 Molecular mass:   140.03343 amu.
 Principal axes and moments of inertia in atomic units:
                           1         2         3
     Eigenvalues --   533.561692016.621572550.18285
           X            0.99994  -0.01108   0.00000
           Y            0.01108   0.99994   0.00001
           Z           -0.00000  -0.00001   1.00000
 This molecule is an asymmetric top.
 Rotational symmetry number  1.
 Warning -- assumption of classical behavior for rotation
           may cause significant error
 Rotational temperatures (Kelvin)      0.16233     0.04295     0.03396
 Rotational constants (GHZ):           3.38244     0.89493     0.70769
 Zero-point vibrational energy     249229.1 (Joules/Mol)
                                   59.56718 (Kcal/Mol)
 Warning -- explicit consideration of   9 degrees of freedom as
           vibrations may cause significant error
 Vibrational temperatures:     55.03   149.66   218.03   235.78   410.02
          (Kelvin)            423.67   607.08   715.10   792.90   899.04
                              955.83  1031.62  1041.87  1126.13  1216.71
                             1224.18  1350.54  1419.96  1468.86  1495.58
                             1538.07  1757.47  1869.27  1945.47  1961.95
                             1991.02  2047.38  2095.55  2105.57  2236.58
                             2398.75  2489.33  4593.67  4637.21  4708.90
                             4736.89

 Zero-point correction=                           0.094926 (Hartree/Particle)
 Thermal correction to Energy=                    0.103133
 Thermal correction to Enthalpy=                  0.104077
 Thermal correction to Gibbs Free Energy=         0.060563
 Sum of electronic and zero-point Energies=           -524.045295
 Sum of electronic and thermal Energies=              -524.037088
 Sum of electronic and thermal Enthalpies=            -524.036144
 Sum of electronic and thermal Free Energies=         -524.079658

                     E (Thermal)             CV                S
                      KCal/Mol        Cal/Mol-Kelvin    Cal/Mol-Kelvin
 Total                   64.717             29.108             91.582
 Electronic               0.000              0.000              0.000
 Translational            0.889              2.981             40.722
 Rotational               0.889              2.981             29.397
 Vibrational             62.939             23.147             21.464
 Vibration     1          0.594              1.982              5.348
 Vibration     2          0.605              1.946              3.378
 Vibration     3          0.619              1.901              2.653
 Vibration     4          0.623              1.887              2.505
 Vibration     5          0.683              1.702              1.504
 Vibration     6          0.689              1.684              1.448
 Vibration     7          0.784              1.423              0.885
 Vibration     8          0.853              1.257              0.666
 Vibration     9          0.906              1.137              0.542

 Normal termination of Gaussian 09 at Fri Aug 20 16:00:34 2021.
