 Gaussian 09, Revision E.01,
 Gaussian 09:  ES64L-G09RevE.01 30-Nov-2015

 -------------------------
 #P OPT Freq B3LYP/6-31G**
 -------------------------

 ------
 HEHTUJ
 ------
 Symbolic Z-matrix:
 Charge =  0 Multiplicity = 1

 SCF Done:  E(RB3LYP) =  -469.914920094     A.U. after   15 cycles
 SCF Done:  E(RB3LYP) =  -469.999615248     A.U. after   14 cycles
 SCF Done:  E(RB3LYP) =  -470.027854826     A.U. after   15 cycles
 SCF Done:  E(RB3LYP) =  -470.028681202     A.U. after   15 cycles
 SCF Done:  E(RB3LYP) =  -470.026258546     A.U. after   15 cycles
 SCF Done:  E(RB3LYP) =  -470.029297431     A.U. after   11 cycles
 SCF Done:  E(RB3LYP) =  -470.029610920     A.U. after   12 cycles
 SCF Done:  E(RB3LYP) =  -470.029681722     A.U. after   11 cycles
 SCF Done:  E(RB3LYP) =  -470.029694559     A.U. after   10 cycles
 SCF Done:  E(RB3LYP) =  -470.029702489     A.U. after   10 cycles
 SCF Done:  E(RB3LYP) =  -470.029706705     A.U. after   10 cycles
 SCF Done:  E(RB3LYP) =  -470.029708429     A.U. after    9 cycles
 SCF Done:  E(RB3LYP) =  -470.029709041     A.U. after    9 cycles
 SCF Done:  E(RB3LYP) =  -470.029709117     A.U. after    8 cycles
 Optimization completed.
    -- Stationary point found.
 Normal termination of Gaussian 09 at Fri Aug 20 16:01:30 2021.

 ----------------------------------------------------------------------
 #P Geom=AllCheck Guess=TCheck SCRF=Check GenChk RB3LYP/6-31G(d,p) Freq
 ----------------------------------------------------------------------

 Structure from the checkpoint file:  "/public/home/users/caep010/.cache/gau_scr/Gau-185445.chk"
 ------
 HEHTUJ
 ------
 Charge =  0 Multiplicity = 1

                         Standard orientation:
 ---------------------------------------------------------------------
 Center     Atomic      Atomic             Coordinates (Angstroms)
 Number     Number       Type             X           Y           Z
 ---------------------------------------------------------------------
      1          7           0       -1.793378   -1.273386    0.000107
      2          7           0       -2.086474    0.055867   -0.000008
      3          6           0       -0.909464    0.675493   -0.000020
      4          1           0       -2.553470   -1.936322    0.000001
      5          6           0       -0.476781   -1.538436    0.000088
      6          1           0       -0.056503   -2.531637    0.000303
      7          6           0       -0.824607    2.166604   -0.000161
      8          1           0       -0.279599    2.526974    0.876595
      9          1           0       -0.279941    2.526799   -0.877255
     10          6           0        0.133612   -0.295366   -0.000004
     11          7           0        1.546755   -0.087453    0.000023
     12          8           0        1.954498    1.077869    0.000400
     13          8           0        2.270148   -1.088629   -0.000369
     14          1           0       -1.832538    2.585299   -0.000165
 ---------------------------------------------------------------------

 SCF Done:  E(RB3LYP) =  -470.029709117     A.U. after    1 cycles

 The electronic state is 1-A.
 Alpha  occ. eigenvalues --  -19.17606 -19.17435 -14.57165 -14.44447 -14.37521
 Alpha  occ. eigenvalues --  -10.26445 -10.24618 -10.24570 -10.19359  -1.21904
 Alpha  occ. eigenvalues --   -1.07554  -1.04506  -0.86316  -0.84165  -0.74115
 Alpha  occ. eigenvalues --   -0.72566  -0.60700  -0.58771  -0.57336  -0.53139
 Alpha  occ. eigenvalues --   -0.52572  -0.50494  -0.46983  -0.46900  -0.41697
 Alpha  occ. eigenvalues --   -0.41551  -0.39322  -0.32628  -0.30437  -0.30006
 Alpha  occ. eigenvalues --   -0.28463  -0.28320  -0.28012
 Alpha virt. eigenvalues --   -0.07765  -0.00429   0.05388   0.06443   0.11295
 Alpha virt. eigenvalues --    0.12273   0.14686   0.17904   0.18600   0.18643
 Alpha virt. eigenvalues --    0.22879   0.24569   0.27227   0.29458   0.34523

 Mulliken charges:
               1
     1  N   -0.329560
     2  N   -0.339353
     3  C    0.326841
     4  H    0.294880
     5  C    0.167721
     6  H    0.163301
     7  C   -0.355202
     8  H    0.141263
     9  H    0.141236
    10  C    0.148582
    11  N    0.336670
    12  O   -0.411709
    13  O   -0.412628
    14  H    0.127957
 Sum of Mulliken charges =  -0.00000

 Dipole moment (field-independent basis, Debye):
    X=             -3.7275    Y=             -2.3039    Z=              0.0000  Tot=              4.3820
 Quadrupole moment (field-independent basis, Debye-Ang):
   XX=            -58.9541   YY=            -42.3348   ZZ=            -50.3240
   XY=              5.8987   XZ=              0.0007   YZ=             -0.0025

  Exact polarizability:  81.409   1.878  82.459  -0.001   0.001  31.870
 Approx polarizability: 136.416   3.777 149.308  -0.003   0.011  48.368

                      1                      2                      3
                      A                      A                      A
 Frequencies --     77.1305               145.2481               199.1123
 Red. masses --      8.2574                 1.0761                 5.0234
 Frc consts  --      0.0289                 0.0134                 0.1173
 IR Inten    --      0.2654                 1.0811                 2.8630

                      4                      5                      6
                      A                      A                      A
 Frequencies --    210.4469               279.3111               338.5683
 Red. masses --      5.7480                 3.3036                 3.9295
 Frc consts  --      0.1500                 0.1518                 0.2654
 IR Inten    --      5.7157                 6.1758                 5.3087

                      7                      8                      9
                      A                      A                      A
 Frequencies --    443.3894               549.6554               554.7044
 Red. masses --      9.1202                 5.3183                 2.0144
 Frc consts  --      1.0564                 0.9467                 0.3652
 IR Inten    --      0.5955                 4.0154                56.1146

                     10                     11                     12
                      A                      A                      A
 Frequencies --    647.4063               686.6967               698.9914
 Red. masses --      2.1778                 3.1098                 4.9823
 Frc consts  --      0.5378                 0.8640                 1.4342
 IR Inten    --     20.7745                21.5317                 8.3828

                     13                     14                     15
                      A                      A                      A
 Frequencies --    765.6961               839.7684               849.0414
 Red. masses --      5.2485                11.2043                 1.5342
 Frc consts  --      1.8130                 4.6554                 0.6516
 IR Inten    --     24.9376                33.7830                 5.5214

                     16                     17                     18
                      A                      A                      A
 Frequencies --    940.7273              1013.4571              1070.0948
 Red. masses --      4.0553                 1.7949                 1.5210
 Frc consts  --      2.1145                 1.0862                 1.0262
 IR Inten    --      0.4902                18.2079                 2.6796

                     19                     20                     21
                      A                      A                      A
 Frequencies --   1070.1272              1141.2875              1210.2774
 Red. masses --      1.9685                 2.8426                 3.0531
 Frc consts  --      1.3282                 2.1815                 2.6349
 IR Inten    --     12.8601                10.7483                24.9992

                     22                     23                     24
                      A                      A                      A
 Frequencies --   1308.8227              1415.2741              1423.6794
 Red. masses --      2.5531                 5.1126                 1.4693
 Frc consts  --      2.5768                 6.0336                 1.7546
 IR Inten    --     10.4242               152.8619                47.3054

                     25                     26                     27
                      A                      A                      A
 Frequencies --   1433.3146              1487.8084              1494.5455
 Red. masses --      3.2094                 1.0433                 1.4870
 Frc consts  --      3.8847                 1.3606                 1.9569
 IR Inten    --     78.0538                 7.2221                10.5467

                     28                     29                     30
                      A                      A                      A
 Frequencies --   1507.5052              1511.9511              1588.1452
 Red. masses --      2.2610                 5.6129                 4.7356
 Frc consts  --      3.0274                 7.5599                 7.0373
 IR Inten    --      1.2383                74.4807                41.5470

                     31                     32                     33
                      A                      A                      A
 Frequencies --   1631.0154              3065.5171              3128.4947
 Red. masses --     10.5082                 1.0355                 1.1007
 Frc consts  --     16.4700                 5.7331                 6.3475
 IR Inten    --    245.6165                 7.3798                 6.2295

                     34                     35                     36
                      A                      A                      A
 Frequencies --   3158.3128              3303.2984              3672.4239
 Red. masses --      1.1044                 1.1000                 1.0822
 Frc consts  --      6.4908                 7.0717                 8.5992
 IR Inten    --      9.0811                 6.5169               114.9795

 - Thermochemistry -
 -------------------
 Temperature   298.150 Kelvin.  Pressure   1.00000 Atm.
 Atom     1 has atomic number  7 and mass  14.00307

 Molecular mass:   127.03818 amu.
 Principal axes and moments of inertia in atomic units:
                           1         2         3
     Eigenvalues --   653.344621126.829961769.10401
           X            0.99996  -0.00895   0.00000
           Y            0.00895   0.99996  -0.00002
           Z           -0.00000   0.00002   1.00000
 This molecule is an asymmetric top.
 Rotational symmetry number  1.
 Warning -- assumption of classical behavior for rotation
           may cause significant error
 Rotational temperatures (Kelvin)      0.13257     0.07687     0.04896
 Rotational constants (GHZ):           2.76231     1.60161     1.02014
 Zero-point vibrational energy     268329.8 (Joules/Mol)
                                   64.13237 (Kcal/Mol)
 Warning -- explicit consideration of   9 degrees of freedom as
           vibrations may cause significant error
 Vibrational temperatures:    110.97   208.98   286.48   302.79   401.87
          (Kelvin)            487.12   637.94   790.83   798.09   931.47
                              988.00  1005.69  1101.66  1208.24  1221.58
                             1353.50  1458.14  1539.63  1539.67  1642.06
                             1741.32  1883.10  2036.26  2048.35  2062.22
                             2140.62  2150.31  2168.96  2175.36  2284.98
                             2346.66  4410.59  4501.20  4544.10  4752.70
                             5283.79

 Zero-point correction=                           0.102201 (Hartree/Particle)
 Thermal correction to Energy=                    0.109859
 Thermal correction to Enthalpy=                  0.110803
 Thermal correction to Gibbs Free Energy=         0.069569
 Sum of electronic and zero-point Energies=           -469.927508
 Sum of electronic and thermal Energies=              -469.919850
 Sum of electronic and thermal Enthalpies=            -469.918906
 Sum of electronic and thermal Free Energies=         -469.960140

                     E (Thermal)             CV                S
                      KCal/Mol        Cal/Mol-Kelvin    Cal/Mol-Kelvin
 Total                   68.937             27.650             86.784
 Electronic               0.000              0.000              0.000
 Translational            0.889              2.981             40.431
 Rotational               0.889              2.981             28.656
 Vibrational             67.160             21.688             17.697
 Vibration     1          0.599              1.964              3.963
 Vibration     2          0.617              1.908              2.734
 Vibration     3          0.637              1.841              2.141
 Vibration     4          0.643              1.825              2.040
 Vibration     5          0.680              1.712              1.538
 Vibration     6          0.719              1.598              1.219
 Vibration     7          0.803              1.375              0.816
 Vibration     8          0.905              1.140              0.545
 Vibration     9          0.910              1.129              0.535

 Optimization completed.
    -- Stationary point found.
 Normal termination of Gaussian 09 at Fri Aug 20 16:01:45 2021.
