 Gaussian 09, Revision E.01,
 Gaussian 09:  ES64L-G09RevE.01 30-Nov-2015

 -------------------------
 #P OPT Freq B3LYP/6-31G**
 -------------------------

 --------
 DNOPHL03
 --------
 Symbolic Z-matrix:
 Charge =  0 Multiplicity = 1

 SCF Done:  E(RB3LYP) =  -716.367460432     A.U. after   15 cycles
 SCF Done:  E(RB3LYP) =  -716.444857566     A.U. after   14 cycles
 SCF Done:  E(RB3LYP) =  -716.462896420     A.U. after   15 cycles
 SCF Done:  E(RB3LYP) =  -716.447364410     A.U. after   17 cycles
 SCF Done:  E(RB3LYP) =  -716.464640956     A.U. after   13 cycles
 SCF Done:  E(RB3LYP) =  -716.465261999     A.U. after   14 cycles
 SCF Done:  E(RB3LYP) =  -716.463008144     A.U. after   15 cycles
 SCF Done:  E(RB3LYP) =  -716.465322766     A.U. after   10 cycles
 SCF Done:  E(RB3LYP) =  -716.465434149     A.U. after   12 cycles
 SCF Done:  E(RB3LYP) =  -716.465449171     A.U. after   11 cycles
 SCF Done:  E(RB3LYP) =  -716.465405555     A.U. after   14 cycles
 SCF Done:  E(RB3LYP) =  -716.465524499     A.U. after   16 cycles
 SCF Done:  E(RB3LYP) =  -716.465558798     A.U. after   14 cycles
 SCF Done:  E(RB3LYP) =  -716.465541362     A.U. after   15 cycles
 SCF Done:  E(RB3LYP) =  -716.465574005     A.U. after   15 cycles
 SCF Done:  E(RB3LYP) =  -716.465561200     A.U. after   13 cycles
 SCF Done:  E(RB3LYP) =  -716.465578007     A.U. after   13 cycles
 SCF Done:  E(RB3LYP) =  -716.465577907     A.U. after   11 cycles
 SCF Done:  E(RB3LYP) =  -716.465578671     A.U. after   10 cycles
 Optimization completed.
    -- Stationary point found.
 Normal termination of Gaussian 09 at Fri Aug 20 15:40:23 2021.

 ----------------------------------------------------------------------
 #P Geom=AllCheck Guess=TCheck SCRF=Check GenChk RB3LYP/6-31G(d,p) Freq
 ----------------------------------------------------------------------

 Structure from the checkpoint file:  "/public/home/users/caep010/.cache/gau_scr/Gau-111064.chk"
 --------
 DNOPHL03
 --------
 Charge =  0 Multiplicity = 1

                         Standard orientation:
 ---------------------------------------------------------------------
 Center     Atomic      Atomic             Coordinates (Angstroms)
 Number     Number       Type             X           Y           Z
 ---------------------------------------------------------------------
      1          8           0        2.436782    1.743456    0.092444
      2          1           0        2.384328    2.708172    0.153684
      3          6           0        1.195945    1.232945    0.040114
      4          6           0        0.058945    2.062894    0.047035
      5          6           0        0.995082   -0.166306    0.009699
      6          6           0       -0.286793   -0.704982   -0.003985
      7          1           0       -0.418788   -1.778464   -0.009162
      8          6           0       -1.220444    1.534770    0.017215
      9          1           0       -2.096032    2.171558    0.016746
     10          7           0        2.117727   -1.118174   -0.014164
     11          8           0        1.877122   -2.268782    0.352086
     12          1           0        0.198168    3.140423    0.076142
     13          6           0       -1.380116    0.148333   -0.007995
     14          7           0       -2.732132   -0.419460   -0.036299
     15          8           0       -2.836085   -1.644118   -0.065510
     16          8           0       -3.676692    0.370357   -0.028949
     17          8           0        3.206054   -0.716435   -0.412155
 ---------------------------------------------------------------------

 SCF Done:  E(RB3LYP) =  -716.465578671     A.U. after    1 cycles

 The electronic state is 1-A.
 Alpha  occ. eigenvalues --  -19.23446 -19.19403 -19.19391 -19.19260 -19.19118
 Alpha  occ. eigenvalues --  -14.58664 -14.58662 -10.32210 -10.28097 -10.27393
 Alpha  occ. eigenvalues --  -10.25298 -10.25208 -10.24678  -1.23783  -1.23732
 Alpha  occ. eigenvalues --   -1.12194  -1.06525  -1.06373  -0.92387  -0.84714
 Alpha  occ. eigenvalues --   -0.82033  -0.73363  -0.72598  -0.66961  -0.61029
 Alpha  occ. eigenvalues --   -0.59850  -0.57009  -0.55243  -0.54578  -0.54213
 Alpha  occ. eigenvalues --   -0.53674  -0.51731  -0.50820  -0.48787  -0.46991
 Alpha  occ. eigenvalues --   -0.46190  -0.43232  -0.40715  -0.39075  -0.32439
 Alpha  occ. eigenvalues --   -0.32320  -0.31872  -0.31783  -0.31219  -0.30426
 Alpha  occ. eigenvalues --   -0.29652  -0.28159
 Alpha virt. eigenvalues --   -0.10362  -0.09832  -0.03660  -0.00524   0.02730
 Alpha virt. eigenvalues --    0.05479   0.11954   0.12511   0.12712   0.17049
 Alpha virt. eigenvalues --    0.18020   0.19781   0.25174   0.25465   0.25784

 Mulliken charges:
               1
     1  O   -0.504247
     2  H    0.333568
     3  C    0.351532
     4  C   -0.146449
     5  C    0.227684
     6  C   -0.092804
     7  H    0.183862
     8  C   -0.071198
     9  H    0.153225
    10  N    0.370820
    11  O   -0.383721
    12  H    0.109598
    13  C    0.229219
    14  N    0.389563
    15  O   -0.389023
    16  O   -0.395799
    17  O   -0.365828
 Sum of Mulliken charges =  -0.00000

 Dipole moment (field-independent basis, Debye):
    X=              0.8751    Y=              6.0196    Z=              0.2345  Tot=              6.0874
 Quadrupole moment (field-independent basis, Debye-Ang):
   XX=            -93.7001   YY=            -63.7462   ZZ=            -70.5173
   XY=              5.8126   XZ=              1.0726   YZ=              1.5032

  Exact polarizability: 136.026   3.704 113.391  -1.704  -1.294  35.589
 Approx polarizability: 235.851  12.011 223.401  -8.437  -8.113  58.987

                      1                      2                      3
                      A                      A                      A
 Frequencies --     38.1762                58.8665               109.9979
 Red. masses --     14.6230                14.9099                 7.4452
 Frc consts  --      0.0126                 0.0304                 0.0531
 IR Inten    --      0.6923                 0.6471                 1.4949

                      4                      5                      6
                      A                      A                      A
 Frequencies --    154.4585               166.2930               276.4371
 Red. masses --      5.8106                13.0803                 8.4507
 Frc consts  --      0.0817                 0.2131                 0.3805
 IR Inten    --      0.6898                 3.8127                 0.3741

                      7                      8                      9
                      A                      A                      A
 Frequencies --    311.4745               350.4888               355.6711
 Red. masses --      7.1230                12.2936                 9.4268
 Frc consts  --      0.4072                 0.8898                 0.7026
 IR Inten    --      1.9303                 0.5618                 1.4972

                     10                     11                     12
                      A                      A                      A
 Frequencies --    402.5168               427.2697               463.1082
 Red. masses --      6.6060                 1.3940                 2.4670
 Frc consts  --      0.6306                 0.1499                 0.3117
 IR Inten    --      5.2348                81.0324                32.2027

                     13                     14                     15
                      A                      A                      A
 Frequencies --    520.4914               539.1284               589.7663
 Red. masses --      6.0387                 4.5828                 4.6291
 Frc consts  --      0.9639                 0.7848                 0.9486
 IR Inten    --      6.1153                 6.3762                 3.7878

                     16                     17                     18
                      A                      A                      A
 Frequencies --    652.7675               684.2927               724.1774
 Red. masses --      8.1067                 5.6958                 8.0359
 Frc consts  --      2.0352                 1.5714                 2.4830
 IR Inten    --     10.2166                 8.7414                50.8937

                     19                     20                     21
                      A                      A                      A
 Frequencies --    749.7052               774.6706               828.7080
 Red. masses --      6.5553                 6.0348                 5.0328
 Frc consts  --      2.1708                 2.1338                 2.0364
 IR Inten    --     29.2614                 1.6384                 5.8540

                     22                     23                     24
                      A                      A                      A
 Frequencies --    832.5016               844.7666               941.4756
 Red. masses --      1.7839                13.1449                 7.7056
 Frc consts  --      0.7284                 5.5269                 4.0241
 IR Inten    --     22.6964                20.1888                49.6568

                     25                     26                     27
                      A                      A                      A
 Frequencies --    963.5214               982.4225              1082.6994
 Red. masses --      1.4217                 1.3161                 1.9248
 Frc consts  --      0.7776                 0.7484                 1.3294
 IR Inten    --     12.3046                 0.2027                71.8089

                     28                     29                     30
                      A                      A                      A
 Frequencies --   1143.8885              1167.2972              1205.3718
 Red. masses --      1.9586                 1.9756                 1.4700
 Frc consts  --      1.5100                 1.5860                 1.2584
 IR Inten    --     26.1598                57.0508                57.6878

                     31                     32                     33
                      A                      A                      A
 Frequencies --   1302.7728              1335.8370              1384.7816
 Red. masses --      1.5798                 3.5085                 8.9331
 Frc consts  --      1.5798                 3.6887                10.0929
 IR Inten    --     51.8242               140.7840               323.0089

                     34                     35                     36
                      A                      A                      A
 Frequencies --   1397.5929              1411.8140              1467.2001
 Red. masses --      7.5166                 7.3329                 4.6204
 Frc consts  --      8.6503                 8.6116                 5.8601
 IR Inten    --    254.1799                70.6181                32.2237

                     37                     38                     39
                      A                      A                      A
 Frequencies --   1538.0932              1620.1434              1632.6726
 Red. masses --      3.0326                 8.8475                 9.8530
 Frc consts  --      4.2270                13.6829                15.4745
 IR Inten    --     26.6188                75.1724                39.4151

                     40                     41                     42
                      A                      A                      A
 Frequencies --   1670.0692              1680.3673              3185.3000
 Red. masses --      9.3672                 9.2721                 1.0909
 Frc consts  --     15.3932                15.4255                 6.5213
 IR Inten    --    170.6655               271.3894                 6.6620

                     43                     44                     45
                      A                      A                      A
 Frequencies --   3248.2135              3266.1172              3798.8508
 Red. masses --      1.0930                 1.0914                 1.0660
 Frc consts  --      6.7945                 6.8594                 9.0638
 IR Inten    --      4.0451                20.4992                85.0104

 - Thermochemistry -
 -------------------
 Temperature   298.150 Kelvin.  Pressure   1.00000 Atm.
 Atom     1 has atomic number  8 and mass  15.99491

 Molecular mass:   184.01202 amu.
 Principal axes and moments of inertia in atomic units:
                           1         2         3
     Eigenvalues --  1209.743943264.527454438.42201
           X            0.99998   0.00566   0.00039
           Y           -0.00566   0.99998   0.00216
           Z           -0.00038  -0.00216   1.00000
 This molecule is an asymmetric top.
 Rotational symmetry number  1.
 Warning -- assumption of classical behavior for rotation
           may cause significant error
 Rotational temperatures (Kelvin)      0.07160     0.02653     0.01951
 Rotational constants (GHZ):           1.49184     0.55283     0.40662
 Zero-point vibrational energy     288791.9 (Joules/Mol)
                                   69.02292 (Kcal/Mol)
 Warning -- explicit consideration of  15 degrees of freedom as
           vibrations may cause significant error
 Vibrational temperatures:     54.93    84.70   158.26   222.23   239.26
          (Kelvin)            397.73   448.14   504.27   511.73   579.13
                              614.75   666.31   748.87   775.68   848.54
                              939.19   984.54  1041.93  1078.66  1114.58
                             1192.32  1197.78  1215.43  1354.57  1386.29
                             1413.49  1557.76  1645.80  1679.48  1734.26
                             1874.40  1921.97  1992.39  2010.82  2031.28
                             2110.97  2212.97  2331.02  2349.05  2402.85
                             2417.67  4582.93  4673.45  4699.21  5465.69

 Zero-point correction=                           0.109995 (Hartree/Particle)
 Thermal correction to Energy=                    0.120475
 Thermal correction to Enthalpy=                  0.121419
 Thermal correction to Gibbs Free Energy=         0.072432
 Sum of electronic and zero-point Energies=           -716.355584
 Sum of electronic and thermal Energies=              -716.345103
 Sum of electronic and thermal Enthalpies=            -716.344159
 Sum of electronic and thermal Free Energies=         -716.393146

                     E (Thermal)             CV                S
                      KCal/Mol        Cal/Mol-Kelvin    Cal/Mol-Kelvin
 Total                   75.599             38.708            103.102
 Electronic               0.000              0.000              0.000
 Translational            0.889              2.981             41.536
 Rotational               0.889              2.981             31.239
 Vibrational             73.822             32.747             30.327
 Vibration     1          0.594              1.982              5.352
 Vibration     2          0.596              1.974              4.495
 Vibration     3          0.606              1.941              3.269
 Vibration     4          0.620              1.898              2.617
 Vibration     5          0.624              1.884              2.477
 Vibration     6          0.678              1.717              1.556
 Vibration     7          0.700              1.652              1.354
 Vibration     8          0.727              1.574              1.164
 Vibration     9          0.731              1.564              1.141
 Vibration    10          0.768              1.465              0.953
 Vibration    11          0.789              1.411              0.868
 Vibration    12          0.821              1.332              0.757
 Vibration    13          0.875              1.205              0.609
 Vibration    14          0.894              1.164              0.567
 Vibration    15          0.947              1.054              0.468

 Optimization completed.
    -- Stationary point found.
 Normal termination of Gaussian 09 at Fri Aug 20 15:40:50 2021.
