 Gaussian 09, Revision E.01,
 Gaussian 09:  ES64L-G09RevE.01 30-Nov-2015

 -------------------------
 #P OPT Freq B3LYP/6-31G**
 -------------------------

 ------
 LOJKAX
 ------
 Symbolic Z-matrix:
 Charge =  0 Multiplicity = 1

 SCF Done:  E(RB3LYP) =  -568.157865424     A.U. after   16 cycles
 SCF Done:  E(RB3LYP) =  -568.261663274     A.U. after   15 cycles
 SCF Done:  E(RB3LYP) =  -568.298576871     A.U. after   17 cycles
 SCF Done:  E(RB3LYP) =  -568.298370758     A.U. after   18 cycles
 SCF Done:  E(RB3LYP) =  -568.308917185     A.U. after   14 cycles
 SCF Done:  E(RB3LYP) =  -568.310362027     A.U. after   14 cycles
 SCF Done:  E(RB3LYP) =  -568.310387410     A.U. after   14 cycles
 SCF Done:  E(RB3LYP) =  -568.310763293     A.U. after   14 cycles
 SCF Done:  E(RB3LYP) =  -568.310984621     A.U. after   13 cycles
 SCF Done:  E(RB3LYP) =  -568.310818792     A.U. after   18 cycles
 SCF Done:  E(RB3LYP) =  -568.311501535     A.U. after   12 cycles
 SCF Done:  E(RB3LYP) =  -568.311888966     A.U. after   14 cycles
 SCF Done:  E(RB3LYP) =  -568.312266402     A.U. after   14 cycles
 SCF Done:  E(RB3LYP) =  -568.312290623     A.U. after   12 cycles
 SCF Done:  E(RB3LYP) =  -568.312294799     A.U. after   11 cycles
 SCF Done:  E(RB3LYP) =  -568.312295208     A.U. after   10 cycles
 SCF Done:  E(RB3LYP) =  -568.312295280     A.U. after    9 cycles
 Optimization completed.
    -- Stationary point found.
 Normal termination of Gaussian 09 at Fri Aug 20 15:36:39 2021.

 ----------------------------------------------------------------------
 #P Geom=AllCheck Guess=TCheck SCRF=Check GenChk RB3LYP/6-31G(d,p) Freq
 ----------------------------------------------------------------------

 Structure from the checkpoint file:  "/public/home/users/caep010/.cache/gau_scr/Gau-202942.chk"
 ------
 LOJKAX
 ------
 Charge =  0 Multiplicity = 1

                         Standard orientation:
 ---------------------------------------------------------------------
 Center     Atomic      Atomic             Coordinates (Angstroms)
 Number     Number       Type             X           Y           Z
 ---------------------------------------------------------------------
      1          8           0       -3.155341    0.303302    0.374549
      2          7           0       -2.205990   -0.381539   -0.003542
      3          8           0       -2.297579   -1.546234   -0.387994
      4          6           0       -0.872252    0.255791   -0.011597
      5          6           0       -0.873984    1.650992   -0.053907
      6          1           0       -1.826270    2.165749   -0.058273
      7          6           0        0.329732    2.344436   -0.089855
      8          1           0        0.335011    3.427821   -0.135059
      9          6           0        1.523977    1.634053   -0.063733
     10          6           0        0.305551   -0.512693    0.020594
     11          6           0        0.348248   -2.017624    0.095636
     12          1           0       -0.354905   -2.401558    0.836869
     13          1           0        1.353978   -2.356763    0.346819
     14          1           0        0.057348   -2.459539   -0.860998
     15          1           0        2.477202    2.150966   -0.085901
     16          6           0        1.511177    0.231309   -0.001501
     17          6           0        2.777813   -0.444849    0.038438
     18          7           0        3.817338   -0.965849    0.069207
 ---------------------------------------------------------------------

 SCF Done:  E(RB3LYP) =  -568.312295280     A.U. after    1 cycles

 The electronic state is 1-A.
 Alpha  occ. eigenvalues --  -19.19694 -19.19577 -14.58776 -14.35248 -10.27613
 Alpha  occ. eigenvalues --  -10.26388 -10.26303 -10.24548 -10.24506 -10.24211
 Alpha  occ. eigenvalues --  -10.23565 -10.20685  -1.24022  -1.06693  -0.92957
 Alpha  occ. eigenvalues --   -0.90912  -0.83384  -0.82071  -0.74796  -0.70669
 Alpha  occ. eigenvalues --   -0.67169  -0.62136  -0.57678  -0.55057  -0.53336
 Alpha  occ. eigenvalues --   -0.52519  -0.51830  -0.50504  -0.45676  -0.45124
 Alpha  occ. eigenvalues --   -0.42816  -0.40724  -0.40380  -0.40231  -0.37359
 Alpha  occ. eigenvalues --   -0.36830  -0.34721  -0.32331  -0.32045  -0.30947
 Alpha  occ. eigenvalues --   -0.29336  -0.28498
 Alpha virt. eigenvalues --   -0.10309  -0.06927  -0.02866   0.01923   0.06128
 Alpha virt. eigenvalues --    0.06552   0.10923   0.11830   0.12756   0.13708
 Alpha virt. eigenvalues --    0.15945   0.16502   0.18498   0.19281   0.21667

 Mulliken charges:
               1
     1  O   -0.382069
     2  N    0.368889
     3  O   -0.384341
     4  C    0.186220
     5  C   -0.065028
     6  H    0.148732
     7  C   -0.104992
     8  H    0.119042
     9  C   -0.052311
    10  C    0.133764
    11  C   -0.358597
    12  H    0.143599
    13  H    0.132389
    14  H    0.159817
    15  H    0.130195
    16  C    0.063179
    17  C    0.242591
    18  N   -0.481079
 Sum of Mulliken charges =  -0.00000

 Dipole moment (field-independent basis, Debye):
    X=              0.0286    Y=              3.1483    Z=             -0.1562  Tot=              3.1523
 Quadrupole moment (field-independent basis, Debye-Ang):
   XX=            -91.8161   YY=            -60.5309   ZZ=            -67.5278
   XY=              3.8533   XZ=              0.1587   YZ=             -1.5214

  Exact polarizability: 138.848  -7.765 116.762  -1.187   1.190  42.902
 Approx polarizability: 234.652 -26.769 210.584  -5.019   9.424  69.584

                      1                      2                      3
                      A                      A                      A
 Frequencies --     46.1232                84.3679               146.4681
 Red. masses --     10.4198                 5.1114                 9.9607
 Frc consts  --      0.0131                 0.0214                 0.1259
 IR Inten    --      0.6224                 6.3281                 7.5763

                      4                      5                      6
                      A                      A                      A
 Frequencies --    173.6897               203.8265               234.2302
 Red. masses --      5.1586                 1.1109                 3.5501
 Frc consts  --      0.0917                 0.0272                 0.1148
 IR Inten    --      0.1850                 0.8181                 0.1194

                      7                      8                      9
                      A                      A                      A
 Frequencies --    272.3963               366.6082               378.8749
 Red. masses --      6.3918                 9.5593                 3.5975
 Frc consts  --      0.2794                 0.7570                 0.3043
 IR Inten    --      1.5378                 1.7308                 1.2687

                     10                     11                     12
                      A                      A                      A
 Frequencies --    407.5752               455.9238               491.1952
 Red. masses --      5.5389                 7.7406                 5.1188
 Frc consts  --      0.5421                 0.9480                 0.7277
 IR Inten    --      1.5103                 1.6511                 1.8657

                     13                     14                     15
                      A                      A                      A
 Frequencies --    515.1486               577.9570               623.3376
 Red. masses --      4.5822                 6.1374                 5.7470
 Frc consts  --      0.7165                 1.2079                 1.3156
 IR Inten    --      1.1995                 3.8148                 3.1205

                     16                     17                     18
                      A                      A                      A
 Frequencies --    629.2005               715.1148               754.9426
 Red. masses --      7.2600                 2.9939                 3.6607
 Frc consts  --      1.6934                 0.9021                 1.2293
 IR Inten    --      1.0254                 5.1014                25.1416

                     19                     20                     21
                      A                      A                      A
 Frequencies --    781.2838               826.1372               832.8818
 Red. masses --      6.7083                 5.1269                 1.9046
 Frc consts  --      2.4126                 2.0616                 0.7784
 IR Inten    --     25.6151                 6.7446                13.3352

                     22                     23                     24
                      A                      A                      A
 Frequencies --    903.6360               957.4481               999.6777
 Red. masses --      4.7624                 1.3849                 1.3212
 Frc consts  --      2.2912                 0.7480                 0.7779
 IR Inten    --     22.0291                 0.5437                 0.7222

                     25                     26                     27
                      A                      A                      A
 Frequencies --   1055.3459              1060.8474              1110.3699
 Red. masses --      1.6785                 1.5617                 2.1361
 Frc consts  --      1.1015                 1.0355                 1.5517
 IR Inten    --      1.5205                 2.8013                 5.9465

                     28                     29                     30
                      A                      A                      A
 Frequencies --   1184.8601              1205.2034              1227.1133
 Red. masses --      1.8685                 2.0557                 2.6134
 Frc consts  --      1.5456                 1.7592                 2.3186
 IR Inten    --      1.2373                 4.0380                10.6750

                     31                     32                     33
                      A                      A                      A
 Frequencies --   1265.1494              1337.8739              1396.5357
 Red. masses --      1.9642                 7.4541                13.3972
 Frc consts  --      1.8523                 7.8610                15.3946
 IR Inten    --      3.2985                13.4357               240.3076

                     34                     35                     36
                      A                      A                      A
 Frequencies --   1431.8147              1474.6229              1481.6988
 Red. masses --      1.1890                 1.7568                 2.1865
 Frc consts  --      1.4362                 2.2507                 2.8283
 IR Inten    --      5.4552                 9.1651                12.2751

                     37                     38                     39
                      A                      A                      A
 Frequencies --   1496.2460              1511.0075              1619.6735
 Red. masses --      1.1140                 1.5648                 6.1472
 Frc consts  --      1.4695                 2.1049                 9.5013
 IR Inten    --      8.0160                14.1115                13.6982

                     40                     41                     42
                      A                      A                      A
 Frequencies --   1626.5703              1668.0783              2348.4039
 Red. masses --      7.5896                 8.7648                12.6836
 Frc consts  --     11.8308                14.3690                41.2134
 IR Inten    --    102.8704               107.6244                16.0493

                     43                     44                     45
                      A                      A                      A
 Frequencies --   3074.4954              3139.8971              3163.6240
 Red. masses --      1.0363                 1.0996                 1.1047
 Frc consts  --      5.7712                 6.3870                 6.5140
 IR Inten    --      2.3545                 3.2912                 6.1206

                     46                     47                     48
                      A                      A                      A
 Frequencies --   3210.8560              3224.7694              3247.5857
 Red. masses --      1.0885                 1.0956                 1.0934
 Frc consts  --      6.6118                 6.7125                 6.7944
 IR Inten    --      1.7037                 3.1199                 3.3184

 - Thermochemistry -
 -------------------
 Temperature   298.150 Kelvin.  Pressure   1.00000 Atm.
 Atom     1 has atomic number  8 and mass  15.99491

 Molecular mass:   162.04293 amu.
 Principal axes and moments of inertia in atomic units:
                           1         2         3
     Eigenvalues --  1023.830652514.630933491.11477
           X            1.00000   0.00017  -0.00004
           Y           -0.00017   0.99999  -0.00537
           Z            0.00004   0.00537   0.99999
 This molecule is an asymmetric top.
 Rotational symmetry number  1.
 Warning -- assumption of classical behavior for rotation
           may cause significant error
 Rotational temperatures (Kelvin)      0.08460     0.03444     0.02481
 Rotational constants (GHZ):           1.76273     0.71770     0.51695
 Zero-point vibrational energy     340580.9 (Joules/Mol)
                                   81.40080 (Kcal/Mol)
 Warning -- explicit consideration of  14 degrees of freedom as
           vibrations may cause significant error
 Vibrational temperatures:     66.36   121.39   210.73   249.90   293.26
          (Kelvin)            337.00   391.92   527.47   545.12   586.41
                              655.97   706.72   741.18   831.55   896.84
                              905.28  1028.89  1086.19  1124.09  1188.63
                             1198.33  1300.13  1377.55  1438.31  1518.41
                             1526.32  1597.57  1704.75  1734.02  1765.54
                             1820.27  1924.90  2009.30  2060.06  2121.65
                             2131.83  2152.76  2174.00  2330.35  2340.27
                             2399.99  3378.83  4423.51  4517.61  4551.74
                             4619.70  4639.72  4672.55

 Zero-point correction=                           0.129720 (Hartree/Particle)
 Thermal correction to Energy=                    0.139831
 Thermal correction to Enthalpy=                  0.140775
 Thermal correction to Gibbs Free Energy=         0.093477
 Sum of electronic and zero-point Energies=           -568.182575
 Sum of electronic and thermal Energies=              -568.172464
 Sum of electronic and thermal Enthalpies=            -568.171520
 Sum of electronic and thermal Free Energies=         -568.218818

                     E (Thermal)             CV                S
                      KCal/Mol        Cal/Mol-Kelvin    Cal/Mol-Kelvin
 Total                   87.745             37.582             99.547
 Electronic               0.000              0.000              0.000
 Translational            0.889              2.981             41.157
 Rotational               0.889              2.981             30.575
 Vibrational             85.968             31.620             27.815
 Vibration     1          0.595              1.979              4.977
 Vibration     2          0.601              1.960              3.787
 Vibration     3          0.617              1.907              2.718
 Vibration     4          0.627              1.875              2.395
 Vibration     5          0.640              1.834              2.098
 Vibration     6          0.654              1.788              1.846
 Vibration     7          0.675              1.724              1.581
 Vibration     8          0.740              1.541              1.094
 Vibration     9          0.749              1.515              1.044
 Vibration    10          0.772              1.454              0.935
 Vibration    11          0.814              1.348              0.778
 Vibration    12          0.847              1.270              0.681
 Vibration    13          0.870              1.216              0.621
 Vibration    14          0.934              1.079              0.489

 Normal termination of Gaussian 09 at Fri Aug 20 15:37:05 2021.
