 Gaussian 09, Revision E.01,
 Gaussian 09:  ES64L-G09RevE.01 30-Nov-2015

 -------------------------
 #P OPT Freq B3LYP/6-31G**
 -------------------------

 ------
 BAZPIC
 ------
 Symbolic Z-matrix:
 Charge =  0 Multiplicity = 1

 SCF Done:  E(RB3LYP) =  -625.944241278     A.U. after   15 cycles
 SCF Done:  E(RB3LYP) =  -626.043193664     A.U. after   14 cycles
 SCF Done:  E(RB3LYP) =  -626.090280844     A.U. after   15 cycles
 SCF Done:  E(RB3LYP) =  -626.083005809     A.U. after   17 cycles
 SCF Done:  E(RB3LYP) =  -626.091681630     A.U. after   11 cycles
 SCF Done:  E(RB3LYP) =  -626.091437301     A.U. after   15 cycles
 SCF Done:  E(RB3LYP) =  -626.092801864     A.U. after   10 cycles
 SCF Done:  E(RB3LYP) =  -626.093075187     A.U. after   13 cycles
 SCF Done:  E(RB3LYP) =  -626.093301929     A.U. after   12 cycles
 SCF Done:  E(RB3LYP) =  -626.093315559     A.U. after   10 cycles
 SCF Done:  E(RB3LYP) =  -626.093318188     A.U. after   10 cycles
 SCF Done:  E(RB3LYP) =  -626.093318708     A.U. after    9 cycles
 SCF Done:  E(RB3LYP) =  -626.093318791     A.U. after    7 cycles
 Optimization completed.
    -- Stationary point found.
 Normal termination of Gaussian 09 at Fri Aug 20 15:55:22 2021.

 ----------------------------------------------------------------------
 #P Geom=AllCheck Guess=TCheck SCRF=Check GenChk RB3LYP/6-31G(d,p) Freq
 ----------------------------------------------------------------------

 Structure from the checkpoint file:  "/public/home/users/caep010/.cache/gau_scr/Gau-227445.chk"
 ------
 BAZPIC
 ------
 Charge =  0 Multiplicity = 1

                         Standard orientation:
 ---------------------------------------------------------------------
 Center     Atomic      Atomic             Coordinates (Angstroms)
 Number     Number       Type             X           Y           Z
 ---------------------------------------------------------------------
      1          7           0       -2.604390   -0.154980   -0.147816
      2          6           0       -3.263785    0.401353    1.043685
      3          1           0       -4.313752    0.605251    0.810817
      4          1           0       -3.226690   -0.295890    1.896015
      5          6           0       -1.187362   -0.186470   -0.079590
      6          6           0       -0.492473    1.054927   -0.169066
      7          7           0       -1.222442    2.235305   -0.297807
      8          1           0       -2.100086    2.094035   -0.786891
      9          1           0       -0.694382    3.014566   -0.667782
     10          1           0       -2.784484    1.336507    1.336259
     11          6           0       -3.262934   -1.369055   -0.614577
     12          1           0       -4.306413   -1.134031   -0.845943
     13          1           0       -3.262971   -2.184808    0.128305
     14          1           0       -2.780327   -1.728605   -1.526367
     15          6           0        0.900943    1.063821   -0.108332
     16          1           0        1.458891    1.989821   -0.179636
     17          6           0        1.594287   -0.139614    0.011365
     18          7           0        3.058077   -0.104183    0.062122
     19          8           0        3.658251   -1.177783    0.143100
     20          8           0        3.610214    0.997965    0.021133
     21          6           0       -0.448893   -1.372826    0.018062
     22          6           0        0.943165   -1.367119    0.062430
     23          1           0        1.516886   -2.280102    0.148798
     24          1           0       -0.970795   -2.321287    0.073206
 ---------------------------------------------------------------------

 SCF Done:  E(RB3LYP) =  -626.093318791     A.U. after    1 cycles

 The electronic state is 1-A.
 Alpha  occ. eigenvalues --  -19.16652 -19.16641 -14.55796 -14.36116 -14.35312
 Alpha  occ. eigenvalues --  -10.24411 -10.23868 -10.23857 -10.22392 -10.22011
 Alpha  occ. eigenvalues --  -10.20385 -10.20353 -10.20210  -1.20883  -1.03544
 Alpha  occ. eigenvalues --   -0.96155  -0.92100  -0.86486  -0.78749  -0.74879
 Alpha  occ. eigenvalues --   -0.72534  -0.70738  -0.63779  -0.62387  -0.58214
 Alpha  occ. eigenvalues --   -0.54852  -0.53245  -0.51731  -0.51402  -0.49299
 Alpha  occ. eigenvalues --   -0.48500  -0.47464  -0.46231  -0.44781  -0.43799
 Alpha  occ. eigenvalues --   -0.42707  -0.40706  -0.40003  -0.38637  -0.38028
 Alpha  occ. eigenvalues --   -0.36851  -0.32566  -0.29599  -0.29470  -0.28525
 Alpha  occ. eigenvalues --   -0.27674  -0.24050  -0.21180
 Alpha virt. eigenvalues --   -0.07498  -0.00632   0.01987   0.07261   0.08417
 Alpha virt. eigenvalues --    0.09688   0.12772   0.13476   0.13773   0.14925
 Alpha virt. eigenvalues --    0.14969   0.15938   0.16851   0.17565   0.18614

 Mulliken charges:
               1
     1  N   -0.510559
     2  C   -0.185788
     3  H    0.111070
     4  H    0.103882
     5  C    0.273318
     6  C    0.258692
     7  N   -0.667291
     8  H    0.271466
     9  H    0.262330
    10  H    0.144991
    11  C   -0.166896
    12  H    0.114424
    13  H    0.098832
    14  H    0.124831
    15  C   -0.134871
    16  H    0.122990
    17  C    0.245127
    18  N    0.377658
    19  O   -0.405118
    20  O   -0.408044
    21  C   -0.136858
    22  C   -0.116316
    23  H    0.127709
    24  H    0.094418
 Sum of Mulliken charges =  -0.00000

 Dipole moment (field-independent basis, Debye):
    X=             -6.5080    Y=              0.4715    Z=             -0.9110  Tot=              6.5883
 Quadrupole moment (field-independent basis, Debye-Ang):
   XX=            -87.7735   YY=            -69.0948   ZZ=            -75.3517
   XY=              1.4704   XZ=              0.1242   YZ=             -2.6591

  Exact polarizability: 177.364  -0.099 123.260   0.374  -3.766  57.759
 Approx polarizability: 267.368  -4.559 232.771   4.531  -9.374  86.034

                      1                      2                      3
                      A                      A                      A
 Frequencies --     57.5514                78.9172                95.6290
 Red. masses --      9.0313                 4.6925                 3.1072
 Frc consts  --      0.0176                 0.0172                 0.0167
 IR Inten    --      0.1110                 0.5377                 1.2032

                      4                      5                      6
                      A                      A                      A
 Frequencies --    172.2939               197.1129               224.8752
 Red. masses --      3.8738                 3.7838                 3.2761
 Frc consts  --      0.0678                 0.0866                 0.0976
 IR Inten    --      0.9840                 2.3805                 3.4856

                      7                      8                      9
                      A                      A                      A
 Frequencies --    252.3430               268.0570               288.0623
 Red. masses --      1.9070                 1.5569                 1.1532
 Frc consts  --      0.0715                 0.0659                 0.0564
 IR Inten    --      3.3090                 0.3756                 0.5349

                     10                     11                     12
                      A                      A                      A
 Frequencies --    299.3458               358.4945               387.5382
 Red. masses --      4.6821                 3.4218                 3.6411
 Frc consts  --      0.2472                 0.2591                 0.3222
 IR Inten    --      0.4377                 5.1182                 5.8679

                     13                     14                     15
                      A                      A                      A
 Frequencies --    420.1631               440.7741               465.2970
 Red. masses --      2.9593                 1.2189                 4.5866
 Frc consts  --      0.3078                 0.1395                 0.5851
 IR Inten    --      2.6896                35.2710                 3.5619

                     16                     17                     18
                      A                      A                      A
 Frequencies --    497.5989               550.1259               576.6463
 Red. masses --      3.2879                 6.4290                 4.0698
 Frc consts  --      0.4796                 1.1463                 0.7973
 IR Inten    --     20.3250                 1.7101                 2.1906

                     19                     20                     21
                      A                      A                      A
 Frequencies --    591.2225               633.7892               697.7998
 Red. masses --      3.9999                 5.5533                 1.5528
 Frc consts  --      0.8238                 1.3143                 0.4455
 IR Inten    --      2.7958                 7.0583               189.3980

                     22                     23                     24
                      A                      A                      A
 Frequencies --    737.1803               750.1016               758.7223
 Red. masses --      4.9139                 3.5213                 4.4284
 Frc consts  --      1.5733                 1.1673                 1.5020
 IR Inten    --      9.6607                99.8975                22.9138

                     25                     26                     27
                      A                      A                      A
 Frequencies --    826.1182               841.2564               895.5723
 Red. masses --      6.2575                 1.6950                 1.4860
 Frc consts  --      2.5161                 0.7068                 0.7022
 IR Inten    --     21.0193                 6.9539                27.4491

                     28                     29                     30
                      A                      A                      A
 Frequencies --    947.5278               953.8843               976.3560
 Red. masses --      2.9171                 1.3914                 4.3500
 Frc consts  --      1.5431                 0.7459                 2.4432
 IR Inten    --      8.0182                 5.6620                47.5483

                     31                     32                     33
                      A                      A                      A
 Frequencies --   1074.8034              1091.0981              1123.3815
 Red. masses --      1.6416                 1.8750                 1.2718
 Frc consts  --      1.1173                 1.3152                 0.9456
 IR Inten    --     12.5852                42.0861                27.5659

                     34                     35                     36
                      A                      A                      A
 Frequencies --   1128.9355              1166.5151              1183.5209
 Red. masses --      1.4624                 1.4830                 1.4723
 Frc consts  --      1.0981                 1.1890                 1.2151
 IR Inten    --     36.5307                32.0048                42.6268

                     37                     38                     39
                      A                      A                      A
 Frequencies --   1184.1978              1220.6769              1299.9969
 Red. masses --      1.8655                 2.5697                 2.7939
 Frc consts  --      1.5413                 2.2560                 2.7820
 IR Inten    --     18.6059                18.0684                47.5079

                     40                     41                     42
                      A                      A                      A
 Frequencies --   1311.8581              1356.6209              1390.3313
 Red. masses --      1.6192                 3.2027                10.6598
 Frc consts  --      1.6418                 3.4728                12.1405
 IR Inten    --     16.3048               158.4562               391.1682

                     43                     44                     45
                      A                      A                      A
 Frequencies --   1399.0586              1454.8886              1473.3816
 Red. masses --      6.1157                 1.1554                 2.4519
 Frc consts  --      7.0529                 1.4409                 3.1361
 IR Inten    --     65.9720                 0.1874                 8.1181

                     46                     47                     48
                      A                      A                      A
 Frequencies --   1484.0790              1497.7534              1513.9703
 Red. masses --      1.4151                 1.0540                 1.0941
 Frc consts  --      1.8363                 1.3931                 1.4775
 IR Inten    --      5.3701                13.1238                27.8581

                     49                     50                     51
                      A                      A                      A
 Frequencies --   1518.2848              1532.5787              1549.3072
 Red. masses --      1.0626                 1.1958                 2.0883
 Frc consts  --      1.4432                 1.6549                 2.9534
 IR Inten    --      7.0108                 7.6435                80.3639

                     52                     53                     54
                      A                      A                      A
 Frequencies --   1608.7233              1629.2067              1652.7737
 Red. masses --      7.6624                 1.8261                 3.8414
 Frc consts  --     11.6836                 2.8558                 6.1825
 IR Inten    --    153.9316                68.2482               150.6608

                     55                     56                     57
                      A                      A                      A
 Frequencies --   1673.3763              2971.3129              2989.7190
 Red. masses --      3.5205                 1.0565                 1.0536
 Frc consts  --      5.8082                 5.4957                 5.5485
 IR Inten    --     21.1451                61.3462                96.8214

                     58                     59                     60
                      A                      A                      A
 Frequencies --   3082.3302              3087.0400              3135.5597
 Red. masses --      1.0780                 1.0847                 1.1030
 Frc consts  --      6.0344                 6.0906                 6.3896
 IR Inten    --     29.5763                42.4651                18.9735

                     61                     62                     63
                      A                      A                      A
 Frequencies --   3153.2759              3215.6912              3229.8914
 Red. masses --      1.1005                 1.0892                 1.0909
 Frc consts  --      6.4472                 6.6358                 6.7052
 IR Inten    --      5.8236                 7.7508                 2.6856

                     64                     65                     66
                      A                      A                      A
 Frequencies --   3252.8215              3533.4113              3654.1156
 Red. masses --      1.0930                 1.0487                 1.0969
 Frc consts  --      6.8140                 7.7142                 8.6294
 IR Inten    --      1.3625                13.3500                19.3325

 - Thermochemistry -
 -------------------
 Temperature   298.150 Kelvin.  Pressure   1.00000 Atm.
 Atom     1 has atomic number  7 and mass  14.00307

 Molecular mass:   181.08513 amu.
 Principal axes and moments of inertia in atomic units:
                           1         2         3
     Eigenvalues --   984.279983966.636844733.50344
           X            0.99996   0.00804  -0.00368
           Y           -0.00803   0.99997   0.00222
           Z            0.00369  -0.00219   0.99999
 This molecule is an asymmetric top.
 Rotational symmetry number  1.
 Warning -- assumption of classical behavior for rotation
           may cause significant error
 Rotational temperatures (Kelvin)      0.08800     0.02184     0.01830
 Rotational constants (GHZ):           1.83356     0.45498     0.38127
 Zero-point vibrational energy     508800.8 (Joules/Mol)
                                  121.60630 (Kcal/Mol)
 Warning -- explicit consideration of  19 degrees of freedom as
           vibrations may cause significant error
 Vibrational temperatures:     82.80   113.54   137.59   247.89   283.60
          (Kelvin)            323.54   363.06   385.67   414.46   430.69
                              515.79   557.58   604.52   634.17   669.46
                              715.93   791.51   829.66   850.64   911.88
                             1003.98  1060.64  1079.23  1091.63  1188.60
                             1210.38  1288.53  1363.28  1372.43  1404.76
                             1546.40  1569.84  1616.29  1624.28  1678.35
                             1702.82  1703.79  1756.28  1870.40  1887.47
                             1951.87  2000.37  2012.93  2093.26  2119.86
                             2135.26  2154.93  2178.26  2184.47  2205.04
                             2229.10  2314.59  2344.06  2377.97  2407.61
                             4275.05  4301.53  4434.78  4441.56  4511.37
                             4536.86  4626.66  4647.09  4680.08  5083.78
                             5257.45

 Zero-point correction=                           0.193792 (Hartree/Particle)
 Thermal correction to Energy=                    0.205825
 Thermal correction to Enthalpy=                  0.206769
 Thermal correction to Gibbs Free Energy=         0.155826
 Sum of electronic and zero-point Energies=           -625.899527
 Sum of electronic and thermal Energies=              -625.887494
 Sum of electronic and thermal Enthalpies=            -625.886550
 Sum of electronic and thermal Free Energies=         -625.937493

                     E (Thermal)             CV                S
                      KCal/Mol        Cal/Mol-Kelvin    Cal/Mol-Kelvin
 Total                  129.157             46.303            107.218
 Electronic               0.000              0.000              0.000
 Translational            0.889              2.981             41.488
 Rotational               0.889              2.981             31.292
 Vibrational            127.379             40.341             34.438
 Vibration     1          0.596              1.974              4.539
 Vibration     2          0.600              1.963              3.918
 Vibration     3          0.603              1.952              3.542
 Vibration     4          0.626              1.877              2.410
 Vibration     5          0.636              1.844              2.160
 Vibration     6          0.650              1.803              1.919
 Vibration     7          0.664              1.759              1.714
 Vibration     8          0.673              1.732              1.609
 Vibration     9          0.685              1.696              1.485
 Vibration    10          0.692              1.675              1.421
 Vibration    11          0.733              1.558              1.129
 Vibration    12          0.756              1.497              1.010
 Vibration    13          0.783              1.426              0.891
 Vibration    14          0.801              1.381              0.824
 Vibration    15          0.823              1.327              0.751
 Vibration    16          0.853              1.255              0.664
 Vibration    17          0.905              1.139              0.544
 Vibration    18          0.933              1.082              0.492
 Vibration    19          0.949              1.050              0.465

 Optimization completed.
    -- Stationary point found.
 Normal termination of Gaussian 09 at Fri Aug 20 15:56:05 2021.
