 Gaussian 09, Revision E.01,
 Gaussian 09:  ES64L-G09RevE.01 30-Nov-2015

 -------------------------
 #P OPT Freq B3LYP/6-31G**
 -------------------------

 ------
 JUMFAA
 ------
 Symbolic Z-matrix:
 Charge =  0 Multiplicity = 1

 SCF Done:  E(RB3LYP) =  -734.783826363     A.U. after   20 cycles
 SCF Done:  E(RB3LYP) =  -734.862884821     A.U. after   14 cycles
 SCF Done:  E(RB3LYP) =  -734.893605327     A.U. after   16 cycles
 SCF Done:  E(RB3LYP) =  -734.883931084     A.U. after   17 cycles
 SCF Done:  E(RB3LYP) =  -734.894639762     A.U. after   12 cycles
 SCF Done:  E(RB3LYP) =  -734.894555168     A.U. after   15 cycles
 SCF Done:  E(RB3LYP) =  -734.895533521     A.U. after   10 cycles
 SCF Done:  E(RB3LYP) =  -734.886062324     A.U. after   16 cycles
 SCF Done:  E(RB3LYP) =  -734.895584095     A.U. after   10 cycles
 SCF Done:  E(RB3LYP) =  -734.895576797     A.U. after   14 cycles
 SCF Done:  E(RB3LYP) =  -734.895718483     A.U. after   10 cycles
 SCF Done:  E(RB3LYP) =  -734.895722644     A.U. after   12 cycles
 SCF Done:  E(RB3LYP) =  -734.895723713     A.U. after   10 cycles
 SCF Done:  E(RB3LYP) =  -734.895724290     A.U. after    9 cycles
 SCF Done:  E(RB3LYP) =  -734.895724670     A.U. after    9 cycles
 SCF Done:  E(RB3LYP) =  -734.895725103     A.U. after    9 cycles
 SCF Done:  E(RB3LYP) =  -734.895725762     A.U. after   11 cycles
 SCF Done:  E(RB3LYP) =  -734.895726132     A.U. after   10 cycles
 SCF Done:  E(RB3LYP) =  -734.895726157     A.U. after    8 cycles
 Optimization completed.
    -- Stationary point found.
 Normal termination of Gaussian 09 at Fri Aug 20 15:39:32 2021.

 ----------------------------------------------------------------------
 #P Geom=AllCheck Guess=TCheck SCRF=Check GenChk RB3LYP/6-31G(d,p) Freq
 ----------------------------------------------------------------------

 Structure from the checkpoint file:  "/public/home/users/caep010/.cache/gau_scr/Gau-109223.chk"
 ------
 JUMFAA
 ------
 Charge =  0 Multiplicity = 1

                         Standard orientation:
 ---------------------------------------------------------------------
 Center     Atomic      Atomic             Coordinates (Angstroms)
 Number     Number       Type             X           Y           Z
 ---------------------------------------------------------------------
      1          7           0       -1.509249   -1.250067   -0.035557
      2          8           0       -1.741780   -1.715480   -1.143393
      3          8           0       -1.860759   -1.702960    1.043775
      4          6           0       -0.717512    0.037593    0.003093
      5          6           0        0.404241    0.167505   -1.050893
      6          7           0        1.354355    0.302517    0.062468
      7          1           0        0.509219   -0.732822   -1.663124
      8          6           0        2.687117   -0.011036    0.188334
      9          6           0        3.469081   -0.072743   -1.109584
     10          1           0        3.234525   -0.995315   -1.653498
     11          1           0        0.314676    1.051176   -1.688368
     12          8           0        3.170477   -0.207213    1.292833
     13          1           0        4.532476   -0.072364   -0.871824
     14          6           0        0.350728    0.137791    1.116355
     15          1           0        0.235189    1.001541    1.774898
     16          1           0        0.454629   -0.775699    1.707508
     17          7           0       -1.722201    1.178492   -0.014894
     18          8           0       -1.225589    2.296869    0.007867
     19          8           0       -2.909884    0.901290   -0.052148
     20          1           0        3.237295    0.772183   -1.765006
 ---------------------------------------------------------------------

 SCF Done:  E(RB3LYP) =  -734.895726157     A.U. after    1 cycles

 The electronic state is 1-A.
 Alpha  occ. eigenvalues --  -19.22993 -19.22791 -19.22416 -19.22408 -19.13472
 Alpha  occ. eigenvalues --  -14.61692 -14.61008 -14.39253 -10.34049 -10.31005
 Alpha  occ. eigenvalues --  -10.28531 -10.27530 -10.21134  -1.27784  -1.26239
 Alpha  occ. eigenvalues --   -1.10429  -1.09771  -1.05922  -1.00112  -0.87978
 Alpha  occ. eigenvalues --   -0.78114  -0.75361  -0.73798  -0.72122  -0.61176
 Alpha  occ. eigenvalues --   -0.60547  -0.58801  -0.58059  -0.56569  -0.54566
 Alpha  occ. eigenvalues --   -0.54526  -0.52171  -0.51408  -0.49758  -0.47202
 Alpha  occ. eigenvalues --   -0.46122  -0.45232  -0.42363  -0.41473  -0.40319
 Alpha  occ. eigenvalues --   -0.37704  -0.35649  -0.35541  -0.34418  -0.34010
 Alpha  occ. eigenvalues --   -0.33068  -0.33028  -0.27720  -0.26871
 Alpha virt. eigenvalues --   -0.10944  -0.10828  -0.00312   0.03635   0.05964
 Alpha virt. eigenvalues --    0.07034   0.09379   0.10598   0.12798   0.13209
 Alpha virt. eigenvalues --    0.13760   0.15371   0.15987   0.16540   0.20559

 Mulliken charges:
               1
     1  N    0.438628
     2  O   -0.349646
     3  O   -0.341265
     4  C    0.175737
     5  C    0.010433
     6  N   -0.456045
     7  H    0.157140
     8  C    0.543822
     9  C   -0.403237
    10  H    0.137598
    11  H    0.155441
    12  O   -0.482368
    13  H    0.156771
    14  C    0.028905
    15  H    0.160356
    16  H    0.166832
    17  N    0.468829
    18  O   -0.349863
    19  O   -0.349621
    20  H    0.131555
 Sum of Mulliken charges =  -0.00000

 Dipole moment (field-independent basis, Debye):
    X=              1.8921    Y=              0.3677    Z=             -2.6166  Tot=              3.2498
 Quadrupole moment (field-independent basis, Debye-Ang):
   XX=            -86.3879   YY=            -79.8259   ZZ=            -72.4666
   XY=             -1.2500   XZ=             -9.9443   YZ=              0.4251

  Exact polarizability: 104.074   2.096  73.390   0.630  -0.642  82.612
 Approx polarizability: 149.415  15.252 121.220   8.421  -2.363 155.922

                      1                      2                      3
                      A                      A                      A
 Frequencies --     16.9224                34.9330                68.6822
 Red. masses --     14.6536                 7.1329                 1.2381
 Frc consts  --      0.0025                 0.0051                 0.0034
 IR Inten    --      0.1278                 1.4523                 1.4501

                      4                      5                      6
                      A                      A                      A
 Frequencies --     78.8989                98.1721               136.2581
 Red. masses --      5.8646                 3.9768                 5.5358
 Frc consts  --      0.0215                 0.0226                 0.0606
 IR Inten    --      0.0260                 2.1847                11.0451

                      7                      8                      9
                      A                      A                      A
 Frequencies --    137.4231               187.1419               253.3627
 Red. masses --      4.4430                10.4933                 3.8245
 Frc consts  --      0.0494                 0.2165                 0.1446
 IR Inten    --      5.1693                 7.4104                 3.1791

                     10                     11                     12
                      A                      A                      A
 Frequencies --    283.0161               321.5500               332.7195
 Red. masses --      3.2624                 7.3594                 2.7734
 Frc consts  --      0.1540                 0.4483                 0.1809
 IR Inten    --      3.3402                 0.4902                 4.5081

                     13                     14                     15
                      A                      A                      A
 Frequencies --    407.6783               457.0529               516.6241
 Red. masses --     10.4797                 4.3911                 6.6379
 Frc consts  --      1.0262                 0.5405                 1.0438
 IR Inten    --      4.6315                10.5513                 8.1719

                     16                     17                     18
                      A                      A                      A
 Frequencies --    576.1339               587.4549               633.8701
 Red. masses --      4.7481                 2.8746                 5.0034
 Frc consts  --      0.9286                 0.5845                 1.1844
 IR Inten    --     11.7510                 5.1699                 9.3481

                     19                     20                     21
                      A                      A                      A
 Frequencies --    690.8869               721.5954               733.8591
 Red. masses --      3.5279                 7.1406                 4.6371
 Frc consts  --      0.9922                 2.1907                 1.4714
 IR Inten    --     13.9553                 1.2301                 2.5643

                     22                     23                     24
                      A                      A                      A
 Frequencies --    848.7938               870.5876               898.6638
 Red. masses --     11.7072                 4.9459                 4.9074
 Frc consts  --      4.9694                 2.2086                 2.3350
 IR Inten    --     33.1615                45.6793                 1.4689

                     25                     26                     27
                      A                      A                      A
 Frequencies --    957.5939               974.9725              1054.4482
 Red. masses --      1.4795                 1.9904                 1.7576
 Frc consts  --      0.7993                 1.1147                 1.1514
 IR Inten    --      3.6439                14.9046                 5.9626

                     28                     29                     30
                      A                      A                      A
 Frequencies --   1065.2402              1115.5375              1129.3117
 Red. masses --      2.2940                 4.8814                 1.8464
 Frc consts  --      1.5337                 3.5790                 1.3874
 IR Inten    --      2.5196                 5.7049                 3.8805

                     31                     32                     33
                      A                      A                      A
 Frequencies --   1131.1487              1159.4441              1220.7878
 Red. masses --      1.2543                 3.4298                 6.0110
 Frc consts  --      0.9456                 2.7165                 5.2781
 IR Inten    --      1.6753                 8.6038                28.1892

                     34                     35                     36
                      A                      A                      A
 Frequencies --   1224.4851              1291.8116              1332.1058
 Red. masses --      1.6819                 1.4004                 1.6411
 Frc consts  --      1.4858                 1.3769                 1.7158
 IR Inten    --      5.3420                 0.5243                15.3136

                     37                     38                     39
                      A                      A                      A
 Frequencies --   1386.4446              1393.7214              1426.1998
 Red. masses --     12.5550                 1.4995                 5.1378
 Frc consts  --     14.2191                 1.7161                 6.1573
 IR Inten    --    138.5634                79.1457               296.2255

                     40                     41                     42
                      A                      A                      A
 Frequencies --   1441.8988              1484.2356              1497.0604
 Red. masses --      4.8376                 1.1190                 1.0633
 Frc consts  --      5.9259                 1.4524                 1.4040
 IR Inten    --    132.7174                 9.9920                18.9427

                     43                     44                     45
                      A                      A                      A
 Frequencies --   1500.6239              1519.3750              1685.9426
 Red. masses --      1.0727                 1.1273                14.2072
 Frc consts  --      1.4232                 1.5333                23.7927
 IR Inten    --      7.4030                16.4943               208.8737

                     46                     47                     48
                      A                      A                      A
 Frequencies --   1689.3517              1786.6298              3051.8300
 Red. masses --     13.8205                10.7514                 1.0400
 Frc consts  --     23.2389                20.2202                 5.7071
 IR Inten    --    223.9163               282.5292                 3.1067

                     49                     50                     51
                      A                      A                      A
 Frequencies --   3072.3574              3088.9848              3117.8525
 Red. masses --      1.0553                 1.0570                 1.0991
 Frc consts  --      5.8692                 5.9424                 6.2949
 IR Inten    --     13.6213                 7.2660                 8.8689

                     52                     53                     54
                      A                      A                      A
 Frequencies --   3130.4397              3146.1475              3176.7895
 Red. masses --      1.1119                 1.1118                 1.1012
 Frc consts  --      6.4196                 6.4840                 6.5478
 IR Inten    --      3.8801                 2.3418                 3.9276

 - Thermochemistry -
 -------------------
 Temperature   298.150 Kelvin.  Pressure   1.00000 Atm.
 Atom     1 has atomic number  7 and mass  14.00307

 Molecular mass:   189.03857 amu.
 Principal axes and moments of inertia in atomic units:
                           1         2         3
     Eigenvalues --  1307.901733330.037963733.76929
           X            0.99974  -0.00202  -0.02257
           Y            0.00208   1.00000   0.00232
           Z            0.02257  -0.00236   0.99974
 This molecule is an asymmetric top.
 Rotational symmetry number  1.
 Warning -- assumption of classical behavior for rotation
           may cause significant error
 Rotational temperatures (Kelvin)      0.06622     0.02601     0.02320
 Rotational constants (GHZ):           1.37988     0.54196     0.48336
 Zero-point vibrational energy     371710.0 (Joules/Mol)
                                   88.84081 (Kcal/Mol)
 Warning -- explicit consideration of  17 degrees of freedom as
           vibrations may cause significant error
 Vibrational temperatures:     24.35    50.26    98.82   113.52   141.25
          (Kelvin)            196.04   197.72   269.26   364.53   407.20
                              462.64   478.71   586.56   657.60   743.31
                              828.93   845.22   912.00   994.03  1038.21
                             1055.86  1221.22  1252.58  1292.98  1377.76
                             1402.77  1517.11  1532.64  1605.01  1624.83
                             1627.47  1668.18  1756.44  1761.76  1858.63
                             1916.60  1994.78  2005.25  2051.98  2074.57
                             2135.48  2153.93  2159.06  2186.04  2425.69
                             2430.60  2570.56  4390.90  4420.43  4444.35
                             4485.89  4504.00  4526.60  4570.69

 Zero-point correction=                           0.141577 (Hartree/Particle)
 Thermal correction to Energy=                    0.154196
 Thermal correction to Enthalpy=                  0.155140
 Thermal correction to Gibbs Free Energy=         0.099809
 Sum of electronic and zero-point Energies=           -734.754149
 Sum of electronic and thermal Energies=              -734.741530
 Sum of electronic and thermal Enthalpies=            -734.740586
 Sum of electronic and thermal Free Energies=         -734.795917

                     E (Thermal)             CV                S
                      KCal/Mol        Cal/Mol-Kelvin    Cal/Mol-Kelvin
 Total                   96.760             43.292            116.454
 Electronic               0.000              0.000              0.000
 Translational            0.889              2.981             41.616
 Rotational               0.889              2.981             31.165
 Vibrational             94.982             37.330             43.673
 Vibration     1          0.593              1.986              6.966
 Vibration     2          0.594              1.983              5.528
 Vibration     3          0.598              1.969              4.191
 Vibration     4          0.600              1.963              3.918
 Vibration     5          0.604              1.950              3.490
 Vibration     6          0.614              1.917              2.856
 Vibration     7          0.614              1.916              2.839
 Vibration     8          0.632              1.857              2.256
 Vibration     9          0.665              1.757              1.707
 Vibration    10          0.682              1.705              1.515
 Vibration    11          0.707              1.632              1.302
 Vibration    12          0.715              1.610              1.247
 Vibration    13          0.772              1.454              0.935
 Vibration    14          0.815              1.345              0.775
 Vibration    15          0.872              1.213              0.618
 Vibration    16          0.933              1.083              0.493
 Vibration    17          0.945              1.059              0.472

 Normal termination of Gaussian 09 at Fri Aug 20 15:40:06 2021.
