 Gaussian 09, Revision E.01,
 Gaussian 09:  ES64L-G09RevE.01 30-Nov-2015

 -------------------------
 #P OPT Freq B3LYP/6-31G**
 -------------------------

 ------
 JILKEU
 ------
 Symbolic Z-matrix:
 Charge =  0 Multiplicity = 1

 SCF Done:  E(RB3LYP) =  -607.340345985     A.U. after   16 cycles
 SCF Done:  E(RB3LYP) =  -607.437771936     A.U. after   14 cycles
 SCF Done:  E(RB3LYP) =  -607.497933156     A.U. after   14 cycles
 SCF Done:  E(RB3LYP) =  -607.513102578     A.U. after   14 cycles
 SCF Done:  E(RB3LYP) =  -607.510518745     A.U. after   17 cycles
 SCF Done:  E(RB3LYP) =  -607.518191098     A.U. after   13 cycles
 SCF Done:  E(RB3LYP) =  -607.516148368     A.U. after   15 cycles
 SCF Done:  E(RB3LYP) =  -607.520515093     A.U. after   12 cycles
 SCF Done:  E(RB3LYP) =  -607.521405828     A.U. after   13 cycles
 SCF Done:  E(RB3LYP) =  -607.521617193     A.U. after   13 cycles
 SCF Done:  E(RB3LYP) =  -607.521688545     A.U. after   12 cycles
 SCF Done:  E(RB3LYP) =  -607.521698794     A.U. after   10 cycles
 SCF Done:  E(RB3LYP) =  -607.521700321     A.U. after   10 cycles
 SCF Done:  E(RB3LYP) =  -607.521700506     A.U. after    9 cycles
 Optimization completed.
    -- Stationary point found.
 Normal termination of Gaussian 09 at Fri Aug 20 15:50:07 2021.

 ----------------------------------------------------------------------
 #P Geom=AllCheck Guess=TCheck SCRF=Check GenChk RB3LYP/6-31G(d,p) Freq
 ----------------------------------------------------------------------

 Structure from the checkpoint file:  "/public/home/users/caep010/.cache/gau_scr/Gau-181733.chk"
 ------
 JILKEU
 ------
 Charge =  0 Multiplicity = 1

                         Standard orientation:
 ---------------------------------------------------------------------
 Center     Atomic      Atomic             Coordinates (Angstroms)
 Number     Number       Type             X           Y           Z
 ---------------------------------------------------------------------
      1          6           0       -0.216260   -0.837915    0.746803
      2          6           0        0.760686    0.077005   -0.000240
      3          6           0        0.794793    1.520302   -0.000005
      4          6           0       -0.216517   -0.837668   -0.747346
      5          6           0       -1.675708   -0.406381   -1.127499
      6          1           0       -1.929205   -0.642197   -2.161385
      7          6           0       -1.954975    1.017263   -0.669993
      8          7           0        2.171038   -0.481279   -0.000070
      9          8           0        3.092840    0.320127   -0.000002
     10          8           0        2.286906   -1.704613    0.000148
     11          1           0        0.258684   -1.629036    1.316258
     12          6           0       -1.954305    1.017240    0.670390
     13          6           0       -1.675361   -0.406458    1.127614
     14          1           0       -1.928308   -0.642489    2.161580
     15          6           0       -2.423015   -1.183332    0.000164
     16          7           0        0.893382    2.677392   -0.000030
     17          1           0        0.258322   -1.628636   -1.317134
     18          1           0       -2.033421    1.875628   -1.325723
     19          1           0       -2.032284    1.875536    1.326237
     20          1           0       -2.216949   -2.259145    0.000049
     21          1           0       -3.501774   -1.006908    0.000335
 ---------------------------------------------------------------------

 SCF Done:  E(RB3LYP) =  -607.521700506     A.U. after    1 cycles

 The electronic state is 1-A.
 Alpha  occ. eigenvalues --  -19.20073 -19.20005 -14.58999 -14.34407 -10.30572
 Alpha  occ. eigenvalues --  -10.24251 -10.24222 -10.24168 -10.23139 -10.23138
 Alpha  occ. eigenvalues --  -10.21396 -10.20697 -10.20612  -1.24473  -1.07383
 Alpha  occ. eigenvalues --   -0.95516  -0.90885  -0.86770  -0.76814  -0.74348
 Alpha  occ. eigenvalues --   -0.72753  -0.65481  -0.61404  -0.60823  -0.57621
 Alpha  occ. eigenvalues --   -0.55448  -0.54698  -0.53147  -0.52457  -0.51288
 Alpha  occ. eigenvalues --   -0.48654  -0.41749  -0.41442  -0.39947  -0.38837
 Alpha  occ. eigenvalues --   -0.38140  -0.37296  -0.36884  -0.36272  -0.35891
 Alpha  occ. eigenvalues --   -0.33613  -0.32489  -0.30856  -0.30831  -0.30336
 Alpha  occ. eigenvalues --   -0.26284
 Alpha virt. eigenvalues --   -0.08135  -0.01445  -0.00262   0.01094   0.06443
 Alpha virt. eigenvalues --    0.10644   0.10689   0.11566   0.13530   0.14069
 Alpha virt. eigenvalues --    0.14369   0.15278   0.15535   0.16667   0.16877

 Mulliken charges:
               1
     1  C   -0.063135
     2  C    0.119589
     3  C    0.335730
     4  C   -0.063044
     5  C   -0.121284
     6  H    0.098840
     7  C   -0.058114
     8  N    0.470594
     9  O   -0.375600
    10  O   -0.377255
    11  H    0.151397
    12  C   -0.058138
    13  C   -0.121250
    14  H    0.098841
    15  C   -0.158684
    16  N   -0.477701
    17  H    0.151360
    18  H    0.114551
    19  H    0.114567
    20  H    0.104535
    21  H    0.114199
 Sum of Mulliken charges =  -0.00000

 Dipole moment (field-independent basis, Debye):
    X=             -4.8365    Y=             -2.8066    Z=             -0.0003  Tot=              5.5918
 Quadrupole moment (field-independent basis, Debye-Ang):
   XX=            -81.3770   YY=            -83.1010   ZZ=            -67.8403
   XY=             -1.1675   XZ=             -0.0001   YZ=              0.0009

  Exact polarizability: 106.372   5.434 109.667   0.007  -0.001  80.035
 Approx polarizability: 149.245  16.309 203.818   0.021  -0.005 140.029

                      1                      2                      3
                      A                      A                      A
 Frequencies --     54.6164                96.3037               165.7189
 Red. masses --     14.3716                 5.1081                 6.5696
 Frc consts  --      0.0253                 0.0279                 0.1063
 IR Inten    --      0.1631                 0.5136                 1.0115

                      4                      5                      6
                      A                      A                      A
 Frequencies --    187.6671               205.0437               265.8925
 Red. masses --      9.7691                 5.7116                 6.6811
 Frc consts  --      0.2027                 0.1415                 0.2783
 IR Inten    --      6.5625                 5.1345                 0.4998

                      7                      8                      9
                      A                      A                      A
 Frequencies --    322.4768               394.0684               421.9204
 Red. masses --      5.3127                 5.1335                 8.9493
 Frc consts  --      0.3255                 0.4697                 0.9386
 IR Inten    --      2.5271                 1.8883                 3.5317

                     10                     11                     12
                      A                      A                      A
 Frequencies --    495.2465               507.1678               528.1451
 Red. masses --      2.1194                 3.5326                 7.7746
 Frc consts  --      0.3063                 0.5354                 1.2777
 IR Inten    --      0.8309                 0.0194                 3.8442

                     13                     14                     15
                      A                      A                      A
 Frequencies --    607.5467               660.3174               687.8555
 Red. masses --      6.5636                 4.4346                 5.5949
 Frc consts  --      1.4274                 1.1392                 1.5597
 IR Inten    --      0.8487                25.1481                 7.6912

                     16                     17                     18
                      A                      A                      A
 Frequencies --    704.6136               758.1990               780.7309
 Red. masses --      4.3741                 2.2220                 3.1472
 Frc consts  --      1.2795                 0.7526                 1.1303
 IR Inten    --      1.3955                34.0829                 2.6810

                     19                     20                     21
                      A                      A                      A
 Frequencies --    791.6281               830.9733               846.9172
 Red. masses --      3.4816                 6.3304                 2.8701
 Frc consts  --      1.2855                 2.5755                 1.2129
 IR Inten    --      7.1062                 1.4423                 2.5085

                     22                     23                     24
                      A                      A                      A
 Frequencies --    861.8908               908.5029               914.6567
 Red. masses --      2.6012                 3.1537                 3.1189
 Frc consts  --      1.1385                 1.5337                 1.5374
 IR Inten    --      4.6923                48.2038                10.0458

                     25                     26                     27
                      A                      A                      A
 Frequencies --    939.2827               944.1084               953.8493
 Red. masses --      1.5797                 2.3129                 2.4379
 Frc consts  --      0.8211                 1.2146                 1.3069
 IR Inten    --      2.1461                 0.3412                 8.9055

                     28                     29                     30
                      A                      A                      A
 Frequencies --    971.9329               984.7383              1004.6597
 Red. masses --      3.4567                 1.6567                 2.1789
 Frc consts  --      1.9239                 0.9465                 1.2958
 IR Inten    --      0.4021                 0.9017                19.6317

                     31                     32                     33
                      A                      A                      A
 Frequencies --   1033.4369              1074.9108              1123.1775
 Red. masses --      1.8065                 1.8770                 1.2415
 Frc consts  --      1.1367                 1.2778                 0.9228
 IR Inten    --     12.4122                 2.2061                 5.4419

                     34                     35                     36
                      A                      A                      A
 Frequencies --   1130.9682              1148.0509              1179.3960
 Red. masses --      1.2476                 1.0973                 1.7254
 Frc consts  --      0.9402                 0.8521                 1.4140
 IR Inten    --      0.4077                 1.5094                 0.3619

                     37                     38                     39
                      A                      A                      A
 Frequencies --   1218.5918              1262.0220              1278.2659
 Red. masses --      1.6946                 1.4339                 1.6626
 Frc consts  --      1.4827                 1.3456                 1.6006
 IR Inten    --      5.6249                 3.2309                 2.2213

                     40                     41                     42
                      A                      A                      A
 Frequencies --   1290.5542              1298.6250              1300.9652
 Red. masses --      1.4167                 1.2980                 1.8839
 Frc consts  --      1.3902                 1.2897                 1.8786
 IR Inten    --      2.5673                 0.7282                 9.1497

                     43                     44                     45
                      A                      A                      A
 Frequencies --   1370.2604              1370.8156              1412.1755
 Red. masses --      4.1824                 1.7297                 5.8785
 Frc consts  --      4.6269                 1.9151                 6.9071
 IR Inten    --     85.6955                11.7559               100.1974

                     46                     47                     48
                      A                      A                      A
 Frequencies --   1513.5166              1649.9482              1669.4015
 Red. masses --      1.1085                 5.6529                14.3018
 Frc consts  --      1.4960                 9.0669                23.4834
 IR Inten    --      2.1499                 0.0431               216.5938

                     49                     50                     51
                      A                      A                      A
 Frequencies --   2362.5037              3066.6008              3132.9181
 Red. masses --     12.6697                 1.0605                 1.1062
 Frc consts  --     41.6639                 5.8762                 6.3973
 IR Inten    --      5.8331                34.9015                22.0363

                     52                     53                     54
                      A                      A                      A
 Frequencies --   3139.2231              3141.0623              3206.6012
 Red. masses --      1.0879                 1.0907                 1.0885
 Frc consts  --      6.3169                 6.3402                 6.5940
 IR Inten    --     36.2970                10.2595                 0.8219

                     55                     56                     57
                      A                      A                      A
 Frequencies --   3210.5718              3228.1411              3249.9708
 Red. masses --      1.0924                 1.0873                 1.1063
 Frc consts  --      6.6344                 6.6758                 6.8844
 IR Inten    --      0.2944                 1.0546                 3.7679

 - Thermochemistry -
 -------------------
 Temperature   298.150 Kelvin.  Pressure   1.00000 Atm.
 Atom     1 has atomic number  6 and mass  12.00000

 Molecular mass:   176.05858 amu.
 Principal axes and moments of inertia in atomic units:
                           1         2         3
     Eigenvalues --  1187.225412365.782733044.89240
           X            0.99996   0.00850   0.00000
           Y           -0.00850   0.99996   0.00000
           Z           -0.00000  -0.00000   1.00000
 This molecule is an asymmetric top.
 Rotational symmetry number  1.
 Warning -- assumption of classical behavior for rotation
           may cause significant error
 Rotational temperatures (Kelvin)      0.07295     0.03661     0.02845
 Rotational constants (GHZ):           1.52013     0.76285     0.59271
 Zero-point vibrational energy     417851.7 (Joules/Mol)
                                   99.86895 (Kcal/Mol)
 Warning -- explicit consideration of  13 degrees of freedom as
           vibrations may cause significant error
 Vibrational temperatures:     78.58   138.56   238.43   270.01   295.01
          (Kelvin)            382.56   463.97   566.98   607.05   712.55
                              729.70   759.88   874.12   950.05   989.67
                             1013.78  1090.88  1123.30  1138.97  1195.58
                             1218.52  1240.07  1307.13  1315.99  1351.42
                             1358.36  1372.37  1398.39  1416.82  1445.48
                             1486.88  1546.55  1616.00  1627.21  1651.79
                             1696.89  1753.28  1815.77  1839.14  1856.82
                             1868.43  1871.80  1971.50  1972.30  2031.80
                             2177.61  2373.90  2401.89  3399.11  4412.15
                             4507.56  4516.64  4519.28  4613.58  4619.29
                             4644.57  4675.98

 Zero-point correction=                           0.159151 (Hartree/Particle)
 Thermal correction to Energy=                    0.168989
 Thermal correction to Enthalpy=                  0.169933
 Thermal correction to Gibbs Free Energy=         0.123481
 Sum of electronic and zero-point Energies=           -607.362549
 Sum of electronic and thermal Energies=              -607.352712
 Sum of electronic and thermal Enthalpies=            -607.351768
 Sum of electronic and thermal Free Energies=         -607.398219

                     E (Thermal)             CV                S
                      KCal/Mol        Cal/Mol-Kelvin    Cal/Mol-Kelvin
 Total                  106.042             39.364             97.765
 Electronic               0.000              0.000              0.000
 Translational            0.889              2.981             41.404
 Rotational               0.889              2.981             30.526
 Vibrational            104.264             33.403             25.835
 Vibration     1          0.596              1.976              4.643
 Vibration     2          0.603              1.952              3.528
 Vibration     3          0.624              1.885              2.483
 Vibration     4          0.632              1.857              2.251
 Vibration     5          0.640              1.833              2.087
 Vibration     6          0.672              1.736              1.623
 Vibration     7          0.707              1.630              1.298
 Vibration     8          0.761              1.483              0.985
 Vibration     9          0.784              1.423              0.885
 Vibration    10          0.851              1.261              0.670
 Vibration    11          0.862              1.234              0.640
 Vibration    12          0.883              1.188              0.591
 Vibration    13          0.966              1.016              0.437

 Optimization completed.
    -- Stationary point found.
 Normal termination of Gaussian 09 at Fri Aug 20 15:50:46 2021.
