 Gaussian 09, Revision E.01,
 Gaussian 09:  ES64L-G09RevE.01 30-Nov-2015

 -------------------------
 #P OPT Freq B3LYP/6-31G**
 -------------------------

 --------
 TEVHEH01
 --------
 Symbolic Z-matrix:
 Charge =  0 Multiplicity = 1

 SCF Done:  E(RB3LYP) =  -635.159237727     A.U. after   17 cycles
 SCF Done:  E(RB3LYP) =  -635.204493571     A.U. after   15 cycles
 SCF Done:  E(RB3LYP) =  -635.207859910     A.U. after   15 cycles
 SCF Done:  E(RB3LYP) =  -635.201339030     A.U. after   16 cycles
 SCF Done:  E(RB3LYP) =  -635.208090845     A.U. after   12 cycles
 SCF Done:  E(RB3LYP) =  -635.208231966     A.U. after   14 cycles
 SCF Done:  E(RB3LYP) =  -635.208212754     A.U. after   13 cycles
 SCF Done:  E(RB3LYP) =  -635.208200963     A.U. after   14 cycles
 SCF Done:  E(RB3LYP) =  -635.208269198     A.U. after   13 cycles
 SCF Done:  E(RB3LYP) =  -635.208272717     A.U. after   10 cycles
 SCF Done:  E(RB3LYP) =  -635.208273417     A.U. after   10 cycles
 SCF Done:  E(RB3LYP) =  -635.208273492     A.U. after    8 cycles
 Optimization completed.
    -- Stationary point found.
 Normal termination of Gaussian 09 at Fri Aug 20 16:03:19 2021.

 ----------------------------------------------------------------------
 #P Geom=AllCheck Guess=TCheck SCRF=Check GenChk RB3LYP/6-31G(d,p) Freq
 ----------------------------------------------------------------------

 Structure from the checkpoint file:  "/public/home/users/caep010/.cache/gau_scr/Gau-96792.chk"
 --------
 TEVHEH01
 --------
 Charge =  0 Multiplicity = 1

                         Standard orientation:
 ---------------------------------------------------------------------
 Center     Atomic      Atomic             Coordinates (Angstroms)
 Number     Number       Type             X           Y           Z
 ---------------------------------------------------------------------
      1          8           0        2.680232   -1.520611   -0.000273
      2          7           0        2.414006   -0.330697   -0.000022
      3          8           0        3.219182    0.610418    0.000382
      4          6           0        1.021288    0.061675   -0.000051
      5          7           0       -0.018959   -0.730553   -0.000081
      6          7           0        0.697180    1.389805   -0.000151
      7          1           0        1.376770    2.140042    0.000201
      8          6           0       -0.661492    1.458108   -0.000040
      9          1           0       -1.222715    2.377698   -0.000310
     10          6           0       -1.063745    0.133158    0.000023
     11          7           0       -2.444893   -0.307193    0.000044
     12          8           0       -2.669781   -1.508583    0.000243
     13          8           0       -3.287346    0.595661   -0.000103
 ---------------------------------------------------------------------

 SCF Done:  E(RB3LYP) =  -635.208273492     A.U. after    2 cycles

 The electronic state is 1-A.
 Alpha  occ. eigenvalues --  -19.21764 -19.21472 -19.19897 -19.19567 -14.61165
 Alpha  occ. eigenvalues --  -14.59230 -14.46954 -14.39600 -10.34355 -10.30411
 Alpha  occ. eigenvalues --  -10.29904  -1.26263  -1.24320  -1.10210  -1.08918
 Alpha  occ. eigenvalues --   -1.07066  -0.95892  -0.86609  -0.79421  -0.73808
 Alpha  occ. eigenvalues --   -0.66725  -0.62168  -0.60268  -0.57638  -0.55978
 Alpha  occ. eigenvalues --   -0.55311  -0.55153  -0.54102  -0.52262  -0.49972
 Alpha  occ. eigenvalues --   -0.49249  -0.36237  -0.35618  -0.34243  -0.34055
 Alpha  occ. eigenvalues --   -0.32762  -0.32412  -0.32244  -0.30841  -0.30339
 Alpha virt. eigenvalues --   -0.12205  -0.09917  -0.00176   0.03767   0.03938
 Alpha virt. eigenvalues --    0.09227   0.11741   0.13974   0.17144   0.21294
 Alpha virt. eigenvalues --    0.23129   0.25729   0.27723   0.28852   0.35148

 Mulliken charges:
               1
     1  O   -0.348390
     2  N    0.371364
     3  O   -0.410575
     4  C    0.715667
     5  N   -0.430429
     6  N   -0.525316
     7  H    0.313067
     8  C    0.147507
     9  H    0.179977
    10  C    0.391460
    11  N    0.358200
    12  O   -0.362276
    13  O   -0.400257
 Sum of Mulliken charges =  -0.00000

 Dipole moment (field-independent basis, Debye):
    X=              1.2317    Y=              5.5141    Z=             -0.0001  Tot=              5.6500
 Quadrupole moment (field-independent basis, Debye-Ang):
   XX=            -79.8167   YY=            -57.2396   ZZ=            -57.2747
   XY=              1.1332   XZ=             -0.0001   YZ=             -0.0002

  Exact polarizability: 107.982  -2.017  81.659   0.001   0.001  27.834
 Approx polarizability: 166.037  -3.217 188.456   0.004   0.005  43.571

                      1                      2                      3
                      A                      A                      A
 Frequencies --     62.2366                84.2505               146.0803
 Red. masses --     15.0328                10.8872                 9.3093
 Frc consts  --      0.0343                 0.0455                 0.1170
 IR Inten    --      0.6446                 7.6970                 0.2767

                      4                      5                      6
                      A                      A                      A
 Frequencies --    147.3669               277.0671               280.8310
 Red. masses --     13.4705                 8.3147                 8.9611
 Frc consts  --      0.1724                 0.3761                 0.4164
 IR Inten    --      4.8636                 0.0014                 3.2141

                      7                      8                      9
                      A                      A                      A
 Frequencies --    349.3831               495.2066               518.7352
 Red. masses --     14.7268                 7.2908                12.4548
 Frc consts  --      1.0592                 1.0534                 1.9746
 IR Inten    --      0.5063                 4.6125                 0.4535

                     10                     11                     12
                      A                      A                      A
 Frequencies --    608.6487               611.2394               646.8114
 Red. masses --      8.6207                 4.2560                11.7531
 Frc consts  --      1.8816                 0.9369                 2.8971
 IR Inten    --      1.0373                18.5108                20.9753

                     13                     14                     15
                      A                      A                      A
 Frequencies --    689.9378               748.4783               760.3607
 Red. masses --      1.2057                 7.7128                 4.8409
 Frc consts  --      0.3381                 2.5458                 1.6490
 IR Inten    --     76.1844                13.3013                11.2178

                     16                     17                     18
                      A                      A                      A
 Frequencies --    826.1937               841.7106               842.3245
 Red. masses --     13.0408                12.6597                 1.6220
 Frc consts  --      5.2447                 5.2844                 0.6781
 IR Inten    --     13.5293               103.0361                 7.8420

                     19                     20                     21
                      A                      A                      A
 Frequencies --    997.4852              1018.8275              1102.7136
 Red. masses --      7.2853                 3.8790                 1.3620
 Frc consts  --      4.2708                 2.3723                 0.9758
 IR Inten    --      1.0844                 2.1291                59.9150

                     22                     23                     24
                      A                      A                      A
 Frequencies --   1189.9314              1311.9168              1384.0306
 Red. masses --      1.9975                10.5721                10.5181
 Frc consts  --      1.6664                10.7207                11.8708
 IR Inten    --     16.3335                24.5066               298.3970

                     25                     26                     27
                      A                      A                      A
 Frequencies --   1397.3525              1427.5720              1451.9186
 Red. masses --      8.2328                11.2988                 4.5494
 Frc consts  --      9.4712                13.5669                 5.6505
 IR Inten    --    317.5295                 1.4720                15.5604

                     28                     29                     30
                      A                      A                      A
 Frequencies --   1541.5320              1562.6573              1659.4391
 Red. masses --      5.9176                 6.2416                13.7768
 Frc consts  --      8.2851                 8.9800                22.3522
 IR Inten    --     44.6970                 8.2073                29.5595

                     31                     32                     33
                      A                      A                      A
 Frequencies --   1664.2409              3319.3117              3634.7309
 Red. masses --     14.3682                 1.1007                 1.0822
 Frc consts  --     23.4469                 7.1451                 8.4240
 IR Inten    --    379.5682                13.4956               144.6463

 - Thermochemistry -
 -------------------
 Temperature   298.150 Kelvin.  Pressure   1.00000 Atm.
 Atom     1 has atomic number  8 and mass  15.99491

 Molecular mass:   158.00760 amu.
 Principal axes and moments of inertia in atomic units:
                           1         2         3
     Eigenvalues --   565.489442765.423403330.91281
           X            1.00000   0.00006   0.00000
           Y           -0.00006   1.00000  -0.00000
           Z           -0.00000   0.00000   1.00000
 This molecule is an asymmetric top.
 Rotational symmetry number  1.
 Warning -- assumption of classical behavior for rotation
           may cause significant error
 Rotational temperatures (Kelvin)      0.15317     0.03132     0.02600
 Rotational constants (GHZ):           3.19147     0.65261     0.54182
 Zero-point vibrational energy     200975.8 (Joules/Mol)
                                   48.03436 (Kcal/Mol)
 Warning -- explicit consideration of  11 degrees of freedom as
           vibrations may cause significant error
 Vibrational temperatures:     89.54   121.22   210.18   212.03   398.64
          (Kelvin)            404.05   502.68   712.49   746.34   875.71
                              879.44   930.62   992.67  1076.89  1093.99
                             1188.71  1211.03  1211.92  1435.16  1465.86
                             1586.56  1712.04  1887.55  1991.31  2010.48
                             2053.96  2088.98  2217.92  2248.31  2387.56
                             2394.47  4775.74  5229.56

 Zero-point correction=                           0.076548 (Hartree/Particle)
 Thermal correction to Energy=                    0.085065
 Thermal correction to Enthalpy=                  0.086009
 Thermal correction to Gibbs Free Energy=         0.041701
 Sum of electronic and zero-point Energies=           -635.131726
 Sum of electronic and thermal Energies=              -635.123208
 Sum of electronic and thermal Enthalpies=            -635.122264
 Sum of electronic and thermal Free Energies=         -635.166572

                     E (Thermal)             CV                S
                      KCal/Mol        Cal/Mol-Kelvin    Cal/Mol-Kelvin
 Total                   53.379             30.197             93.255
 Electronic               0.000              0.000              0.000
 Translational            0.889              2.981             41.082
 Rotational               0.889              2.981             30.033
 Vibrational             51.602             24.235             22.140
 Vibration     1          0.597              1.972              4.385
 Vibration     2          0.601              1.960              3.789
 Vibration     3          0.617              1.907              2.723
 Vibration     4          0.617              1.906              2.706
 Vibration     5          0.678              1.716              1.552
 Vibration     6          0.681              1.709              1.529
 Vibration     7          0.727              1.577              1.169
 Vibration     8          0.851              1.261              0.670
 Vibration     9          0.874              1.209              0.613
 Vibration    10          0.968              1.014              0.435
 Vibration    11          0.970              1.008              0.431

 Optimization completed.
    -- Stationary point found.
 Normal termination of Gaussian 09 at Fri Aug 20 16:03:36 2021.
