 Gaussian 09, Revision E.01,
 Gaussian 09:  ES64L-G09RevE.01 30-Nov-2015

 -------------------------
 #P OPT Freq B3LYP/6-31G**
 -------------------------

 ------
 NIVPAJ
 ------
 Symbolic Z-matrix:
 Charge =  0 Multiplicity = 1

 SCF Done:  E(RB3LYP) =  -606.488844622     A.U. after   15 cycles
 SCF Done:  E(RB3LYP) =  -606.596697807     A.U. after   13 cycles
 SCF Done:  E(RB3LYP) =  -606.648452370     A.U. after   14 cycles
 SCF Done:  E(RB3LYP) =  -606.650208936     A.U. after   13 cycles
 SCF Done:  E(RB3LYP) =  -606.650389894     A.U. after   12 cycles
 SCF Done:  E(RB3LYP) =  -606.650030925     A.U. after   13 cycles
 SCF Done:  E(RB3LYP) =  -606.650422894     A.U. after    8 cycles
 SCF Done:  E(RB3LYP) =  -606.650445649     A.U. after   12 cycles
 SCF Done:  E(RB3LYP) =  -606.650505946     A.U. after   12 cycles
 SCF Done:  E(RB3LYP) =  -606.650553419     A.U. after   11 cycles
 SCF Done:  E(RB3LYP) =  -606.650669602     A.U. after   12 cycles
 SCF Done:  E(RB3LYP) =  -606.650690646     A.U. after   11 cycles
 SCF Done:  E(RB3LYP) =  -606.650698887     A.U. after   11 cycles
 SCF Done:  E(RB3LYP) =  -606.650701825     A.U. after    9 cycles
 SCF Done:  E(RB3LYP) =  -606.650703975     A.U. after   10 cycles
 SCF Done:  E(RB3LYP) =  -606.650704769     A.U. after    9 cycles
 SCF Done:  E(RB3LYP) =  -606.650704839     A.U. after    8 cycles
 Optimization completed.
    -- Stationary point found.
 Normal termination of Gaussian 09 at Fri Aug 20 15:56:04 2021.

 ----------------------------------------------------------------------
 #P Geom=AllCheck Guess=TCheck SCRF=Check GenChk RB3LYP/6-31G(d,p) Freq
 ----------------------------------------------------------------------

 Structure from the checkpoint file:  "/public/home/users/caep010/.cache/gau_scr/Gau-129053.chk"
 ------
 NIVPAJ
 ------
 Charge =  0 Multiplicity = 1

                         Standard orientation:
 ---------------------------------------------------------------------
 Center     Atomic      Atomic             Coordinates (Angstroms)
 Number     Number       Type             X           Y           Z
 ---------------------------------------------------------------------
      1          6           0       -1.715625   -0.446051   -0.000524
      2          6           0       -1.110139    0.794111   -0.000768
      3          1           0       -1.729430    1.684213   -0.000948
      4          6           0       -0.925981   -1.618433   -0.000688
      5          1           0       -1.396384   -2.597154   -0.000555
      6          6           0        0.446400   -1.511986   -0.000795
      7          1           0        1.083162   -2.387113   -0.000542
      8          6           0       -3.220303   -0.577906   -0.000548
      9          6           0        1.072980   -0.252112   -0.000826
     10          7           0        2.516559   -0.232990    0.000663
     11          8           0        3.107142    0.866516    0.001572
     12          8           0        3.123333   -1.306675    0.001173
     13          1           0       -3.520006   -1.162059   -0.886523
     14          1           0       -3.519714   -1.167091    0.882169
     15          6           0        0.301295    0.943676   -0.001136
     16          7           0        0.836162    2.188138   -0.003573
     17          1           0        0.229476    2.990240    0.006946
     18          1           0        1.841325    2.281194    0.003509
     19          8           0       -3.826237    0.702944    0.003216
     20          1           0       -4.783142    0.581673    0.000337
 ---------------------------------------------------------------------

 SCF Done:  E(RB3LYP) =  -606.650704839     A.U. after    1 cycles

 The electronic state is 1-A.
 Alpha  occ. eigenvalues --  -19.16582 -19.16434 -19.16335 -14.55758 -14.35806
 Alpha  occ. eigenvalues --  -10.26182 -10.25505 -10.23650 -10.21646 -10.20560
 Alpha  occ. eigenvalues --  -10.19489 -10.19396  -1.20547  -1.03834  -1.03061
 Alpha  occ. eigenvalues --   -0.94220  -0.86299  -0.80937  -0.74674  -0.72952
 Alpha  occ. eigenvalues --   -0.65386  -0.62679  -0.59838  -0.55249  -0.53925
 Alpha  occ. eigenvalues --   -0.51631  -0.51394  -0.50908  -0.49602  -0.47077
 Alpha  occ. eigenvalues --   -0.46716  -0.43852  -0.43497  -0.39833  -0.39528
 Alpha  occ. eigenvalues --   -0.36259  -0.35229  -0.32786  -0.29614  -0.29564
 Alpha  occ. eigenvalues --   -0.28949  -0.27657  -0.26124  -0.21679
 Alpha virt. eigenvalues --   -0.07352   0.00078   0.01484   0.05865   0.08495
 Alpha virt. eigenvalues --    0.10252   0.11870   0.13884   0.14724   0.16428
 Alpha virt. eigenvalues --    0.17947   0.19044   0.19186   0.21803   0.24301

 Mulliken charges:
               1
     1  C    0.075148
     2  C   -0.151287
     3  H    0.109756
     4  C   -0.138924
     5  H    0.082551
     6  C   -0.099907
     7  H    0.133996
     8  C    0.024588
     9  C    0.241601
    10  N    0.362545
    11  O   -0.453132
    12  O   -0.411744
    13  H    0.106843
    14  H    0.106743
    15  C    0.333230
    16  N   -0.670571
    17  H    0.270651
    18  H    0.306990
    19  O   -0.544068
    20  H    0.314990
 Sum of Mulliken charges =  -0.00000

 Dipole moment (field-independent basis, Debye):
    X=             -5.9735    Y=              0.8752    Z=              0.0146  Tot=              6.0373
 Quadrupole moment (field-independent basis, Debye-Ang):
   XX=            -68.3477   YY=            -59.8687   ZZ=            -70.0640
   XY=              6.4094   XZ=              0.0456   YZ=              0.0711

  Exact polarizability: 146.615   2.997 117.192   0.027  -0.003  40.387
 Approx polarizability: 225.639   3.106 227.440   0.036  -0.063  61.647

                      1                      2                      3
                      A                      A                      A
 Frequencies --     39.8457                63.6163                82.5999
 Red. masses --      5.3830                 5.8362                 3.5529
 Frc consts  --      0.0050                 0.0139                 0.0143
 IR Inten    --      0.9122                41.4765                23.9291

                      4                      5                      6
                      A                      A                      A
 Frequencies --    142.8690               175.6581               215.6453
 Red. masses --      1.5623                 5.8864                 2.2363
 Frc consts  --      0.0188                 0.1070                 0.0613
 IR Inten    --     70.3982                 2.9040                29.5001

                      7                      8                      9
                      A                      A                      A
 Frequencies --    223.7197               286.9229               289.0033
 Red. masses --      1.1423                 4.1145                 8.2871
 Frc consts  --      0.0337                 0.1996                 0.4078
 IR Inten    --    194.4460                 2.4034                 3.9196

                     10                     11                     12
                      A                      A                      A
 Frequencies --    348.8079               404.9567               448.4831
 Red. masses --      6.5778                 4.1396                 3.2212
 Frc consts  --      0.4715                 0.4000                 0.3817
 IR Inten    --      1.5299                 1.5501                 0.1408

                     13                     14                     15
                      A                      A                      A
 Frequencies --    488.8800               537.1980               589.6257
 Red. masses --      7.0931                 5.1799                 4.0825
 Frc consts  --      0.9988                 0.8807                 0.8362
 IR Inten    --      8.6557                 1.3424                 0.3633

                     16                     17                     18
                      A                      A                      A
 Frequencies --    590.6752               613.3787               642.5942
 Red. masses --      5.8246                 1.0263                 5.0404
 Frc consts  --      1.1973                 0.2275                 1.2263
 IR Inten    --      1.5472                15.3246                 2.5075

                     19                     20                     21
                      A                      A                      A
 Frequencies --    698.7802               750.0735               754.9443
 Red. masses --      4.6138                 5.2064                 4.4221
 Frc consts  --      1.3274                 1.7258                 1.4850
 IR Inten    --      0.6087                11.3211                26.3186

                     22                     23                     24
                      A                      A                      A
 Frequencies --    812.2198               849.9828               875.0845
 Red. masses --      1.5205                 8.8055                 1.3835
 Frc consts  --      0.5910                 3.7482                 0.6242
 IR Inten    --     13.3817                18.0048                13.7693

                     25                     26                     27
                      A                      A                      A
 Frequencies --    970.9832               986.9324              1038.8326
 Red. masses --      1.2760                 3.0355                 1.7797
 Frc consts  --      0.7088                 1.7420                 1.1316
 IR Inten    --      0.7905                14.9922                 0.0004

                     28                     29                     30
                      A                      A                      A
 Frequencies --   1065.3885              1094.0750              1119.3151
 Red. masses --      1.7983                 5.7245                 3.0632
 Frc consts  --      1.2026                 4.0372                 2.2612
 IR Inten    --      0.5513                79.1640                29.5973

                     31                     32                     33
                      A                      A                      A
 Frequencies --   1184.6740              1192.1147              1227.5198
 Red. masses --      1.6170                 1.5226                 1.2133
 Frc consts  --      1.3371                 1.2749                 1.0771
 IR Inten    --    106.9157                 6.8240                94.5819

                     34                     35                     36
                      A                      A                      A
 Frequencies --   1260.9403              1304.9001              1306.9574
 Red. masses --      1.0693                 4.1743                 1.5735
 Frc consts  --      1.0017                 4.1878                 1.5836
 IR Inten    --      0.2159               205.2183                20.2355

                     37                     38                     39
                      A                      A                      A
 Frequencies --   1373.4429              1416.9301              1456.9004
 Red. masses --      3.3888                 5.2864                 1.5852
 Frc consts  --      3.7663                 6.2533                 1.9824
 IR Inten    --    208.4933                51.1633                29.0211

                     40                     41                     42
                      A                      A                      A
 Frequencies --   1486.9386              1519.2133              1529.6929
 Red. masses --      3.2641                 1.1843                 2.2804
 Frc consts  --      4.2521                 1.6105                 3.1438
 IR Inten    --     77.3665                14.3559                25.3583

                     43                     44                     45
                      A                      A                      A
 Frequencies --   1571.3345              1627.1357              1633.5637
 Red. masses --      4.5002                 2.6469                 3.1085
 Frc consts  --      6.5466                 4.1289                 4.8873
 IR Inten    --    169.6695                33.2847               196.0462

                     46                     47                     48
                      A                      A                      A
 Frequencies --   1686.6978              2972.2571              2995.1174
 Red. masses --      6.5904                 1.0556                 1.1056
 Frc consts  --     11.0469                 5.4944                 5.8433
 IR Inten    --    252.5803                41.8352                48.6455

                     49                     50                     51
                      A                      A                      A
 Frequencies --   3191.5058              3214.8127              3246.6330
 Red. masses --      1.0901                 1.0899                 1.0923
 Frc consts  --      6.5420                 6.6367                 6.7839
 IR Inten    --      8.2331                 2.1393                 2.1950

                     52                     53                     54
                      A                      A                      A
 Frequencies --   3577.4992              3740.8538              3841.2163
 Red. masses --      1.0467                 1.1035                 1.0668
 Frc consts  --      7.8925                 9.0984                 9.2737
 IR Inten    --     93.1307                73.7062                32.3819

 - Thermochemistry -
 -------------------
 Temperature   298.150 Kelvin.  Pressure   1.00000 Atm.
 Atom     1 has atomic number  6 and mass  12.00000

 Molecular mass:   168.05349 amu.
 Principal axes and moments of inertia in atomic units:
                           1         2         3
     Eigenvalues --   833.877723227.387774050.00304
           X            0.99992   0.01242   0.00003
           Y           -0.01242   0.99992   0.00013
           Z           -0.00003  -0.00013   1.00000
 This molecule is an asymmetric top.
 Rotational symmetry number  1.
 Warning -- assumption of classical behavior for rotation
           may cause significant error
 Rotational temperatures (Kelvin)      0.10387     0.02684     0.02139
 Rotational constants (GHZ):           2.16428     0.55920     0.44561
 Zero-point vibrational energy     399313.1 (Joules/Mol)
                                   95.43813 (Kcal/Mol)
 Warning -- explicit consideration of  17 degrees of freedom as
           vibrations may cause significant error
 Vibrational temperatures:     57.33    91.53   118.84   205.56   252.73
          (Kelvin)            310.27   321.88   412.82   415.81   501.86
                              582.64   645.27   703.39   772.91   848.34
                              849.85   882.51   924.55  1005.39  1079.19
                             1086.20  1168.60  1222.93  1259.05  1397.03
                             1419.97  1494.65  1532.85  1574.13  1610.44
                             1704.48  1715.19  1766.13  1814.21  1877.46
                             1880.42  1976.08  2038.64  2096.15  2139.37
                             2185.81  2200.88  2260.80  2341.08  2350.33
                             2426.78  4276.41  4309.30  4591.86  4625.39
                             4671.17  5147.22  5382.25  5526.65

 Zero-point correction=                           0.152090 (Hartree/Particle)
 Thermal correction to Energy=                    0.163346
 Thermal correction to Enthalpy=                  0.164290
 Thermal correction to Gibbs Free Energy=         0.114141
 Sum of electronic and zero-point Energies=           -606.498614
 Sum of electronic and thermal Energies=              -606.487359
 Sum of electronic and thermal Enthalpies=            -606.486414
 Sum of electronic and thermal Free Energies=         -606.536564

                     E (Thermal)             CV                S
                      KCal/Mol        Cal/Mol-Kelvin    Cal/Mol-Kelvin
 Total                  102.501             41.382            105.549
 Electronic               0.000              0.000              0.000
 Translational            0.889              2.981             41.265
 Rotational               0.889              2.981             30.767
 Vibrational            100.724             35.420             33.516
 Vibration     1          0.594              1.981              5.267
 Vibration     2          0.597              1.972              4.342
 Vibration     3          0.600              1.961              3.828
 Vibration     4          0.616              1.910              2.765
 Vibration     5          0.628              1.872              2.374
 Vibration     6          0.645              1.817              1.995
 Vibration     7          0.649              1.805              1.929
 Vibration     8          0.684              1.698              1.492
 Vibration     9          0.686              1.694              1.480
 Vibration    10          0.726              1.578              1.172
 Vibration    11          0.770              1.459              0.945
 Vibration    12          0.807              1.364              0.800
 Vibration    13          0.845              1.275              0.687
 Vibration    14          0.892              1.168              0.571
 Vibration    15          0.947              1.054              0.468
 Vibration    16          0.948              1.052              0.466
 Vibration    17          0.973              1.004              0.427

 Normal termination of Gaussian 09 at Fri Aug 20 15:56:33 2021.
