 Gaussian 09, Revision E.01,
 Gaussian 09:  ES64L-G09RevE.01 30-Nov-2015

 -------------------------
 #P OPT Freq B3LYP/6-31G**
 -------------------------

 ------
 MOTJOU
 ------
 Symbolic Z-matrix:
 Charge =  0 Multiplicity = 1

 SCF Done:  E(RB3LYP) =  -645.799655496     A.U. after   16 cycles
 SCF Done:  E(RB3LYP) =  -645.885271097     A.U. after   13 cycles
 SCF Done:  E(RB3LYP) =  -645.925925300     A.U. after   14 cycles
 SCF Done:  E(RB3LYP) =  -645.925244357     A.U. after   14 cycles
 SCF Done:  E(RB3LYP) =  -645.926859670     A.U. after   10 cycles
 SCF Done:  E(RB3LYP) =  -645.925959068     A.U. after   13 cycles
 SCF Done:  E(RB3LYP) =  -645.927644417     A.U. after    9 cycles
 SCF Done:  E(RB3LYP) =  -645.927753104     A.U. after   11 cycles
 SCF Done:  E(RB3LYP) =  -645.927795126     A.U. after   11 cycles
 SCF Done:  E(RB3LYP) =  -645.927818702     A.U. after   11 cycles
 SCF Done:  E(RB3LYP) =  -645.928409204     A.U. after   14 cycles
 SCF Done:  E(RB3LYP) =  -645.928461351     A.U. after   13 cycles
 SCF Done:  E(RB3LYP) =  -645.928476060     A.U. after   11 cycles
 SCF Done:  E(RB3LYP) =  -645.928479215     A.U. after    9 cycles
 SCF Done:  E(RB3LYP) =  -645.928481309     A.U. after   10 cycles
 SCF Done:  E(RB3LYP) =  -645.928483136     A.U. after   10 cycles
 SCF Done:  E(RB3LYP) =  -645.928483739     A.U. after    9 cycles
 SCF Done:  E(RB3LYP) =  -645.928483933     A.U. after    8 cycles
 SCF Done:  E(RB3LYP) =  -645.928484022     A.U. after    8 cycles
 Optimization completed.
    -- Stationary point found.
 Normal termination of Gaussian 09 at Fri Aug 20 16:07:44 2021.

 ----------------------------------------------------------------------
 #P Geom=AllCheck Guess=TCheck SCRF=Check GenChk RB3LYP/6-31G(d,p) Freq
 ----------------------------------------------------------------------

 Structure from the checkpoint file:  "/public/home/users/caep010/.cache/gau_scr/Gau-185010.chk"
 ------
 MOTJOU
 ------
 Charge =  0 Multiplicity = 1

                         Standard orientation:
 ---------------------------------------------------------------------
 Center     Atomic      Atomic             Coordinates (Angstroms)
 Number     Number       Type             X           Y           Z
 ---------------------------------------------------------------------
      1          6           0       -0.509184    0.241175    0.178863
      2          6           0        0.123864    1.290397   -0.500786
      3          6           0        1.504523    1.301480   -0.642796
      4          1           0        2.009413    2.108280   -1.162874
      5          6           0        2.274970    0.250602   -0.123676
      6          6           0        1.643998   -0.805497    0.547473
      7          1           0        2.216585   -1.628897    0.956367
      8          1           0       -0.465706    2.099163   -0.921053
      9          8           0        3.618502    0.350481   -0.321611
     10          7           0       -1.926007    0.264172    0.376514
     11          7           0       -2.706322   -0.678950   -0.286947
     12          6           0       -2.626540    1.474769    0.794781
     13          1           0       -3.482031    1.207237    1.415336
     14          1           0       -1.921210    2.065761    1.378848
     15          1           0       -2.989097    2.063348   -0.055758
     16          8           0       -2.137798   -1.653985   -0.770325
     17          6           0        4.452946   -0.688115    0.171875
     18          1           0        4.384225   -0.777413    1.263302
     19          1           0        4.207301   -1.654832   -0.284857
     20          1           0        5.471275   -0.409798   -0.101923
     21          8           0       -3.919980   -0.466150   -0.297348
     22          6           0        0.258978   -0.798269    0.703374
     23          1           0       -0.231569   -1.611421    1.225259
 ---------------------------------------------------------------------

 SCF Done:  E(RB3LYP) =  -645.928484022     A.U. after    1 cycles

 The electronic state is 1-A.
 Alpha  occ. eigenvalues --  -19.18969 -19.16690 -19.16522 -14.58696 -14.41188
 Alpha  occ. eigenvalues --  -10.26110 -10.25069 -10.23706 -10.23455 -10.20788
 Alpha  occ. eigenvalues --  -10.20518 -10.20103 -10.19865  -1.22807  -1.07559
 Alpha  occ. eigenvalues --   -1.04632  -0.97512  -0.86168  -0.77211  -0.76365
 Alpha  occ. eigenvalues --   -0.74421  -0.71489  -0.64322  -0.62632  -0.57832
 Alpha  occ. eigenvalues --   -0.55244  -0.54230  -0.54125  -0.52289  -0.49402
 Alpha  occ. eigenvalues --   -0.47766  -0.47599  -0.46224  -0.44310  -0.43714
 Alpha  occ. eigenvalues --   -0.42977  -0.42001  -0.40609  -0.39021  -0.37596
 Alpha  occ. eigenvalues --   -0.34016  -0.33723  -0.31298  -0.29850  -0.28001
 Alpha  occ. eigenvalues --   -0.27824  -0.26429  -0.22354
 Alpha virt. eigenvalues --   -0.03906  -0.01459  -0.00290   0.07869   0.09547
 Alpha virt. eigenvalues --    0.10906   0.11938   0.12170   0.13998   0.14572
 Alpha virt. eigenvalues --    0.14693   0.15133   0.15879   0.16095   0.17462

 Mulliken charges:
               1
     1  C    0.249229
     2  C   -0.085470
     3  C   -0.128560
     4  H    0.103032
     5  C    0.362574
     6  C   -0.147050
     7  H    0.095056
     8  H    0.096838
     9  O   -0.516316
    10  N   -0.392026
    11  N    0.639808
    12  C   -0.165112
    13  H    0.153539
    14  H    0.130380
    15  H    0.133179
    16  O   -0.425922
    17  C   -0.083080
    18  H    0.114773
    19  H    0.118246
    20  H    0.129373
    21  O   -0.427369
    22  C   -0.063278
    23  H    0.108153
 Sum of Mulliken charges =  -0.00000

 Dipole moment (field-independent basis, Debye):
    X=              3.7650    Y=              2.0071    Z=              2.1208  Tot=              4.7646
 Quadrupole moment (field-independent basis, Debye-Ang):
   XX=            -75.9758   YY=            -72.0948   ZZ=            -74.6760
   XY=            -13.4125   XZ=             -2.5152   YZ=             -4.0129

  Exact polarizability: 165.310  -5.786 100.186  -1.887  -9.632  67.142
 Approx polarizability: 241.514  -8.218 171.828  -6.924 -19.524 108.269

                      1                      2                      3
                      A                      A                      A
 Frequencies --     33.1821                55.6830                77.1066
 Red. masses --      4.2806                 4.7326                 4.7603
 Frc consts  --      0.0028                 0.0086                 0.0167
 IR Inten    --      2.9338                 1.7977                 0.2931

                      4                      5                      6
                      A                      A                      A
 Frequencies --    113.8554               142.6278               167.6336
 Red. masses --      4.3744                 3.2028                 1.3372
 Frc consts  --      0.0334                 0.0384                 0.0221
 IR Inten    --      4.2239                 2.0612                 1.2300

                      7                      8                      9
                      A                      A                      A
 Frequencies --    197.7632               241.7059               261.4026
 Red. masses --      2.7889                 2.4826                 1.5422
 Frc consts  --      0.0643                 0.0855                 0.0621
 IR Inten    --      4.2792                 1.4043                 0.4920

                     10                     11                     12
                      A                      A                      A
 Frequencies --    297.7086               388.3927               389.5016
 Red. masses --      4.0739                 5.6146                 4.7959
 Frc consts  --      0.2127                 0.4990                 0.4287
 IR Inten    --      4.0076                 2.3090                 1.7505

                     13                     14                     15
                      A                      A                      A
 Frequencies --    416.8534               429.2121               498.9593
 Red. masses --      4.4555                 3.1856                 4.2221
 Frc consts  --      0.4562                 0.3458                 0.6193
 IR Inten    --      0.9671                 0.3141                 2.0362

                     16                     17                     18
                      A                      A                      A
 Frequencies --    539.9660               609.3421               631.9741
 Red. masses --      2.7864                 6.2239                 4.6306
 Frc consts  --      0.4787                 1.3616                 1.0896
 IR Inten    --      5.5905                26.7099                12.7275

                     19                     20                     21
                      A                      A                      A
 Frequencies --    654.2250               732.8767               762.8801
 Red. masses --      6.6553                 4.6863                 9.8391
 Frc consts  --      1.6783                 1.4830                 3.3738
 IR Inten    --      2.3498                 8.2588                 7.4367

                     22                     23                     24
                      A                      A                      A
 Frequencies --    774.8980               820.4135               838.3314
 Red. masses --      6.1099                 1.2590                 5.8721
 Frc consts  --      2.1616                 0.4993                 2.4315
 IR Inten    --      7.8374                 0.7103                13.7159

                     25                     26                     27
                      A                      A                      A
 Frequencies --    849.2530               946.0706               957.0865
 Red. masses --      1.7479                 1.4466                 1.3169
 Frc consts  --      0.7428                 0.7628                 0.7107
 IR Inten    --     37.0136                11.4882                 0.9205

                     28                     29                     30
                      A                      A                      A
 Frequencies --    959.5054              1027.1636              1073.6255
 Red. masses --      2.9909                 2.7505                 6.4974
 Frc consts  --      1.6224                 1.7098                 4.4126
 IR Inten    --     52.7531                 4.1302                62.7736

                     31                     32                     33
                      A                      A                      A
 Frequencies --   1126.6075              1138.1030              1144.4375
 Red. masses --      2.4832                 1.3345                 1.3931
 Frc consts  --      1.8570                 1.0184                 1.0750
 IR Inten    --     46.0700                 6.7713                10.1193

                     34                     35                     36
                      A                      A                      A
 Frequencies --   1178.1049              1191.2056              1200.1428
 Red. masses --      1.2724                 2.4035                 1.1630
 Frc consts  --      1.0405                 2.0094                 0.9870
 IR Inten    --      0.6589                25.2271                30.1714

                     37                     38                     39
                      A                      A                      A
 Frequencies --   1212.2670              1300.1937              1332.1019
 Red. masses --      1.3743                 4.0892                 6.4375
 Frc consts  --      1.1900                 4.0730                 6.7304
 IR Inten    --      8.4587               369.2216               178.6646

                     40                     41                     42
                      A                      A                      A
 Frequencies --   1333.4064              1351.3250              1367.1750
 Red. masses --      1.4023                 5.1068                 6.4138
 Frc consts  --      1.4689                 5.4944                 7.0634
 IR Inten    --      7.4631                88.7136                79.5079

                     43                     44                     45
                      A                      A                      A
 Frequencies --   1463.8718              1464.5162              1489.6044
 Red. masses --      3.1076                 1.2257                 1.1981
 Frc consts  --      3.9236                 1.5489                 1.5663
 IR Inten    --      0.3882                50.6618                18.4378

                     46                     47                     48
                      A                      A                      A
 Frequencies --   1491.7727              1505.8687              1518.6023
 Red. masses --      1.0792                 1.0465                 1.0608
 Frc consts  --      1.4150                 1.3981                 1.4413
 IR Inten    --      7.8422                 5.9325                38.4687

                     49                     50                     51
                      A                      A                      A
 Frequencies --   1520.5069              1561.2274              1631.6166
 Red. masses --      1.0637                 2.5628                 6.8970
 Frc consts  --      1.4490                 3.6804                10.8180
 IR Inten    --     16.5279               131.7462                 6.1327

                     52                     53                     54
                      A                      A                      A
 Frequencies --   1657.6201              1670.4139              3020.3832
 Red. masses --     11.7466                 6.1731                 1.0346
 Frc consts  --     19.0165                10.1485                 5.5609
 IR Inten    --    328.4490                18.7594                53.9183

                     55                     56                     57
                      A                      A                      A
 Frequencies --   3049.1053              3084.1249              3135.0763
 Red. masses --      1.0430                 1.1063                 1.0927
 Frc consts  --      5.7131                 6.2000                 6.3276
 IR Inten    --     24.8636                37.9160                11.6831

                     58                     59                     60
                      A                      A                      A
 Frequencies --   3154.2144              3175.4925              3198.8117
 Red. masses --      1.1004                 1.1057                 1.0886
 Frc consts  --      6.4502                 6.5693                 6.5632
 IR Inten    --     22.8999                 7.4820                 7.4548

                     61                     62                     63
                      A                      A                      A
 Frequencies --   3217.7890              3219.1589              3233.2746
 Red. masses --      1.0936                 1.0895                 1.0944
 Frc consts  --      6.6715                 6.6519                 6.7410
 IR Inten    --      5.7095                 5.0576                 4.1427

 - Thermochemistry -
 -------------------
 Temperature   298.150 Kelvin.  Pressure   1.00000 Atm.
 Atom     1 has atomic number  6 and mass  12.00000

 Molecular mass:   182.06914 amu.
 Principal axes and moments of inertia in atomic units:
                           1         2         3
     Eigenvalues --   802.030444581.590515013.72000
           X            0.99968  -0.02515  -0.00225
           Y            0.02507   0.99920  -0.03107
           Z            0.00303   0.03101   0.99951
 This molecule is an asymmetric top.
 Rotational symmetry number  1.
 Warning -- assumption of classical behavior for rotation
           may cause significant error
 Rotational temperatures (Kelvin)      0.10799     0.01890     0.01728
 Rotational constants (GHZ):           2.25022     0.39391     0.35996
 Zero-point vibrational energy     473884.6 (Joules/Mol)
                                  113.26114 (Kcal/Mol)
 Warning -- explicit consideration of  17 degrees of freedom as
           vibrations may cause significant error
 Vibrational temperatures:     47.74    80.12   110.94   163.81   205.21
          (Kelvin)            241.19   284.54   347.76   376.10   428.34
                              558.81   560.41   599.76   617.54   717.89
                              776.89   876.71   909.27   941.28  1054.44
                             1097.61  1114.90  1180.39  1206.17  1221.88
                             1361.18  1377.03  1380.51  1477.86  1544.71
                             1620.93  1637.47  1646.59  1695.03  1713.88
                             1726.74  1744.18  1870.69  1916.60  1918.47
                             1944.25  1967.06  2106.18  2107.11  2143.21
                             2146.33  2166.61  2184.93  2187.67  2246.26
                             2347.53  2384.94  2403.35  4345.65  4386.98
                             4437.36  4510.67  4538.21  4568.82  4602.37
                             4629.67  4631.65  4651.96

 Zero-point correction=                           0.180493 (Hartree/Particle)
 Thermal correction to Energy=                    0.192703
 Thermal correction to Enthalpy=                  0.193648
 Thermal correction to Gibbs Free Energy=         0.140921
 Sum of electronic and zero-point Energies=           -645.747991
 Sum of electronic and thermal Energies=              -645.735781
 Sum of electronic and thermal Enthalpies=            -645.734836
 Sum of electronic and thermal Free Energies=         -645.787563

                     E (Thermal)             CV                S
                      KCal/Mol        Cal/Mol-Kelvin    Cal/Mol-Kelvin
 Total                  120.923             44.660            110.973
 Electronic               0.000              0.000              0.000
 Translational            0.889              2.981             41.504
 Rotational               0.889              2.981             31.289
 Vibrational            119.146             38.699             38.180
 Vibration     1          0.594              1.983              5.629
 Vibration     2          0.596              1.975              4.605
 Vibration     3          0.599              1.964              3.963
 Vibration     4          0.607              1.938              3.202
 Vibration     5          0.616              1.911              2.768
 Vibration     6          0.624              1.882              2.462
 Vibration     7          0.637              1.843              2.154
 Vibration     8          0.658              1.776              1.790
 Vibration     9          0.669              1.743              1.652
 Vibration    10          0.691              1.678              1.430
 Vibration    11          0.757              1.495              1.006
 Vibration    12          0.757              1.493              1.002
 Vibration    13          0.780              1.434              0.903
 Vibration    14          0.791              1.407              0.861
 Vibration    15          0.854              1.252              0.661
 Vibration    16          0.895              1.162              0.565
 Vibration    17          0.968              1.012              0.434

 Optimization completed.
    -- Stationary point found.
 Normal termination of Gaussian 09 at Fri Aug 20 16:08:24 2021.
