 Gaussian 09, Revision E.01,
 Gaussian 09:  ES64L-G09RevE.01 30-Nov-2015

 -------------------------
 #P OPT Freq B3LYP/6-31G**
 -------------------------

 --------
 NANILI29
 --------
 Symbolic Z-matrix:
 Charge =  0 Multiplicity = 1

 SCF Done:  E(RB3LYP) =  -492.018247689     A.U. after   15 cycles
 SCF Done:  E(RB3LYP) =  -492.097432935     A.U. after   14 cycles
 SCF Done:  E(RB3LYP) =  -492.120975044     A.U. after   14 cycles
 SCF Done:  E(RB3LYP) =  -492.120466549     A.U. after   14 cycles
 SCF Done:  E(RB3LYP) =  -492.121196360     A.U. after   10 cycles
 SCF Done:  E(RB3LYP) =  -492.120804831     A.U. after   13 cycles
 SCF Done:  E(RB3LYP) =  -492.121416367     A.U. after    9 cycles
 SCF Done:  E(RB3LYP) =  -492.121474752     A.U. after   11 cycles
 SCF Done:  E(RB3LYP) =  -492.121480772     A.U. after   10 cycles
 SCF Done:  E(RB3LYP) =  -492.121482256     A.U. after    9 cycles
 SCF Done:  E(RB3LYP) =  -492.121618123     A.U. after   13 cycles
 SCF Done:  E(RB3LYP) =  -492.121732247     A.U. after   10 cycles
 SCF Done:  E(RB3LYP) =  -492.121830890     A.U. after   12 cycles
 SCF Done:  E(RB3LYP) =  -492.116802053     A.U. after   15 cycles
 SCF Done:  E(RB3LYP) =  -492.121838907     A.U. after   10 cycles
 SCF Done:  E(RB3LYP) =  -492.121886648     A.U. after   12 cycles
 SCF Done:  E(RB3LYP) =  -492.121884481     A.U. after   12 cycles
 SCF Done:  E(RB3LYP) =  -492.121898106     A.U. after   10 cycles
 SCF Done:  E(RB3LYP) =  -492.121898276     A.U. after    9 cycles
 Optimization completed.
    -- Stationary point found.
 Normal termination of Gaussian 09 at Fri Aug 20 15:45:26 2021.

 ----------------------------------------------------------------------
 #P Geom=AllCheck Guess=TCheck SCRF=Check GenChk RB3LYP/6-31G(d,p) Freq
 ----------------------------------------------------------------------

 Structure from the checkpoint file:  "/public/home/users/caep010/.cache/gau_scr/Gau-170734.chk"
 --------
 NANILI29
 --------
 Charge =  0 Multiplicity = 1

                         Standard orientation:
 ---------------------------------------------------------------------
 Center     Atomic      Atomic             Coordinates (Angstroms)
 Number     Number       Type             X           Y           Z
 ---------------------------------------------------------------------
      1          8           0        2.743463   -1.090849   -0.004033
      2          7           0        2.165578    0.000017   -0.002768
      3          8           0        2.743548    1.090832   -0.006223
      4          6           0        0.709818    0.000004    0.002636
      5          6           0        0.021785    1.215628    0.004028
      6          6           0       -1.363077    1.214759    0.005122
      7          6           0       -2.082029   -0.000022    0.005103
      8          7           0       -3.459057   -0.000048    0.051866
      9          6           0       -1.363077   -1.214785    0.004247
     10          6           0        0.021790   -1.215620    0.003290
     11          1           0        0.584751   -2.140499    0.000532
     12          1           0       -1.904248    2.156682    0.009141
     13          1           0       -1.904225   -2.156732    0.007611
     14          1           0        0.584765    2.140501    0.001663
     15          1           0       -3.937062   -0.847257   -0.214630
     16          1           0       -3.936975    0.847872   -0.212524
 ---------------------------------------------------------------------

 SCF Done:  E(RB3LYP) =  -492.121898276     A.U. after    1 cycles

 The electronic state is 1-A.
 Alpha  occ. eigenvalues --  -19.16314 -19.16313 -14.55588 -14.37196 -10.26072
 Alpha  occ. eigenvalues --  -10.23566 -10.21447 -10.21446 -10.20774 -10.20774
 Alpha  occ. eigenvalues --   -1.20562  -1.03201  -0.94903  -0.87252  -0.78656
 Alpha  occ. eigenvalues --   -0.76967  -0.68655  -0.63901  -0.59417  -0.55339
 Alpha  occ. eigenvalues --   -0.54169  -0.52751  -0.51524  -0.49265  -0.46186
 Alpha  occ. eigenvalues --   -0.45003  -0.44228  -0.41864  -0.40406  -0.36447
 Alpha  occ. eigenvalues --   -0.33536  -0.29386  -0.29288  -0.27438  -0.27296
 Alpha  occ. eigenvalues --   -0.22948
 Alpha virt. eigenvalues --   -0.07169  -0.02025   0.02069   0.05824   0.09038
 Alpha virt. eigenvalues --    0.10025   0.15193   0.15361   0.15772   0.18834
 Alpha virt. eigenvalues --    0.20321   0.23324   0.27642   0.28340   0.31331

 Mulliken charges:
               1
     1  O   -0.412894
     2  N    0.375067
     3  O   -0.412909
     4  C    0.239172
     5  C   -0.092926
     6  C   -0.127326
     7  C    0.319013
     8  N   -0.657903
     9  C   -0.127308
    10  C   -0.092930
    11  H    0.134948
    12  H    0.089798
    13  H    0.089812
    14  H    0.134947
    15  H    0.270724
    16  H    0.270714
 Sum of Mulliken charges =  -0.00000

 Dipole moment (field-independent basis, Debye):
    X=             -7.1099    Y=              0.0010    Z=             -0.8196  Tot=              7.1569
 Quadrupole moment (field-independent basis, Debye-Ang):
   XX=            -55.3468   YY=            -52.1607   ZZ=            -58.4132
   XY=             -0.0039   XZ=              3.5489   YZ=              0.0106

  Exact polarizability: 139.184   0.000  90.049   0.174   0.005  29.825
 Approx polarizability: 235.142   0.004 174.879  -1.532  -0.013  45.970

                      1                      2                      3
                      A                      A                      A
 Frequencies --     74.4471               113.0465               227.7391
 Red. masses --      7.7271                 5.7288                 6.4733
 Frc consts  --      0.0252                 0.0431                 0.1978
 IR Inten    --      0.1010                 0.4270                 0.4032

                      4                      5                      6
                      A                      A                      A
 Frequencies --    292.7819               365.0206               375.3975
 Red. masses --      5.0725                 9.5378                 1.0873
 Frc consts  --      0.2562                 0.7487                 0.0903
 IR Inten    --      9.8575                 4.1727                12.9970

                      7                      8                      9
                      A                      A                      A
 Frequencies --    395.8109               424.7178               425.6783
 Red. masses --      2.7865                 1.2756                 3.2027
 Frc consts  --      0.2572                 0.1356                 0.3419
 IR Inten    --      0.3562               418.4022                 0.3642

                     10                     11                     12
                      A                      A                      A
 Frequencies --    508.2978               539.9296               643.6924
 Red. masses --      2.8308                 6.7965                 6.5934
 Frc consts  --      0.4309                 1.1674                 1.6096
 IR Inten    --      8.8313                 2.2088                 8.6461

                     13                     14                     15
                      A                      A                      A
 Frequencies --    648.4857               700.8343               757.1124
 Red. masses --      6.8918                 3.6418                 6.9504
 Frc consts  --      1.7076                 1.0539                 2.3474
 IR Inten    --      0.7459                 6.3695                26.8690

                     16                     17                     18
                      A                      A                      A
 Frequencies --    822.1537               823.9524               848.3566
 Red. masses --      1.2561                 5.7602                 1.8432
 Frc consts  --      0.5003                 2.3040                 0.7816
 IR Inten    --      0.1153                 4.9657                39.8609

                     19                     20                     21
                      A                      A                      A
 Frequencies --    875.5464               972.6845               981.1947
 Red. masses --      8.0895                 1.3089                 1.2992
 Frc consts  --      3.6537                 0.7296                 0.7370
 IR Inten    --     21.4150                 0.0003                 1.4239

                     22                     23                     24
                      A                      A                      A
 Frequencies --   1022.8632              1071.3242              1138.2532
 Red. masses --      2.7750                 1.4018                 2.4534
 Frc consts  --      1.7106                 0.9480                 1.8728
 IR Inten    --      0.3032                 2.1468                97.8668

                     25                     26                     27
                      A                      A                      A
 Frequencies --   1150.8865              1210.4248              1333.9911
 Red. masses --      1.1584                 1.3687                 1.3380
 Frc consts  --      0.9040                 1.1815                 1.4029
 IR Inten    --     12.0907                17.0337                 0.1884

                     28                     29                     30
                      A                      A                      A
 Frequencies --   1344.4442              1390.5743              1392.3917
 Red. masses --      3.1350                11.2612                 7.0557
 Frc consts  --      3.3386                12.8299                 8.0596
 IR Inten    --    176.1814               496.2734                 0.1220

                     31                     32                     33
                      A                      A                      A
 Frequencies --   1488.1051              1546.9063              1602.8647
 Red. masses --      3.3484                 2.6697                 9.9708
 Frc consts  --      4.3687                 3.7639                15.0930
 IR Inten    --      0.3021                39.9025               106.5623

                     34                     35                     36
                      A                      A                      A
 Frequencies --   1655.2408              1657.1486              1677.4308
 Red. masses --      2.1149                 8.7934                 1.8576
 Frc consts  --      3.4140                14.2276                 3.0796
 IR Inten    --     26.2986               105.6907               299.3158

                     37                     38                     39
                      A                      A                      A
 Frequencies --   3187.8304              3188.6228              3244.1532
 Red. masses --      1.0903                 1.0902                 1.0924
 Frc consts  --      6.5283                 6.5308                 6.7736
 IR Inten    --     11.9885                12.4856                 0.1447

                     40                     41                     42
                      A                      A                      A
 Frequencies --   3244.2547              3599.6652              3714.5914
 Red. masses --      1.0930                 1.0468                 1.1014
 Frc consts  --      6.7777                 7.9916                 8.9537
 IR Inten    --      2.2414                62.7292                23.2263

 - Thermochemistry -
 -------------------
 Temperature   298.150 Kelvin.  Pressure   1.00000 Atm.
 Atom     1 has atomic number  8 and mass  15.99491

 Molecular mass:   138.04293 amu.
 Principal axes and moments of inertia in atomic units:
                           1         2         3
     Eigenvalues --   461.141082197.118712657.35788
           X            1.00000  -0.00000   0.00271
           Y            0.00000   1.00000   0.00006
           Z           -0.00271  -0.00006   1.00000
 This molecule is an asymmetric top.
 Rotational symmetry number  1.
 Warning -- assumption of classical behavior for rotation
           may cause significant error
 Rotational temperatures (Kelvin)      0.18782     0.03942     0.03259
 Rotational constants (GHZ):           3.91364     0.82141     0.67915
 Zero-point vibrational energy     315089.5 (Joules/Mol)
                                   75.30819 (Kcal/Mol)
 Warning -- explicit consideration of  11 degrees of freedom as
           vibrations may cause significant error
 Vibrational temperatures:    107.11   162.65   327.67   421.25   525.18
          (Kelvin)            540.11   569.48   611.07   612.46   731.33
                              776.84   926.13   933.03  1008.34  1089.31
                             1182.89  1185.48  1220.59  1259.71  1399.47
                             1411.72  1471.67  1541.39  1637.69  1655.87
                             1741.53  1919.31  1934.35  2000.72  2003.34
                             2141.05  2225.65  2306.16  2381.52  2384.26
                             2413.45  4586.57  4587.71  4667.61  4667.75
                             5179.11  5344.46

 Zero-point correction=                           0.120011 (Hartree/Particle)
 Thermal correction to Energy=                    0.128264
 Thermal correction to Enthalpy=                  0.129208
 Thermal correction to Gibbs Free Energy=         0.086736
 Sum of electronic and zero-point Energies=           -492.001887
 Sum of electronic and thermal Energies=              -491.993634
 Sum of electronic and thermal Enthalpies=            -491.992690
 Sum of electronic and thermal Free Energies=         -492.035163

                     E (Thermal)             CV                S
                      KCal/Mol        Cal/Mol-Kelvin    Cal/Mol-Kelvin
 Total                   80.487             31.830             89.391
 Electronic               0.000              0.000              0.000
 Translational            0.889              2.981             40.679
 Rotational               0.889              2.981             29.378
 Vibrational             78.709             25.868             19.334
 Vibration     1          0.599              1.966              4.032
 Vibration     2          0.607              1.939              3.216
 Vibration     3          0.651              1.799              1.897
 Vibration     4          0.688              1.687              1.458
 Vibration     5          0.738              1.544              1.101
 Vibration     6          0.746              1.523              1.058
 Vibration     7          0.763              1.479              0.978
 Vibration     8          0.787              1.416              0.876
 Vibration     9          0.788              1.414              0.873
 Vibration    10          0.863              1.232              0.638
 Vibration    11          0.895              1.162              0.565

 Normal termination of Gaussian 09 at Fri Aug 20 15:45:44 2021.
