 Gaussian 09, Revision E.01,
 Gaussian 09:  ES64L-G09RevE.01 30-Nov-2015

 -------------------------
 #P OPT Freq B3LYP/6-31G**
 -------------------------

 ------
 VUXLUV
 ------
 Symbolic Z-matrix:
 Charge =  0 Multiplicity = 1

 SCF Done:  E(RB3LYP) =  -738.338948189     A.U. after   16 cycles
 SCF Done:  E(RB3LYP) =  -738.383728586     A.U. after   13 cycles
 SCF Done:  E(RB3LYP) =  -738.393789867     A.U. after   14 cycles
 SCF Done:  E(RB3LYP) =  -738.393683399     A.U. after   14 cycles
 SCF Done:  E(RB3LYP) =  -738.394021809     A.U. after    9 cycles
 SCF Done:  E(RB3LYP) =  -738.392568905     A.U. after   14 cycles
 SCF Done:  E(RB3LYP) =  -738.394173178     A.U. after   10 cycles
 SCF Done:  E(RB3LYP) =  -738.394238201     A.U. after   13 cycles
 SCF Done:  E(RB3LYP) =  -738.394261828     A.U. after   11 cycles
 SCF Done:  E(RB3LYP) =  -738.394272642     A.U. after   12 cycles
 SCF Done:  E(RB3LYP) =  -738.394279260     A.U. after   12 cycles
 SCF Done:  E(RB3LYP) =  -738.394283141     A.U. after   10 cycles
 SCF Done:  E(RB3LYP) =  -738.394284819     A.U. after    9 cycles
 SCF Done:  E(RB3LYP) =  -738.394285458     A.U. after    9 cycles
 SCF Done:  E(RB3LYP) =  -738.394285816     A.U. after    9 cycles
 SCF Done:  E(RB3LYP) =  -738.394285940     A.U. after    8 cycles
 SCF Done:  E(RB3LYP) =  -738.394285970     A.U. after    8 cycles
 SCF Done:  E(RB3LYP) =  -738.394285972     A.U. after    7 cycles
 Optimization completed.
    -- Stationary point found.
 Normal termination of Gaussian 09 at Fri Aug 20 16:04:21 2021.

 ----------------------------------------------------------------------
 #P Geom=AllCheck Guess=TCheck SCRF=Check GenChk RB3LYP/6-31G(d,p) Freq
 ----------------------------------------------------------------------

 Structure from the checkpoint file:  "/public/home/users/caep010/.cache/gau_scr/Gau-154147.chk"
 ------
 VUXLUV
 ------
 Charge =  0 Multiplicity = 1

                         Standard orientation:
 ---------------------------------------------------------------------
 Center     Atomic      Atomic             Coordinates (Angstroms)
 Number     Number       Type             X           Y           Z
 ---------------------------------------------------------------------
      1          7           0        0.950759   -0.616755   -0.468517
      2          6           0        1.957616    0.247562   -0.102507
      3          7           0        3.137079   -0.329485   -0.016540
      4          6           0        2.906627   -1.633903   -0.330066
      5          6           0        1.569143   -1.833392   -0.612379
      6          7           0        1.747768    1.645563    0.185355
      7          8           0        0.574214    2.025463    0.320578
      8          8           0        2.736717    2.359156    0.286811
      9          6           0       -0.489324   -0.404930   -0.680208
     10          1           0       -0.658817    0.602923   -1.048937
     11          6           0       -1.291968   -0.638373    0.608775
     12          1           0       -1.005702    0.130759    1.336372
     13          1           0       -0.801705   -1.128319   -1.438309
     14          8           0       -1.073158   -1.950040    1.120403
     15          1           0       -0.262409   -1.940419    1.643841
     16          1           0        1.010124   -2.709279   -0.903134
     17          6           0       -2.791581   -0.542315    0.338192
     18          1           0       -3.332768   -0.649293    1.290821
     19          1           0       -3.095060   -1.383710   -0.308680
     20          8           0       -3.059190    0.699783   -0.275457
     21          6           0       -4.433783    0.900322   -0.539648
     22          1           0       -4.532500    1.882435   -1.006432
     23          1           0       -4.832778    0.135983   -1.224293
     24          1           0       -5.030833    0.881996    0.384623
     25          1           0        3.704163   -2.363054   -0.339593
 ---------------------------------------------------------------------

 SCF Done:  E(RB3LYP) =  -738.394285972     A.U. after    1 cycles

 The electronic state is 1-A.
 Alpha  occ. eigenvalues --  -19.18293 -19.18147 -19.16883 -19.16418 -14.57821
 Alpha  occ. eigenvalues --  -14.43234 -14.34822 -10.30007 -10.25824 -10.24628
 Alpha  occ. eigenvalues --  -10.24625 -10.24569 -10.23881 -10.22876  -1.22794
 Alpha  occ. eigenvalues --   -1.05834  -1.05252  -1.04877  -1.03785  -0.92049
 Alpha  occ. eigenvalues --   -0.81649  -0.79510  -0.73858  -0.70377  -0.67520
 Alpha  occ. eigenvalues --   -0.63136  -0.61470  -0.57741  -0.55844  -0.54761
 Alpha  occ. eigenvalues --   -0.53889  -0.50937  -0.50778  -0.49658  -0.48497
 Alpha  occ. eigenvalues --   -0.47659  -0.46287  -0.45548  -0.45104  -0.42809
 Alpha  occ. eigenvalues --   -0.41809  -0.39605  -0.39138  -0.35216  -0.33294
 Alpha  occ. eigenvalues --   -0.31480  -0.31068  -0.30869  -0.30373  -0.29009
 Alpha  occ. eigenvalues --   -0.28825  -0.26953  -0.25838
 Alpha virt. eigenvalues --   -0.08745   0.01597   0.04997   0.05666   0.07787
 Alpha virt. eigenvalues --    0.09465   0.11427   0.12164   0.13201   0.14179
 Alpha virt. eigenvalues --    0.14498   0.14805   0.15601   0.16530   0.16973

 Mulliken charges:
               1
     1  N   -0.458507
     2  C    0.652533
     3  N   -0.429002
     4  C    0.027867
     5  C    0.070994
     6  N    0.363951
     7  O   -0.417788
     8  O   -0.364205
     9  C   -0.044876
    10  H    0.173007
    11  C    0.118464
    12  H    0.123453
    13  H    0.118430
    14  O   -0.548305
    15  H    0.319284
    16  H    0.136906
    17  C    0.086060
    18  H    0.100171
    19  H    0.090222
    20  O   -0.485628
    21  C   -0.060521
    22  H    0.123203
    23  H    0.094226
    24  H    0.097947
    25  H    0.112114
 Sum of Mulliken charges =  -0.00000

 Dipole moment (field-independent basis, Debye):
    X=             -3.7337    Y=             -4.1551    Z=             -0.9396  Tot=              5.6646
 Quadrupole moment (field-independent basis, Debye-Ang):
   XX=            -82.6959   YY=            -85.8991   ZZ=            -77.0092
   XY=            -11.2536   XZ=              0.4704   YZ=             -0.2432

  Exact polarizability: 134.875  -5.252 121.206   4.226   7.485  69.108
 Approx polarizability: 204.960   0.681 202.226   8.374  17.395 104.206

                      1                      2                      3
                      A                      A                      A
 Frequencies --     33.1454                43.7795                55.8282
 Red. masses --      5.0231                 8.1755                 5.3996
 Frc consts  --      0.0033                 0.0092                 0.0099
 IR Inten    --      0.7041                 0.4775                 0.8950

                      4                      5                      6
                      A                      A                      A
 Frequencies --     79.5706               102.1517               111.4478
 Red. masses --      3.1800                 3.2681                 3.9601
 Frc consts  --      0.0119                 0.0201                 0.0290
 IR Inten    --      1.6487                 6.9979                 0.4128

                      7                      8                      9
                      A                      A                      A
 Frequencies --    163.3975               191.3713               231.7272
 Red. masses --      3.3888                 5.8991                 1.2821
 Frc consts  --      0.0533                 0.1273                 0.0406
 IR Inten    --      4.4403                 3.7957                 3.4595

                     10                     11                     12
                      A                      A                      A
 Frequencies --    244.2484               250.8383               281.9078
 Red. masses --      3.6156                 1.2683                 4.2736
 Frc consts  --      0.1271                 0.0470                 0.2001
 IR Inten    --     41.2725               101.7859                 1.1759

                     13                     14                     15
                      A                      A                      A
 Frequencies --    300.2768               366.2240               427.2379
 Red. masses --      4.5146                 3.6482                 3.9680
 Frc consts  --      0.2398                 0.2883                 0.4267
 IR Inten    --      2.0838                 1.3321                 2.2031

                     16                     17                     18
                      A                      A                      A
 Frequencies --    445.8268               479.6452               510.7370
 Red. masses --      7.2046                 2.2814                 4.4778
 Frc consts  --      0.8437                 0.3092                 0.6882
 IR Inten    --      3.1046                 5.3925                 4.2972

                     19                     20                     21
                      A                      A                      A
 Frequencies --    578.3315               639.5028               661.5755
 Red. masses --      4.8821                 4.4488                 6.2169
 Frc consts  --      0.9621                 1.0720                 1.6032
 IR Inten    --      6.5476                12.8073                 8.6298

                     22                     23                     24
                      A                      A                      A
 Frequencies --    746.6820               760.5148               776.6755
 Red. masses --      4.9622                 4.3534                 1.5106
 Frc consts  --      1.6300                 1.4835                 0.5369
 IR Inten    --      0.8499                17.4000                21.7582

                     25                     26                     27
                      A                      A                      A
 Frequencies --    846.4543               864.1017               874.4481
 Red. masses --      8.7665                 2.5679                 1.3607
 Frc consts  --      3.7007                 1.1297                 0.6130
 IR Inten    --     42.8969                 1.7950                 5.9306

                     28                     29                     30
                      A                      A                      A
 Frequencies --    922.6563               947.1527               999.2537
 Red. masses --      4.4370                 1.9174                 4.3819
 Frc consts  --      2.2255                 1.0135                 2.5779
 IR Inten    --      4.6855                12.0792                59.7674

                     31                     32                     33
                      A                      A                      A
 Frequencies --   1063.6299              1081.3454              1105.1706
 Red. masses --      2.1043                 2.2616                 1.5494
 Frc consts  --      1.4026                 1.5581                 1.1150
 IR Inten    --     43.0754                 4.5983                 8.7136

                     34                     35                     36
                      A                      A                      A
 Frequencies --   1121.0135              1165.8363              1175.0446
 Red. masses --      2.5554                 2.1995                 3.5428
 Frc consts  --      1.8920                 1.7613                 2.8821
 IR Inten    --     33.6646                 7.3513               123.1924

                     37                     38                     39
                      A                      A                      A
 Frequencies --   1184.5647              1211.4018              1223.7578
 Red. masses --      1.3524                 2.2123                 1.4901
 Frc consts  --      1.1180                 1.9128                 1.3148
 IR Inten    --     12.9993                15.7392                73.8455

                     40                     41                     42
                      A                      A                      A
 Frequencies --   1234.0654              1244.1933              1295.3752
 Red. masses --      1.7556                 1.5106                 1.5321
 Frc consts  --      1.5752                 1.3778                 1.5147
 IR Inten    --      5.9709                18.5387                30.6479

                     43                     44                     45
                      A                      A                      A
 Frequencies --   1316.1373              1340.6702              1383.7083
 Red. masses --      2.4807                 1.2641                 2.8879
 Frc consts  --      2.5317                 1.3387                 3.2578
 IR Inten    --     48.0770                 3.5692                18.1384

                     46                     47                     48
                      A                      A                      A
 Frequencies --   1389.3596              1400.6778              1410.8624
 Red. masses --      1.4059                 5.3136                 1.5885
 Frc consts  --      1.5990                 6.1421                 1.8630
 IR Inten    --     53.7107               296.5854                31.4716

                     49                     50                     51
                      A                      A                      A
 Frequencies --   1435.1410              1454.0061              1481.1331
 Red. masses --      3.5261                 1.5505                 1.2478
 Frc consts  --      4.2789                 1.9313                 1.6128
 IR Inten    --      2.0693                17.3435                12.0620

                     52                     53                     54
                      A                      A                      A
 Frequencies --   1490.6932              1499.2138              1516.4562
 Red. masses --      1.1735                 1.0471                 1.0635
 Frc consts  --      1.5364                 1.3866                 1.4410
 IR Inten    --      2.0775                 5.8851                12.9170

                     55                     56                     57
                      A                      A                      A
 Frequencies --   1527.2778              1540.3107              1542.5948
 Red. masses --      3.4367                 1.2214                 2.9962
 Frc consts  --      4.7231                 1.7074                 4.2008
 IR Inten    --    133.2958                 0.3873                 0.6630

                     58                     59                     60
                      A                      A                      A
 Frequencies --   1636.6598              2970.6323              2989.4544
 Red. masses --     12.5558                 1.0581                 1.0404
 Frc consts  --     19.8158                 5.5013                 5.4784
 IR Inten    --    225.5361                32.1233                78.7248

                     61                     62                     63
                      A                      A                      A
 Frequencies --   3019.4055              3037.9865              3062.6371
 Red. masses --      1.0985                 1.1048                 1.0859
 Frc consts  --      5.9008                 6.0076                 6.0009
 IR Inten    --     50.0541                54.2277                14.6769

                     64                     65                     66
                      A                      A                      A
 Frequencies --   3092.6205              3138.1775              3200.9624
 Red. masses --      1.0697                 1.0975                 1.0978
 Frc consts  --      6.0277                 6.3681                 6.6273
 IR Inten    --     25.2830                24.4295                 0.1629

                     67                     68                     69
                      A                      A                      A
 Frequencies --   3264.4024              3292.5454              3837.2164
 Red. masses --      1.0929                 1.1032                 1.0668
 Frc consts  --      6.8620                 7.0464                 9.2551
 IR Inten    --      4.3255                 0.5150                23.7142

 - Thermochemistry -
 -------------------
 Temperature   298.150 Kelvin.  Pressure   1.00000 Atm.
 Atom     1 has atomic number  7 and mass  14.00307

 Molecular mass:   201.07496 amu.
 Principal axes and moments of inertia in atomic units:
                           1         2         3
     Eigenvalues --  1598.393364226.872045384.62001
           X            0.99973  -0.02310   0.00309
           Y            0.02311   0.99973  -0.00280
           Z           -0.00302   0.00287   0.99999
 This molecule is an asymmetric top.
 Rotational symmetry number  1.
 Warning -- assumption of classical behavior for rotation
           may cause significant error
 Rotational temperatures (Kelvin)      0.05419     0.02049     0.01609
 Rotational constants (GHZ):           1.12910     0.42697     0.33517
 Zero-point vibrational energy     516266.7 (Joules/Mol)
                                  123.39070 (Kcal/Mol)
 Warning -- explicit consideration of  19 degrees of freedom as
           vibrations may cause significant error
 Vibrational temperatures:     47.69    62.99    80.32   114.48   146.97
          (Kelvin)            160.35   235.09   275.34   333.40   351.42
                              360.90   405.60   432.03   526.91   614.70
                              641.44   690.10   734.84   832.09   920.10
                              951.86  1074.31  1094.21  1117.46  1217.86
                             1243.25  1258.13  1327.49  1362.74  1437.70
                             1530.32  1555.81  1590.09  1612.89  1677.38
                             1690.63  1704.32  1742.93  1760.71  1775.54
                             1790.11  1863.75  1893.63  1928.92  1990.85
                             1998.98  2015.26  2029.91  2064.85  2091.99
                             2131.02  2144.77  2157.03  2181.84  2197.41
                             2216.16  2219.45  2354.79  4274.07  4301.15
                             4344.25  4370.98  4406.45  4449.59  4515.13
                             4605.47  4696.74  4737.23  5520.89

 Zero-point correction=                           0.196636 (Hartree/Particle)
 Thermal correction to Energy=                    0.210487
 Thermal correction to Enthalpy=                  0.211432
 Thermal correction to Gibbs Free Energy=         0.154245
 Sum of electronic and zero-point Energies=           -738.197650
 Sum of electronic and thermal Energies=              -738.183799
 Sum of electronic and thermal Enthalpies=            -738.182854
 Sum of electronic and thermal Free Energies=         -738.240041

                     E (Thermal)             CV                S
                      KCal/Mol        Cal/Mol-Kelvin    Cal/Mol-Kelvin
 Total                  132.083             49.213            120.359
 Electronic               0.000              0.000              0.000
 Translational            0.889              2.981             41.800
 Rotational               0.889              2.981             31.965
 Vibrational            130.305             43.251             46.594
 Vibration     1          0.594              1.983              5.632
 Vibration     2          0.595              1.980              5.080
 Vibration     3          0.596              1.975              4.599
 Vibration     4          0.600              1.963              3.901
 Vibration     5          0.604              1.947              3.413
 Vibration     6          0.607              1.940              3.244
 Vibration     7          0.623              1.887              2.510
 Vibration     8          0.634              1.852              2.215
 Vibration     9          0.653              1.792              1.866
 Vibration    10          0.660              1.772              1.772
 Vibration    11          0.663              1.761              1.725
 Vibration    12          0.681              1.707              1.522
 Vibration    13          0.693              1.673              1.415
 Vibration    14          0.739              1.542              1.096
 Vibration    15          0.789              1.411              0.868
 Vibration    16          0.805              1.370              0.808
 Vibration    17          0.836              1.295              0.711
 Vibration    18          0.866              1.226              0.632
 Vibration    19          0.935              1.078              0.488

 Optimization completed.
    -- Stationary point found.
 Normal termination of Gaussian 09 at Fri Aug 20 16:05:09 2021.
