 Gaussian 09, Revision E.01,
 Gaussian 09:  ES64L-G09RevE.01 30-Nov-2015

 -------------------------
 #P OPT Freq B3LYP/6-31G**
 -------------------------

 ------
 JOLNED
 ------
 Symbolic Z-matrix:
 Charge =  0 Multiplicity = 1

 SCF Done:  E(RB3LYP) =  -679.957570353     A.U. after   16 cycles
 SCF Done:  E(RB3LYP) =  -680.094019926     A.U. after   14 cycles
 SCF Done:  E(RB3LYP) =  -680.189062504     A.U. after   15 cycles
 SCF Done:  E(RB3LYP) =  -680.190271238     A.U. after   13 cycles
 SCF Done:  E(RB3LYP) =  -680.190622435     A.U. after   13 cycles
 SCF Done:  E(RB3LYP) =  -680.189094698     A.U. after   14 cycles
 SCF Done:  E(RB3LYP) =  -680.190677187     A.U. after    9 cycles
 SCF Done:  E(RB3LYP) =  -680.190826946     A.U. after   12 cycles
 SCF Done:  E(RB3LYP) =  -680.190868657     A.U. after   12 cycles
 SCF Done:  E(RB3LYP) =  -680.190948194     A.U. after   13 cycles
 SCF Done:  E(RB3LYP) =  -680.191922949     A.U. after    9 cycles
 SCF Done:  E(RB3LYP) =  -680.191923433     A.U. after    9 cycles
 SCF Done:  E(RB3LYP) =  -680.191924195     A.U. after    9 cycles
 SCF Done:  E(RB3LYP) =  -680.191925162     A.U. after   10 cycles
 SCF Done:  E(RB3LYP) =  -680.191926013     A.U. after   10 cycles
 SCF Done:  E(RB3LYP) =  -680.191926612     A.U. after   10 cycles
 SCF Done:  E(RB3LYP) =  -680.191926816     A.U. after    9 cycles
 SCF Done:  E(RB3LYP) =  -680.191926852     A.U. after    8 cycles
 SCF Done:  E(RB3LYP) =  -680.191926856     A.U. after    7 cycles
 Optimization completed.
    -- Stationary point found.
 Normal termination of Gaussian 09 at Fri Aug 20 16:06:36 2021.

 ----------------------------------------------------------------------
 #P Geom=AllCheck Guess=TCheck SCRF=Check GenChk RB3LYP/6-31G(d,p) Freq
 ----------------------------------------------------------------------

 Structure from the checkpoint file:  "/public/home/users/caep010/.cache/gau_scr/Gau-15712.chk"
 ------
 JOLNED
 ------
 Charge =  0 Multiplicity = 1

                         Standard orientation:
 ---------------------------------------------------------------------
 Center     Atomic      Atomic             Coordinates (Angstroms)
 Number     Number       Type             X           Y           Z
 ---------------------------------------------------------------------
      1          8           0       -4.541668    0.825942    0.043526
      2          7           0       -3.838459   -0.186433    0.007694
      3          8           0       -4.279189   -1.337853   -0.022270
      4          6           0       -2.385931   -0.010027    0.000616
      5          6           0       -1.562186   -1.138331   -0.040593
      6          1           0       -2.014987   -2.121563   -0.067328
      7          6           0       -0.185888   -0.973307   -0.048948
      8          6           0        0.375585    0.319665   -0.013599
      9          7           0        1.754387    0.611974   -0.019900
     10          7           0        2.493349   -0.427583    0.005043
     11          7           0        3.787702   -0.167645   -0.032620
     12          6           0        4.682209   -1.302492    0.098750
     13          1           0        5.402256   -1.324442   -0.726554
     14          1           0        5.235659   -1.266449    1.045506
     15          6           0       -1.856535    1.280071    0.033167
     16          1           0       -2.527130    2.129344    0.063651
     17          6           0       -0.477462    1.436521    0.024783
     18          1           0       -0.028920    2.423704    0.048698
     19          6           0        4.295532    1.197009   -0.060708
     20          1           0        3.872327    1.736975   -0.912118
     21          1           0        4.008063    1.736675    0.848483
     22          1           0        5.382190    1.157282   -0.143027
     23          1           0        0.469584   -1.834703   -0.083339
     24          1           0        4.077016   -2.208386    0.073641
 ---------------------------------------------------------------------

 SCF Done:  E(RB3LYP) =  -680.191926856     A.U. after    1 cycles

 The electronic state is 1-A.
 Alpha  occ. eigenvalues --  -19.16592 -19.16586 -14.55765 -14.42568 -14.41965
 Alpha  occ. eigenvalues --  -14.36164 -10.24467 -10.23900 -10.23816 -10.23621
 Alpha  occ. eigenvalues --  -10.20943 -10.20918 -10.20120 -10.20110  -1.20831
 Alpha  occ. eigenvalues --   -1.08791  -1.03496  -0.94551  -0.87638  -0.80726
 Alpha  occ. eigenvalues --   -0.76343  -0.75974  -0.74943  -0.68053  -0.62916
 Alpha  occ. eigenvalues --   -0.60243  -0.57322  -0.55052  -0.53256  -0.51704
 Alpha  occ. eigenvalues --   -0.51504  -0.50540  -0.49507  -0.46321  -0.45404
 Alpha  occ. eigenvalues --   -0.44605  -0.43629  -0.43298  -0.41868  -0.41569
 Alpha  occ. eigenvalues --   -0.41048  -0.38497  -0.37257  -0.35842  -0.29665
 Alpha  occ. eigenvalues --   -0.29573  -0.29420  -0.27648  -0.26698  -0.25404
 Alpha  occ. eigenvalues --   -0.22495
 Alpha virt. eigenvalues --   -0.08291  -0.03606  -0.01191   0.04298   0.07914
 Alpha virt. eigenvalues --    0.09684   0.11741   0.11995   0.12529   0.13320
 Alpha virt. eigenvalues --    0.14401   0.14999   0.16266   0.16863   0.17259

 Mulliken charges:
               1
     1  O   -0.406196
     2  N    0.379320
     3  O   -0.406704
     4  C    0.247568
     5  C   -0.108822
     6  H    0.133460
     7  C   -0.087895
     8  C    0.281416
     9  N   -0.404603
    10  N   -0.037988
    11  N   -0.214795
    12  C   -0.166109
    13  H    0.128530
    14  H    0.129054
    15  C   -0.096772
    16  H    0.133496
    17  C   -0.108272
    18  H    0.101399
    19  C   -0.162848
    20  H    0.150600
    21  H    0.143735
    22  H    0.115624
    23  H    0.107905
    24  H    0.148899
 Sum of Mulliken charges =  -0.00000

 Dipole moment (field-independent basis, Debye):
    X=              8.8029    Y=              0.0932    Z=              0.0406  Tot=              8.8035
 Quadrupole moment (field-independent basis, Debye-Ang):
   XX=            -81.9053   YY=            -76.1351   ZZ=            -80.6279
   XY=             -3.5750   XZ=              0.3298   YZ=             -0.0415

  Exact polarizability: 260.167  -4.441 120.204   0.095   1.064  53.672
 Approx polarizability: 382.899 -16.486 226.535  -1.266   3.187  81.645

                      1                      2                      3
                      A                      A                      A
 Frequencies --     16.8464                50.7206                59.7749
 Red. masses --      3.2051                 2.5310                 2.8317
 Frc consts  --      0.0005                 0.0038                 0.0060
 IR Inten    --      0.3555                 1.5565                 1.6933

                      4                      5                      6
                      A                      A                      A
 Frequencies --     68.8874                91.8017               134.8792
 Red. masses --      5.1724                 4.5796                 1.5904
 Frc consts  --      0.0145                 0.0227                 0.0170
 IR Inten    --      0.5419                 0.2857                 4.3035

                      7                      8                      9
                      A                      A                      A
 Frequencies --    176.7539               219.7546               230.5565
 Red. masses --      1.6265                 3.4413                 3.1544
 Frc consts  --      0.0299                 0.0979                 0.0988
 IR Inten    --      4.9431                 2.1706                 0.5514

                     10                     11                     12
                      A                      A                      A
 Frequencies --    246.0126               339.5123               351.7830
 Red. masses --      5.8474                 4.8042                 5.3816
 Frc consts  --      0.2085                 0.3263                 0.3924
 IR Inten    --      0.6986                 0.9490                 1.1584

                     13                     14                     15
                      A                      A                      A
 Frequencies --    390.2472               404.6886               425.7573
 Red. masses --      6.3815                 3.5536                 3.2020
 Frc consts  --      0.5726                 0.3429                 0.3420
 IR Inten    --      1.0219                 0.4771                 0.0024

                     16                     17                     18
                      A                      A                      A
 Frequencies --    511.3365               528.5750               535.3726
 Red. masses --      5.5040                 3.1601                 6.2498
 Frc consts  --      0.8479                 0.5202                 1.0554
 IR Inten    --     19.3705                 3.8557                 5.8736

                     19                     20                     21
                      A                      A                      A
 Frequencies --    589.6291               647.8450               703.2541
 Red. masses --      5.2342                 7.1009                 6.7107
 Frc consts  --      1.0722                 1.7559                 1.9554
 IR Inten    --     15.7265                 0.8913                 0.9110

                     22                     23                     24
                      A                      A                      A
 Frequencies --    707.1984               764.9805               831.9658
 Red. masses --      3.9264                 6.4353                 5.3631
 Frc consts  --      1.1570                 2.2188                 2.1871
 IR Inten    --     14.3768                14.5007                 1.7150

                     25                     26                     27
                      A                      A                      A
 Frequencies --    852.0623               867.4466               887.7959
 Red. masses --      1.2472                 7.6598                 1.7502
 Frc consts  --      0.5335                 3.3959                 0.8128
 IR Inten    --      0.0547                67.0498                34.4236

                     28                     29                     30
                      A                      A                      A
 Frequencies --    935.7606               990.8077               998.9206
 Red. masses --      4.7607                 1.3170                 1.2978
 Frc consts  --      2.4561                 0.7617                 0.7630
 IR Inten    --      7.1357                 0.0266                 0.0566

                     31                     32                     33
                      A                      A                      A
 Frequencies --   1023.4884              1065.6536              1116.6006
 Red. masses --      2.6676                 1.4520                 1.8743
 Frc consts  --      1.6464                 0.9715                 1.3768
 IR Inten    --      0.0115                30.0662               217.7512

                     34                     35                     36
                      A                      A                      A
 Frequencies --   1120.2350              1128.0052              1131.8204
 Red. masses --      1.2893                 1.4891                 1.9473
 Frc consts  --      0.9533                 1.1163                 1.4697
 IR Inten    --     30.5692                98.9776                19.5719

                     37                     38                     39
                      A                      A                      A
 Frequencies --   1159.0862              1187.7743              1249.8011
 Red. masses --      1.3404                 1.4283                 4.0018
 Frc consts  --      1.0610                 1.1872                 3.6829
 IR Inten    --      9.8343                28.8693                66.2239

                     40                     41                     42
                      A                      A                      A
 Frequencies --   1313.0064              1346.7552              1378.1001
 Red. masses --      1.4075                 4.0758                 6.2096
 Frc consts  --      1.4297                 4.3556                 6.9482
 IR Inten    --      1.2047               187.3499                61.5655

                     43                     44                     45
                      A                      A                      A
 Frequencies --   1383.3018              1401.2396              1440.3402
 Red. masses --      7.1547                 3.7662                 2.7286
 Frc consts  --      8.0663                 4.3570                 3.3351
 IR Inten    --    968.1558                 5.8246                57.6934

                     46                     47                     48
                      A                      A                      A
 Frequencies --   1446.2200              1470.5511              1476.9318
 Red. masses --      1.2148                 1.9629                 1.0622
 Frc consts  --      1.4971                 2.5010                 1.3652
 IR Inten    --     38.0377                 4.8288                11.9458

                     49                     50                     51
                      A                      A                      A
 Frequencies --   1494.5896              1506.2272              1516.7647
 Red. masses --      1.0702                 2.2954                 1.1942
 Frc consts  --      1.4084                 3.0682                 1.6187
 IR Inten    --     14.8481               154.2041               126.8678

                     52                     53                     54
                      A                      A                      A
 Frequencies --   1526.6000              1537.1800              1605.2022
 Red. masses --      1.9030                 1.3843                10.5173
 Frc consts  --      2.6130                 1.9273                15.9666
 IR Inten    --     49.5017                85.6870               104.7720

                     55                     56                     57
                      A                      A                      A
 Frequencies --   1650.1992              1660.8952              3030.0628
 Red. masses --      6.3618                 8.9618                 1.0386
 Frc consts  --     10.2071                14.5657                 5.6181
 IR Inten    --     76.5254                96.4105                78.3676

                     58                     59                     60
                      A                      A                      A
 Frequencies --   3050.1518              3089.0546              3114.7783
 Red. masses --      1.0356                 1.1029                 1.1006
 Frc consts  --      5.6767                 6.2008                 6.2913
 IR Inten    --     44.3061                27.6091                11.6786

                     61                     62                     63
                      A                      A                      A
 Frequencies --   3163.1226              3171.7552              3214.4860
 Red. masses --      1.1047                 1.0993                 1.0902
 Frc consts  --      6.5120                 6.5158                 6.6371
 IR Inten    --     10.4848                 5.0016                 3.6254

                     64                     65                     66
                      A                      A                      A
 Frequencies --   3229.7891              3244.4128              3245.8163
 Red. masses --      1.0883                 1.0941                 1.0935
 Frc consts  --      6.6888                 6.7853                 6.7875
 IR Inten    --      1.0846                 0.1148                 0.5976

 - Thermochemistry -
 -------------------
 Temperature   298.150 Kelvin.  Pressure   1.00000 Atm.
 Atom     1 has atomic number  8 and mass  15.99491

 Molecular mass:   194.08038 amu.
 Principal axes and moments of inertia in atomic units:
                           1         2         3
     Eigenvalues --   699.982616907.115837581.86265
           X            1.00000  -0.00277   0.00047
           Y            0.00277   1.00000  -0.00133
           Z           -0.00046   0.00133   1.00000
 This molecule is an asymmetric top.
 Rotational symmetry number  1.
 Warning -- assumption of classical behavior for rotation
           may cause significant error
 Rotational temperatures (Kelvin)      0.12374     0.01254     0.01142
 Rotational constants (GHZ):           2.57827     0.26129     0.23803
 Zero-point vibrational energy     487184.7 (Joules/Mol)
                                  116.43994 (Kcal/Mol)
 Warning -- explicit consideration of  19 degrees of freedom as
           vibrations may cause significant error
 Vibrational temperatures:     24.24    72.98    86.00    99.11   132.08
          (Kelvin)            194.06   254.31   316.18   331.72   353.96
                              488.48   506.14   561.48   582.26   612.57
                              735.70   760.50   770.28   848.34   932.10
                             1011.82  1017.50  1100.63  1197.01  1225.93
                             1248.06  1277.34  1346.35  1425.55  1437.22
                             1472.57  1533.24  1606.54  1611.77  1622.95
                             1628.44  1667.66  1708.94  1798.18  1889.12
                             1937.68  1982.78  1990.26  2016.07  2072.33
                             2080.79  2115.79  2124.97  2150.38  2167.12
                             2182.28  2196.43  2211.66  2309.53  2374.27
                             2389.65  4359.58  4388.48  4444.45  4481.47
                             4551.02  4563.44  4624.92  4646.94  4667.98
                             4670.00

 Zero-point correction=                           0.185559 (Hartree/Particle)
 Thermal correction to Energy=                    0.198845
 Thermal correction to Enthalpy=                  0.199789
 Thermal correction to Gibbs Free Energy=         0.143289
 Sum of electronic and zero-point Energies=           -680.006368
 Sum of electronic and thermal Energies=              -679.993082
 Sum of electronic and thermal Enthalpies=            -679.992138
 Sum of electronic and thermal Free Energies=         -680.048638

                     E (Thermal)             CV                S
                      KCal/Mol        Cal/Mol-Kelvin    Cal/Mol-Kelvin
 Total                  124.777             47.651            118.914
 Electronic               0.000              0.000              0.000
 Translational            0.889              2.981             41.695
 Rotational               0.889              2.981             31.972
 Vibrational            123.000             41.690             45.248
 Vibration     1          0.593              1.986              6.975
 Vibration     2          0.595              1.977              4.789
 Vibration     3          0.597              1.973              4.465
 Vibration     4          0.598              1.969              4.185
 Vibration     5          0.602              1.955              3.621
 Vibration     6          0.613              1.919              2.875
 Vibration     7          0.628              1.871              2.362
 Vibration     8          0.647              1.811              1.961
 Vibration     9          0.652              1.794              1.875
 Vibration    10          0.660              1.769              1.759
 Vibration    11          0.719              1.597              1.214
 Vibration    12          0.728              1.572              1.158
 Vibration    13          0.758              1.491              0.999
 Vibration    14          0.770              1.460              0.946
 Vibration    15          0.788              1.414              0.873
 Vibration    16          0.866              1.225              0.630
 Vibration    17          0.884              1.187              0.590
 Vibration    18          0.890              1.172              0.575
 Vibration    19          0.947              1.054              0.468

 Normal termination of Gaussian 09 at Fri Aug 20 16:07:17 2021.
