 Gaussian 09, Revision E.01,
 Gaussian 09:  ES64L-G09RevE.01 30-Nov-2015

 -------------------------
 #P OPT Freq B3LYP/6-31G**
 -------------------------

 ------
 ZELQOW
 ------
 Symbolic Z-matrix:
 Charge =  0 Multiplicity = 1

 SCF Done:  E(RB3LYP) =  -616.399179066     A.U. after   17 cycles
 SCF Done:  E(RB3LYP) =  -616.503693490     A.U. after   14 cycles
 SCF Done:  E(RB3LYP) =  -616.548558243     A.U. after   15 cycles
 SCF Done:  E(RB3LYP) =  -616.554881807     A.U. after   14 cycles
 SCF Done:  E(RB3LYP) =  -616.555898327     A.U. after   14 cycles
 SCF Done:  E(RB3LYP) =  -616.553799264     A.U. after   15 cycles
 SCF Done:  E(RB3LYP) =  -616.556023098     A.U. after   10 cycles
 SCF Done:  E(RB3LYP) =  -616.556080310     A.U. after   13 cycles
 SCF Done:  E(RB3LYP) =  -616.556110180     A.U. after   11 cycles
 SCF Done:  E(RB3LYP) =  -616.556115295     A.U. after   10 cycles
 SCF Done:  E(RB3LYP) =  -616.556102507     A.U. after   13 cycles
 SCF Done:  E(RB3LYP) =  -616.556413990     A.U. after   10 cycles
 SCF Done:  E(RB3LYP) =  -616.556318441     A.U. after   14 cycles
 SCF Done:  E(RB3LYP) =  -616.556430707     A.U. after   10 cycles
 SCF Done:  E(RB3LYP) =  -616.556316488     A.U. after   14 cycles
 SCF Done:  E(RB3LYP) =  -616.556452032     A.U. after   14 cycles
 SCF Done:  E(RB3LYP) =  -616.556452528     A.U. after   10 cycles
 SCF Done:  E(RB3LYP) =  -616.556452844     A.U. after   10 cycles
 SCF Done:  E(RB3LYP) =  -616.556452890     A.U. after    8 cycles
 Optimization completed.
    -- Stationary point found.
 Normal termination of Gaussian 09 at Fri Aug 20 15:40:05 2021.

 ----------------------------------------------------------------------
 #P Geom=AllCheck Guess=TCheck SCRF=Check GenChk RB3LYP/6-31G(d,p) Freq
 ----------------------------------------------------------------------

 Structure from the checkpoint file:  "/public/home/users/caep010/.cache/gau_scr/Gau-58673.chk"
 ------
 ZELQOW
 ------
 Charge =  0 Multiplicity = 1

                         Standard orientation:
 ---------------------------------------------------------------------
 Center     Atomic      Atomic             Coordinates (Angstroms)
 Number     Number       Type             X           Y           Z
 ---------------------------------------------------------------------
      1          6           0       -0.467561   -0.057180    0.023787
      2          7           0        0.718825   -0.759567    0.008967
      3          7           0        1.682730    0.194006   -0.008715
      4          8           0        0.961998   -1.982041    0.005741
      5          7           0       -1.744902   -0.655559   -0.003369
      6          6           0        3.088226   -0.143232   -0.019994
      7          1           0        3.570684    0.263471    0.871739
      8          7           0        1.195931    1.458746   -0.005043
      9          6           0       -0.128406    1.321502    0.016426
     10          7           0       -0.986252    2.370603    0.074171
     11          8           0       -1.850172   -1.877170    0.020035
     12          1           0        3.556601    0.270169   -0.916071
     13          8           0       -2.702213    0.143929   -0.052887
     14          1           0       -1.953044    2.158157   -0.126025
     15          1           0        3.151066   -1.230898   -0.024603
     16          1           0       -0.620081    3.277212   -0.171553
 ---------------------------------------------------------------------

 SCF Done:  E(RB3LYP) =  -616.556452890     A.U. after    1 cycles

 The electronic state is 1-A.
 Alpha  occ. eigenvalues --  -19.18357 -19.18131 -19.17259 -14.58413 -14.54945
 Alpha  occ. eigenvalues --  -14.47728 -14.38418 -14.37311 -10.29933 -10.28963
 Alpha  occ. eigenvalues --  -10.25834  -1.23011  -1.19660  -1.07786  -1.05266
 Alpha  occ. eigenvalues --   -0.96015  -0.89963  -0.87124  -0.80052  -0.70859
 Alpha  occ. eigenvalues --   -0.67095  -0.62873  -0.56675  -0.56429  -0.55574
 Alpha  occ. eigenvalues --   -0.53267  -0.52863  -0.51232  -0.50409  -0.47818
 Alpha  occ. eigenvalues --   -0.46138  -0.44224  -0.41929  -0.36146  -0.34408
 Alpha  occ. eigenvalues --   -0.31558  -0.31069  -0.29755  -0.28865  -0.27242
 Alpha  occ. eigenvalues --   -0.23299
 Alpha virt. eigenvalues --   -0.09017  -0.02631   0.06216   0.07396   0.08918
 Alpha virt. eigenvalues --    0.10910   0.11777   0.13834   0.14632   0.15734
 Alpha virt. eigenvalues --    0.17553   0.18422   0.23144   0.25289   0.26827

 Mulliken charges:
               1
     1  C    0.550247
     2  N    0.121463
     3  N   -0.050745
     4  O   -0.487134
     5  N    0.323819
     6  C   -0.180581
     7  H    0.158404
     8  N   -0.391528
     9  C    0.520077
    10  N   -0.665326
    11  O   -0.379770
    12  H    0.157326
    13  O   -0.438081
    14  H    0.301848
    15  H    0.177949
    16  H    0.282033
 Sum of Mulliken charges =  -0.00000

 Dipole moment (field-independent basis, Debye):
    X=              3.5862    Y=              3.9697    Z=             -0.6498  Tot=              5.3890
 Quadrupole moment (field-independent basis, Debye-Ang):
   XX=            -58.6327   YY=            -64.3296   ZZ=            -60.4781
   XY=             -6.5733   XZ=              0.6607   YZ=             -1.9643

  Exact polarizability: 107.906  -3.185  98.430  -0.047  -0.411  35.171
 Approx polarizability: 171.960 -10.005 210.183  -0.393  -0.746  53.041

                      1                      2                      3
                      A                      A                      A
 Frequencies --     44.1763                75.1482                96.7458
 Red. masses --      1.1417                 8.3223                 3.2541
 Frc consts  --      0.0013                 0.0277                 0.0179
 IR Inten    --      0.0111                 0.1597                 3.0804

                      4                      5                      6
                      A                      A                      A
 Frequencies --    142.0405               212.3851               241.9420
 Red. masses --      7.4216                 7.4929                 5.6849
 Frc consts  --      0.0882                 0.1991                 0.1961
 IR Inten    --      1.6619                 0.4602                 3.5411

                      7                      8                      9
                      A                      A                      A
 Frequencies --    300.9106               357.0753               364.3755
 Red. masses --      2.8971                 4.8733                 5.5768
 Frc consts  --      0.1546                 0.3661                 0.4362
 IR Inten    --     13.7191                 4.2318                24.0802

                     10                     11                     12
                      A                      A                      A
 Frequencies --    392.4705               415.2164               440.6209
 Red. masses --      1.4268                 7.8208                 7.8582
 Frc consts  --      0.1295                 0.7944                 0.8989
 IR Inten    --    240.1808                 1.0509                 3.9261

                     13                     14                     15
                      A                      A                      A
 Frequencies --    497.7667               612.2693               628.6153
 Red. masses --      1.1713                12.6850                 4.6095
 Frc consts  --      0.1710                 2.8017                 1.0732
 IR Inten    --     50.9347                 0.5611                12.1693

                     16                     17                     18
                      A                      A                      A
 Frequencies --    657.9243               692.9706               729.5804
 Red. masses --      4.6007                12.4678                 7.7221
 Frc consts  --      1.1733                 3.5275                 2.4218
 IR Inten    --      9.0601                 4.7679                 8.4851

                     19                     20                     21
                      A                      A                      A
 Frequencies --    751.2097               830.9354               964.3706
 Red. masses --     13.6533                12.2830                 6.8155
 Frc consts  --      4.5395                 4.9968                 3.7345
 IR Inten    --     20.4304                50.6340                 0.0316

                     22                     23                     24
                      A                      A                      A
 Frequencies --   1033.9154              1126.8285              1150.2548
 Red. masses --      2.1819                 1.8784                 1.2677
 Frc consts  --      1.3742                 1.4052                 0.9882
 IR Inten    --      3.4115                57.5291                 0.0604

                     25                     26                     27
                      A                      A                      A
 Frequencies --   1191.9544              1279.5768              1311.5432
 Red. masses --      6.2028                 4.6889                 4.5092
 Frc consts  --      5.1923                 4.5233                 4.5700
 IR Inten    --     65.7169                24.2641                 9.9119

                     28                     29                     30
                      A                      A                      A
 Frequencies --   1380.5791              1398.4300              1451.6181
 Red. masses --      6.5498                11.5485                 1.2775
 Frc consts  --      7.3553                13.3064                 1.5860
 IR Inten    --    178.5834               252.1514                 5.9174

                     31                     32                     33
                      A                      A                      A
 Frequencies --   1496.1134              1514.3455              1528.8680
 Red. masses --      1.0423                 1.2015                 3.1292
 Frc consts  --      1.3745                 1.6233                 4.3094
 IR Inten    --     10.6150                17.2996               107.0742

                     34                     35                     36
                      A                      A                      A
 Frequencies --   1546.8110              1575.1524              1636.1527
 Red. masses --      3.3727                 3.0811                 4.4121
 Frc consts  --      4.7544                 4.5041                 6.9589
 IR Inten    --     66.6821                72.3392               164.3501

                     37                     38                     39
                      A                      A                      A
 Frequencies --   1675.6264              3071.2847              3145.6901
 Red. masses --      4.3687                 1.0323                 1.1071
 Frc consts  --      7.2269                 5.7369                 6.4546
 IR Inten    --    474.2503                25.5163                 6.8932

                     40                     41                     42
                      A                      A                      A
 Frequencies --   3188.0169              3588.7236              3726.3637
 Red. masses --      1.1033                 1.0452                 1.1040
 Frc consts  --      6.6066                 7.9313                 9.0322
 IR Inten    --      0.7499                65.8769                77.0619

 - Thermochemistry -
 -------------------
 Temperature   298.150 Kelvin.  Pressure   1.00000 Atm.
 Atom     1 has atomic number  6 and mass  12.00000

 Molecular mass:   159.03924 amu.
 Principal axes and moments of inertia in atomic units:
                           1         2         3
     Eigenvalues --  1008.478551672.675172668.29193
           X            0.99909  -0.04268   0.00029
           Y            0.04268   0.99908  -0.00297
           Z           -0.00016   0.00298   1.00000
 This molecule is an asymmetric top.
 Rotational symmetry number  1.
 Warning -- assumption of classical behavior for rotation
           may cause significant error
 Rotational temperatures (Kelvin)      0.08589     0.05178     0.03246
 Rotational constants (GHZ):           1.78957     1.07895     0.67637
 Zero-point vibrational energy     289894.6 (Joules/Mol)
                                   69.28648 (Kcal/Mol)
 Warning -- explicit consideration of  14 degrees of freedom as
           vibrations may cause significant error
 Vibrational temperatures:     63.56   108.12   139.20   204.36   305.57
          (Kelvin)            348.10   432.94   513.75   524.25   564.68
                              597.40   633.95   716.17   880.92   904.44
                              946.61   997.03  1049.70  1080.82  1195.53
                             1387.51  1487.57  1621.25  1654.96  1714.95
                             1841.02  1887.02  1986.34  2012.03  2088.55
                             2152.57  2178.80  2199.70  2225.51  2266.29
                             2354.06  2410.85  4418.89  4525.94  4586.84
                             5163.37  5361.40

 Zero-point correction=                           0.110415 (Hartree/Particle)
 Thermal correction to Energy=                    0.120558
 Thermal correction to Enthalpy=                  0.121503
 Thermal correction to Gibbs Free Energy=         0.074021
 Sum of electronic and zero-point Energies=           -616.446038
 Sum of electronic and thermal Energies=              -616.435894
 Sum of electronic and thermal Enthalpies=            -616.434950
 Sum of electronic and thermal Free Energies=         -616.482432

                     E (Thermal)             CV                S
                      KCal/Mol        Cal/Mol-Kelvin    Cal/Mol-Kelvin
 Total                   75.652             36.046             99.934
 Electronic               0.000              0.000              0.000
 Translational            0.889              2.981             41.101
 Rotational               0.889              2.981             29.888
 Vibrational             73.874             30.084             28.945
 Vibration     1          0.595              1.980              5.062
 Vibration     2          0.599              1.966              4.014
 Vibration     3          0.603              1.952              3.519
 Vibration     4          0.616              1.911              2.776
 Vibration     5          0.643              1.822              2.023
 Vibration     6          0.658              1.776              1.789
 Vibration     7          0.693              1.672              1.412
 Vibration     8          0.732              1.561              1.135
 Vibration     9          0.738              1.546              1.103
 Vibration    10          0.760              1.486              0.991
 Vibration    11          0.779              1.437              0.908
 Vibration    12          0.801              1.382              0.825
 Vibration    13          0.853              1.255              0.664
 Vibration    14          0.971              1.006              0.429

 Normal termination of Gaussian 09 at Fri Aug 20 15:40:25 2021.
