 Gaussian 09, Revision E.01,
 Gaussian 09:  ES64L-G09RevE.01 30-Nov-2015

 --------------------------------
 #P OPT=calcfc FREQ B3LYP/6-31G**
 --------------------------------

 ---------------------
 B3LYP6-31G2dfp.EWUKAI
 ---------------------
 Symbolic Z-matrix:
 Charge =  0 Multiplicity = 1

 SCF Done:  E(RB3LYP) =  -567.353650528     A.U. after   15 cycles
 SCF Done:  E(RB3LYP) =  -567.353662602     A.U. after    9 cycles
 Optimization completed.
    -- Stationary point found.
 Normal termination of Gaussian 09 at Sat Oct  2 11:08:52 2021.

 ----------------------------------------------------------------------
 #P Geom=AllCheck Guess=TCheck SCRF=Check GenChk RB3LYP/6-31G(d,p) Freq
 ----------------------------------------------------------------------

 Structure from the checkpoint file:  "/public/home/users/caep010/.cache/gau_scr/Gau-99065.chk"
 ---------------------
 B3LYP6-31G2dfp.EWUKAI
 ---------------------
 Charge =  0 Multiplicity = 1

                         Standard orientation:
 ---------------------------------------------------------------------
 Center     Atomic      Atomic             Coordinates (Angstroms)
 Number     Number       Type             X           Y           Z
 ---------------------------------------------------------------------
      1          8           0        0.672483    2.159151    0.000054
      2          6           0       -0.002277    1.007121   -0.002848
      3          6           0       -1.397594    1.057486   -0.002795
      4          6           0       -2.166189   -0.112705   -0.004440
      5          6           0       -1.515848   -1.376823   -0.004102
      6          6           0       -0.143217   -1.440868   -0.002676
      7          1           0       -2.107235   -2.286950   -0.010059
      8          7           0       -3.536520   -0.051020   -0.046325
      9          1           0       -3.985684    0.824027    0.174450
     10          6           0        0.632593   -0.267549   -0.001861
     11          7           0        2.055572   -0.385304    0.002234
     12          8           0        2.575375   -1.499852    0.004076
     13          8           0        2.744007    0.670922    0.003898
     14          1           0        0.375531   -2.391388   -0.000919
     15          1           0        1.631858    1.907869    0.001407
     16          1           0       -4.060747   -0.876739    0.196999
     17          1           0       -1.866824    2.035704   -0.005133
 ---------------------------------------------------------------------

 SCF Done:  E(RB3LYP) =  -567.353662602     A.U. after    1 cycles

 The electronic state is 1-A.
 Alpha  occ. eigenvalues --  -19.18027 -19.17656 -19.17495 -14.56754 -14.37515
 Alpha  occ. eigenvalues --  -10.28141 -10.26485 -10.24091 -10.21829 -10.20519
 Alpha  occ. eigenvalues --  -10.19825  -1.21490  -1.07537  -1.03631  -0.95187
 Alpha  occ. eigenvalues --   -0.87177  -0.79884  -0.76468  -0.69213  -0.63716
 Alpha  occ. eigenvalues --   -0.62223  -0.56198  -0.55525  -0.54677  -0.52617
 Alpha  occ. eigenvalues --   -0.50749  -0.49797  -0.46572  -0.44887  -0.43128
 Alpha  occ. eigenvalues --   -0.42513  -0.40349  -0.38401  -0.36548  -0.32407
 Alpha  occ. eigenvalues --   -0.30505  -0.30476  -0.28870  -0.24517  -0.23180
 Alpha virt. eigenvalues --   -0.08155  -0.00863   0.01831   0.05780   0.09303
 Alpha virt. eigenvalues --    0.09941   0.14625   0.15342   0.15770   0.16798
 Alpha virt. eigenvalues --    0.19827   0.23636   0.25151   0.27828   0.29161

 Mulliken charges:
               1
     1  O   -0.556745
     2  C    0.328641
     3  C   -0.158421
     4  C    0.329888
     5  C   -0.129888
     6  C   -0.102336
     7  H    0.088540
     8  N   -0.660264
     9  H    0.274983
    10  C    0.225810
    11  N    0.371931
    12  O   -0.406696
    13  O   -0.471961
    14  H    0.137596
    15  H    0.358501
    16  H    0.273580
    17  H    0.096841
 Sum of Mulliken charges =  -0.00000

 Dipole moment (field-independent basis, Debye):
    X=             -6.4235    Y=             -0.5340    Z=              0.7179  Tot=              6.4855
 Quadrupole moment (field-independent basis, Debye-Ang):
   XX=            -55.5711   YY=            -61.3900   ZZ=            -63.6018
   XY=              3.0873   XZ=             -3.1649   YZ=             -0.0418

  Exact polarizability: 150.559   0.113  97.209  -0.083  -0.003  31.574
 Approx polarizability: 267.854   2.350 186.819   1.627   0.020  48.876

                      1                      2                      3
                      A                      A                      A
 Frequencies --     96.6668               107.0869               222.9972
 Red. masses --      8.7968                 6.8982                 5.0771
 Frc consts  --      0.0484                 0.0466                 0.1488
 IR Inten    --      0.6305                 0.3890                 2.6936

                      4                      5                      6
                      A                      A                      A
 Frequencies --    261.0785               285.0440               348.6112
 Red. masses --      6.3148                 5.4040                 3.5421
 Frc consts  --      0.2536                 0.2587                 0.2536
 IR Inten    --      1.0189                 8.4252                63.4668

                      7                      8                      9
                      A                      A                      A
 Frequencies --    366.2406               377.4667               410.2711
 Red. masses --      1.6476                 3.4414                 1.0884
 Frc consts  --      0.1302                 0.2889                 0.1079
 IR Inten    --    271.3510                46.2727                43.8708

                     10                     11                     12
                      A                      A                      A
 Frequencies --    449.0307               454.6662               541.6663
 Red. masses --      6.4201                 3.0928                 7.4860
 Frc consts  --      0.7627                 0.3767                 1.2941
 IR Inten    --      2.5332                 3.2439                 5.4697

                     13                     14                     15
                      A                      A                      A
 Frequencies --    609.1322               645.5839               649.0508
 Red. masses --      4.8559                 6.5446                 5.1439
 Frc consts  --      1.0616                 1.6071                 1.2767
 IR Inten    --      0.3075                11.1628                 0.4248

                     16                     17                     18
                      A                      A                      A
 Frequencies --    683.2091               744.0862               764.3694
 Red. masses --      3.2413                 7.2202                 6.5800
 Frc consts  --      0.8914                 2.3553                 2.2651
 IR Inten    --      2.1874                23.8193                 1.6341

                     19                     20                     21
                      A                      A                      A
 Frequencies --    804.7656               813.0406               837.5641
 Red. masses --      1.4223                 1.2276                 1.4599
 Frc consts  --      0.5427                 0.4781                 0.6034
 IR Inten    --      8.2239               127.9809                10.4854

                     22                     23                     24
                      A                      A                      A
 Frequencies --    848.8104               968.8342               981.8157
 Red. masses --      9.1100                 1.2683                 2.6583
 Frc consts  --      3.8672                 0.7014                 1.5098
 IR Inten    --      6.9290                 1.6193                13.4862

                     25                     26                     27
                      A                      A                      A
 Frequencies --   1084.7961              1132.6697              1195.5504
 Red. masses --      1.5018                 2.1124                 1.5900
 Frc consts  --      1.0412                 1.5967                 1.3390
 IR Inten    --      0.5480                39.6848                45.0090

                     28                     29                     30
                      A                      A                      A
 Frequencies --   1249.7693              1255.6618              1321.2511
 Red. masses --      1.7255                 2.4926                 3.6800
 Frc consts  --      1.5879                 2.3155                 3.7850
 IR Inten    --    162.7478                22.0627               537.8054

                     31                     32                     33
                      A                      A                      A
 Frequencies --   1368.0316              1398.5569              1454.1279
 Red. masses --      4.1809                 2.4668                 3.1349
 Frc consts  --      4.6101                 2.8428                 3.9055
 IR Inten    --    136.5977                39.4876               114.1469

                     34                     35                     36
                      A                      A                      A
 Frequencies --   1525.3367              1538.8303              1611.8666
 Red. masses --      6.2046                 3.1943                 3.8595
 Frc consts  --      8.5054                 4.4567                 5.9080
 IR Inten    --    165.4451                93.0203               126.9307

                     37                     38                     39
                      A                      A                      A
 Frequencies --   1625.3751              1667.8900              1696.2197
 Red. masses --      5.2672                 1.2959                 4.6455
 Frc consts  --      8.1985                 2.1239                 7.8750
 IR Inten    --    221.8272                55.9797               427.9223

                     40                     41                     42
                      A                      A                      A
 Frequencies --   3197.0162              3206.9675              3242.1352
 Red. masses --      1.0903                 1.0911                 1.0928
 Frc consts  --      6.5655                 6.6117                 6.7682
 IR Inten    --      8.3363                 3.2226                 1.7852

                     43                     44                     45
                      A                      A                      A
 Frequencies --   3327.0281              3607.8081              3726.1221
 Red. masses --      1.0667                 1.0465                 1.1023
 Frc consts  --      6.9570                 8.0255                 9.0168
 IR Inten    --    244.8363                81.7664                27.5145

 - Thermochemistry -
 -------------------
 Temperature   298.150 Kelvin.  Pressure   1.00000 Atm.
 Atom     1 has atomic number  8 and mass  15.99491

 Molecular mass:   154.03784 amu.
 Principal axes and moments of inertia in atomic units:
                           1         2         3
     Eigenvalues --   766.094202226.081252991.48268
           X            0.99996   0.00864  -0.00237
           Y           -0.00864   0.99996  -0.00010
           Z            0.00237   0.00012   1.00000
 This molecule is an asymmetric top.
 Rotational symmetry number  1.
 Warning -- assumption of classical behavior for rotation
           may cause significant error
 Rotational temperatures (Kelvin)      0.11306     0.03891     0.02895
 Rotational constants (GHZ):           2.35577     0.81073     0.60329
 Zero-point vibrational energy     327203.2 (Joules/Mol)
                                   78.20344 (Kcal/Mol)
 Warning -- explicit consideration of  13 degrees of freedom as
           vibrations may cause significant error
 Vibrational temperatures:    139.08   154.07   320.84   375.63   410.11
          (Kelvin)            501.57   526.94   543.09   590.29   646.05
                              654.16   779.34   876.40   928.85   933.84
                              982.98  1070.57  1099.76  1157.88  1169.78
                             1205.07  1221.25  1393.93  1412.61  1560.78
                             1629.66  1720.13  1798.14  1806.62  1900.98
                             1968.29  2012.21  2092.16  2194.62  2214.03
                             2319.11  2338.55  2399.72  2440.48  4599.79
                             4614.11  4664.70  4786.85  5190.82  5361.05

 Zero-point correction=                           0.124625 (Hartree/Particle)
 Thermal correction to Energy=                    0.133655
 Thermal correction to Enthalpy=                  0.134599
 Thermal correction to Gibbs Free Energy=         0.090576
 Sum of electronic and zero-point Energies=           -567.229037
 Sum of electronic and thermal Energies=              -567.220007
 Sum of electronic and thermal Enthalpies=            -567.219063
 Sum of electronic and thermal Free Energies=         -567.263087

                     E (Thermal)             CV                S
                      KCal/Mol        Cal/Mol-Kelvin    Cal/Mol-Kelvin
 Total                   83.870             35.373             92.655
 Electronic               0.000              0.000              0.000
 Translational            0.889              2.981             41.006
 Rotational               0.889              2.981             30.013
 Vibrational             82.092             29.411             21.636
 Vibration     1          0.603              1.952              3.520
 Vibration     2          0.606              1.944              3.321
 Vibration     3          0.649              1.806              1.935
 Vibration     4          0.669              1.744              1.655
 Vibration     5          0.683              1.701              1.503
 Vibration     6          0.726              1.578              1.172
 Vibration     7          0.739              1.542              1.095
 Vibration     8          0.748              1.518              1.049
 Vibration     9          0.774              1.448              0.926
 Vibration    10          0.808              1.363              0.799
 Vibration    11          0.813              1.351              0.782
 Vibration    12          0.897              1.158              0.562
 Vibration    13          0.968              1.012              0.434

 Optimization completed.
    -- Stationary point found.
 Normal termination of Gaussian 09 at Sat Oct  2 11:09:14 2021.
