 Gaussian 09, Revision E.01,
 Gaussian 09:  ES64L-G09RevE.01 30-Nov-2015

 -------------------------
 #P OPT Freq B3LYP/6-31G**
 -------------------------

 ------
 JACYOB
 ------
 Symbolic Z-matrix:
 Charge =  0 Multiplicity = 1

 SCF Done:  E(RB3LYP) =  -605.294300985     A.U. after   16 cycles
 SCF Done:  E(RB3LYP) =  -605.414948958     A.U. after   14 cycles
 SCF Done:  E(RB3LYP) =  -605.459471741     A.U. after   14 cycles
 SCF Done:  E(RB3LYP) =  -605.463567927     A.U. after   15 cycles
 SCF Done:  E(RB3LYP) =  -605.454160905     A.U. after   16 cycles
 SCF Done:  E(RB3LYP) =  -605.463851452     A.U. after   12 cycles
 SCF Done:  E(RB3LYP) =  -605.464179882     A.U. after   14 cycles
 SCF Done:  E(RB3LYP) =  -605.464393450     A.U. after   13 cycles
 SCF Done:  E(RB3LYP) =  -605.464496495     A.U. after   12 cycles
 SCF Done:  E(RB3LYP) =  -605.464564301     A.U. after   12 cycles
 SCF Done:  E(RB3LYP) =  -605.464638413     A.U. after   13 cycles
 SCF Done:  E(RB3LYP) =  -605.464668964     A.U. after   12 cycles
 SCF Done:  E(RB3LYP) =  -605.464689545     A.U. after   12 cycles
 SCF Done:  E(RB3LYP) =  -605.464689890     A.U. after    9 cycles
 SCF Done:  E(RB3LYP) =  -605.464690096     A.U. after    8 cycles
 SCF Done:  E(RB3LYP) =  -605.464690120     A.U. after    7 cycles
 Optimization completed.
    -- Stationary point found.
 Normal termination of Gaussian 09 at Fri Aug 20 15:36:30 2021.

 ----------------------------------------------------------------------
 #P Geom=AllCheck Guess=TCheck SCRF=Check GenChk RB3LYP/6-31G(d,p) Freq
 ----------------------------------------------------------------------

 Structure from the checkpoint file:  "/public/home/users/caep010/.cache/gau_scr/Gau-22309.chk"
 ------
 JACYOB
 ------
 Charge =  0 Multiplicity = 1

                         Standard orientation:
 ---------------------------------------------------------------------
 Center     Atomic      Atomic             Coordinates (Angstroms)
 Number     Number       Type             X           Y           Z
 ---------------------------------------------------------------------
      1          6           0       -2.543901   -0.427977   -0.037029
      2          7           0       -2.608158   -1.769479    0.227783
      3          1           0       -3.536297   -2.162088    0.288039
      4          1           0       -1.871745   -2.245063    0.724210
      5          6           0       -1.174715    0.201142    0.005466
      6          6           0       -1.113565    1.600833    0.062466
      7          1           0       -2.049083    2.149263    0.070708
      8          6           0        0.011308   -0.535993   -0.036872
      9          1           0        0.026511   -1.614821   -0.126790
     10          6           0        0.114024    2.259344    0.101815
     11          6           0        1.302778    1.531594    0.072440
     12          1           0        0.148358    3.342674    0.152359
     13          8           0       -3.536486    0.231685   -0.316114
     14          6           0        1.226313    0.142851   -0.000301
     15          7           0        2.473909   -0.639854   -0.044997
     16          8           0        2.376749   -1.865784   -0.101853
     17          8           0        3.536662   -0.021686   -0.018895
     18          1           0        2.273151    2.010877    0.098956
 ---------------------------------------------------------------------

 SCF Done:  E(RB3LYP) =  -605.464690120     A.U. after    1 cycles

 The electronic state is 1-A.
 Alpha  occ. eigenvalues --  -19.18982 -19.18963 -19.12900 -14.58085 -14.37291
 Alpha  occ. eigenvalues --  -10.30881 -10.26486 -10.23514 -10.23224 -10.23201
 Alpha  occ. eigenvalues --  -10.22578 -10.22522  -1.23281  -1.06014  -1.04795
 Alpha  occ. eigenvalues --   -0.92125  -0.90110  -0.81865  -0.79016  -0.71186
 Alpha  occ. eigenvalues --   -0.66963  -0.62664  -0.58764  -0.57573  -0.54120
 Alpha  occ. eigenvalues --   -0.54007  -0.52335  -0.51675  -0.49780  -0.47476
 Alpha  occ. eigenvalues --   -0.46129  -0.43272  -0.42843  -0.39402  -0.39042
 Alpha  occ. eigenvalues --   -0.38664  -0.31835  -0.31657  -0.29994  -0.29251
 Alpha  occ. eigenvalues --   -0.28736  -0.28575  -0.26725
 Alpha virt. eigenvalues --   -0.09775  -0.05969  -0.01293   0.04420   0.06091
 Alpha virt. eigenvalues --    0.09075   0.11286   0.14057   0.14702   0.15473
 Alpha virt. eigenvalues --    0.17097   0.18804   0.22887   0.25466   0.26566

 Mulliken charges:
               1
     1  C    0.549449
     2  N   -0.618882
     3  H    0.284747
     4  H    0.273234
     5  C    0.027520
     6  C   -0.077064
     7  H    0.136388
     8  C   -0.121175
     9  H    0.134914
    10  C   -0.101399
    11  C   -0.081757
    12  H    0.113121
    13  O   -0.499365
    14  C    0.233805
    15  N    0.392060
    16  O   -0.396639
    17  O   -0.392022
    18  H    0.143064
 Sum of Mulliken charges =  -0.00000

 Dipole moment (field-independent basis, Debye):
    X=             -1.4965    Y=              0.2517    Z=              1.5543  Tot=              2.1722
 Quadrupole moment (field-independent basis, Debye-Ang):
   XX=            -85.8295   YY=            -57.7551   ZZ=            -67.1854
   XY=             12.4098   XZ=             -3.8426   YZ=             -1.9990

  Exact polarizability: 131.111   1.371 112.172   1.522  -0.426  35.873
 Approx polarizability: 214.325   1.760 208.775   5.593  -0.060  56.362

                      1                      2                      3
                      A                      A                      A
 Frequencies --     52.8925                57.6199               138.2636
 Red. masses --      7.8259                 9.0898                 5.3035
 Frc consts  --      0.0129                 0.0178                 0.0597
 IR Inten    --      5.6521                 7.8624                 6.7013

                      4                      5                      6
                      A                      A                      A
 Frequencies --    151.8929               191.1789               283.4545
 Red. masses --      6.6183                 4.7649                 5.4978
 Frc consts  --      0.0900                 0.1026                 0.2603
 IR Inten    --      3.7509                 1.4501                 7.3820

                      7                      8                      9
                      A                      A                      A
 Frequencies --    345.0397               366.2994               395.6900
 Red. masses --      7.4756                 1.3026                 5.4498
 Frc consts  --      0.5244                 0.1030                 0.5027
 IR Inten    --      9.5060               177.7834                 0.2433

                     10                     11                     12
                      A                      A                      A
 Frequencies --    425.1768               448.8410               495.0919
 Red. masses --      2.9856                 3.9634                 4.5525
 Frc consts  --      0.3180                 0.4704                 0.6575
 IR Inten    --      8.7456                 4.7418                 4.1269

                     13                     14                     15
                      A                      A                      A
 Frequencies --    557.5741               572.6289               624.3972
 Red. masses --      4.4882                 1.4024                 4.3324
 Frc consts  --      0.8221                 0.2709                 0.9952
 IR Inten    --      4.9454                19.7619                28.5486

                     16                     17                     18
                      A                      A                      A
 Frequencies --    679.6518               687.5614               732.1216
 Red. masses --      3.8368                 4.6081                 2.9549
 Frc consts  --      1.0442                 1.2835                 0.9332
 IR Inten    --      3.3518                 8.4503                67.6197

                     19                     20                     21
                      A                      A                      A
 Frequencies --    779.6453               790.2359               840.0691
 Red. masses --      6.7678                 7.1480                 1.5484
 Frc consts  --      2.4238                 2.6300                 0.6438
 IR Inten    --      6.6116                15.7752                 8.1457

                     22                     23                     24
                      A                      A                      A
 Frequencies --    903.4279               937.8361               975.0517
 Red. masses --      6.4094                 1.5279                 1.3757
 Frc consts  --      3.0821                 0.7918                 0.7706
 IR Inten    --     21.8465                 7.0392                 0.7703

                     25                     26                     27
                      A                      A                      A
 Frequencies --   1015.0709              1019.1189              1086.3497
 Red. masses --      1.3455                 5.8511                 1.9221
 Frc consts  --      0.8168                 3.5805                 1.3365
 IR Inten    --      0.6385                 0.7287                10.0921

                     28                     29                     30
                      A                      A                      A
 Frequencies --   1113.4706              1116.9986              1166.9279
 Red. masses --      1.5612                 1.6252                 3.5656
 Frc consts  --      1.1404                 1.1947                 2.8607
 IR Inten    --     11.7220                33.1440                11.5102

                     31                     32                     33
                      A                      A                      A
 Frequencies --   1189.7120              1309.3242              1372.0666
 Red. masses --      1.1794                 1.3684                 4.8984
 Frc consts  --      0.9835                 1.3821                 5.4332
 IR Inten    --      3.1941                 9.4846                81.1832

                     34                     35                     36
                      A                      A                      A
 Frequencies --   1382.6975              1400.4253              1468.1036
 Red. masses --      5.2917                11.6982                 3.1542
 Frc consts  --      5.9607                13.5173                 4.0055
 IR Inten    --    177.7428               255.8312                 1.9914

                     37                     38                     39
                      A                      A                      A
 Frequencies --   1520.2462              1624.1314              1627.2063
 Red. masses --      2.5043                 7.8648                 1.3344
 Frc consts  --      3.4101                12.2231                 2.0818
 IR Inten    --      4.0875               100.0641               158.5835

                     40                     41                     42
                      A                      A                      A
 Frequencies --   1637.9710              1678.5092              1789.7315
 Red. masses --      5.6878                 8.3528                 8.8728
 Frc consts  --      8.9910                13.8653                16.7450
 IR Inten    --     14.7954                82.8625               263.0271

                     43                     44                     45
                      A                      A                      A
 Frequencies --   3206.7478              3228.1331              3240.9223
 Red. masses --      1.0894                 1.0932                 1.0907
 Frc consts  --      6.6005                 6.7123                 6.7498
 IR Inten    --      6.0378                 2.5555                 2.1050

                     46                     47                     48
                      A                      A                      A
 Frequencies --   3247.6424              3600.6690              3732.7153
 Red. masses --      1.0933                 1.0459                 1.1036
 Frc consts  --      6.7938                 7.9891                 9.0594
 IR Inten    --      2.0504                46.6271                39.0406

 - Thermochemistry -
 -------------------
 Temperature   298.150 Kelvin.  Pressure   1.00000 Atm.
 Atom     1 has atomic number  6 and mass  12.00000

 Molecular mass:   166.03784 amu.
 Principal axes and moments of inertia in atomic units:
                           1         2         3
     Eigenvalues --   957.896293029.123773962.46094
           X            0.99977   0.02118  -0.00279
           Y           -0.02119   0.99977  -0.00457
           Z            0.00269   0.00463   0.99999
 This molecule is an asymmetric top.
 Rotational symmetry number  1.
 Warning -- assumption of classical behavior for rotation
           may cause significant error
 Rotational temperatures (Kelvin)      0.09042     0.02859     0.02186
 Rotational constants (GHZ):           1.88407     0.59580     0.45546
 Zero-point vibrational energy     342171.1 (Joules/Mol)
                                   81.78084 (Kcal/Mol)
 Warning -- explicit consideration of  14 degrees of freedom as
           vibrations may cause significant error
 Vibrational temperatures:     76.10    82.90   198.93   218.54   275.06
          (Kelvin)            407.83   496.43   527.02   569.31   611.73
                              645.78   712.33   802.22   823.88   898.37
                              977.87   989.25  1053.36  1121.73  1136.97
                             1208.67  1299.83  1349.34  1402.88  1460.46
                             1466.28  1563.01  1602.03  1607.11  1678.95
                             1711.73  1883.82  1974.10  1989.39  2014.90
                             2112.27  2187.29  2336.76  2341.18  2356.67
                             2415.00  2575.02  4613.79  4644.56  4662.96
                             4672.63  5180.55  5370.54

 Zero-point correction=                           0.130326 (Hartree/Particle)
 Thermal correction to Energy=                    0.140385
 Thermal correction to Enthalpy=                  0.141329
 Thermal correction to Gibbs Free Energy=         0.093803
 Sum of electronic and zero-point Energies=           -605.334364
 Sum of electronic and thermal Energies=              -605.324305
 Sum of electronic and thermal Enthalpies=            -605.323361
 Sum of electronic and thermal Free Energies=         -605.370888

                     E (Thermal)             CV                S
                      KCal/Mol        Cal/Mol-Kelvin    Cal/Mol-Kelvin
 Total                   88.093             37.728            100.029
 Electronic               0.000              0.000              0.000
 Translational            0.889              2.981             41.229
 Rotational               0.889              2.981             30.820
 Vibrational             86.316             31.767             27.979
 Vibration     1          0.596              1.976              4.706
 Vibration     2          0.596              1.974              4.537
 Vibration     3          0.614              1.915              2.828
 Vibration     4          0.619              1.901              2.648
 Vibration     5          0.634              1.852              2.216
 Vibration     6          0.682              1.704              1.513
 Vibration     7          0.723              1.585              1.189
 Vibration     8          0.739              1.542              1.095
 Vibration     9          0.762              1.479              0.979
 Vibration    10          0.787              1.415              0.875
 Vibration    11          0.808              1.363              0.799
 Vibration    12          0.851              1.261              0.671
 Vibration    13          0.913              1.123              0.529
 Vibration    14          0.929              1.090              0.499

 Optimization completed.
    -- Stationary point found.
 Normal termination of Gaussian 09 at Fri Aug 20 15:36:56 2021.
