 Gaussian 09, Revision E.01,
 Gaussian 09:  ES64L-G09RevE.01 30-Nov-2015

 -------------------------
 #P OPT Freq B3LYP/6-31G**
 -------------------------

 --------
 DIMNAN03
 --------
 Symbolic Z-matrix:
 Charge =  0 Multiplicity = 1

 SCF Done:  E(RB3LYP) =  -570.560944541     A.U. after   15 cycles
 SCF Done:  E(RB3LYP) =  -570.669504365     A.U. after   14 cycles
 SCF Done:  E(RB3LYP) =  -570.736327839     A.U. after   14 cycles
 SCF Done:  E(RB3LYP) =  -570.737508641     A.U. after   13 cycles
 SCF Done:  E(RB3LYP) =  -570.735788914     A.U. after   14 cycles
 SCF Done:  E(RB3LYP) =  -570.737629953     A.U. after   10 cycles
 SCF Done:  E(RB3LYP) =  -570.737773682     A.U. after   13 cycles
 SCF Done:  E(RB3LYP) =  -570.737827648     A.U. after   11 cycles
 SCF Done:  E(RB3LYP) =  -570.737852512     A.U. after   11 cycles
 SCF Done:  E(RB3LYP) =  -570.737879602     A.U. after   11 cycles
 SCF Done:  E(RB3LYP) =  -570.737894904     A.U. after   11 cycles
 SCF Done:  E(RB3LYP) =  -570.737905458     A.U. after   11 cycles
 SCF Done:  E(RB3LYP) =  -570.737906708     A.U. after   10 cycles
 SCF Done:  E(RB3LYP) =  -570.737907248     A.U. after    9 cycles
 SCF Done:  E(RB3LYP) =  -570.737907573     A.U. after    8 cycles
 SCF Done:  E(RB3LYP) =  -570.737908044     A.U. after    9 cycles
 SCF Done:  E(RB3LYP) =  -570.737909147     A.U. after    8 cycles
 SCF Done:  E(RB3LYP) =  -570.737910779     A.U. after   10 cycles
 SCF Done:  E(RB3LYP) =  -570.737910964     A.U. after    9 cycles
 Optimization completed.
    -- Stationary point found.
 Normal termination of Gaussian 09 at Fri Aug 20 16:03:25 2021.

 ----------------------------------------------------------------------
 #P Geom=AllCheck Guess=TCheck SCRF=Check GenChk RB3LYP/6-31G(d,p) Freq
 ----------------------------------------------------------------------

 Structure from the checkpoint file:  "/public/home/users/caep010/.cache/gau_scr/Gau-79065.chk"
 --------
 DIMNAN03
 --------
 Charge =  0 Multiplicity = 1

                         Standard orientation:
 ---------------------------------------------------------------------
 Center     Atomic      Atomic             Coordinates (Angstroms)
 Number     Number       Type             X           Y           Z
 ---------------------------------------------------------------------
      1          8           0        3.531446    1.091082    0.000776
      2          7           0        2.952148    0.000005    0.000011
      3          8           0        3.531423   -1.091088   -0.000742
      4          6           0        1.499059    0.000004   -0.000011
      5          6           0        0.806731   -1.212388    0.000137
      6          6           0       -0.577399   -1.215229    0.000180
      7          6           0        0.806713    1.212388   -0.000188
      8          1           0        1.366828    2.139166   -0.000305
      9          6           0       -0.577417    1.215210   -0.000214
     10          1           0       -1.093902    2.166149   -0.000450
     11          6           0       -1.312185   -0.000015    0.000030
     12          7           0       -2.686491   -0.000006    0.000054
     13          6           0       -3.419272   -1.257061    0.000203
     14          1           0       -4.488837   -1.047662    0.000365
     15          6           0       -3.419212    1.257087   -0.000212
     16          1           0       -4.488787    1.047738    0.000003
     17          1           0       -3.193060    1.861001    0.888158
     18          1           0       -3.193318    1.860528   -0.888978
     19          1           0       -3.193412   -1.860807   -0.888359
     20          1           0       -3.193150   -1.860694    0.888777
     21          1           0       -1.093865   -2.166176    0.000311
     22          1           0        1.366857   -2.139161    0.000198
 ---------------------------------------------------------------------

 SCF Done:  E(RB3LYP) =  -570.737910964     A.U. after    1 cycles

 The electronic state is 1-A.
 Alpha  occ. eigenvalues --  -19.15787 -19.15786 -14.55060 -14.38102 -10.25304
 Alpha  occ. eigenvalues --  -10.23888 -10.23887 -10.22950 -10.20854 -10.20853
 Alpha  occ. eigenvalues --  -10.20154 -10.20154  -1.20004  -1.02632  -0.97225
 Alpha  occ. eigenvalues --   -0.87155  -0.79306  -0.76948  -0.74276  -0.71720
 Alpha  occ. eigenvalues --   -0.64567  -0.62271  -0.57811  -0.55016  -0.52413
 Alpha  occ. eigenvalues --   -0.51013  -0.50830  -0.48500  -0.48247  -0.46559
 Alpha  occ. eigenvalues --   -0.44052  -0.43729  -0.42914  -0.42913  -0.40424
 Alpha  occ. eigenvalues --   -0.40265  -0.38216  -0.35425  -0.30751  -0.28887
 Alpha  occ. eigenvalues --   -0.28805  -0.26930  -0.26738  -0.21403
 Alpha virt. eigenvalues --   -0.06722  -0.01469   0.02613   0.06864   0.08782
 Alpha virt. eigenvalues --    0.10789   0.10873   0.14431   0.14493   0.14936
 Alpha virt. eigenvalues --    0.15502   0.15789   0.16275   0.17655   0.20961

 Mulliken charges:
               1
     1  O   -0.416360
     2  N    0.370851
     3  O   -0.416360
     4  C    0.246126
     5  C   -0.103561
     6  C   -0.142462
     7  C   -0.103562
     8  H    0.131493
     9  C   -0.142464
    10  H    0.091997
    11  C    0.370645
    12  N   -0.510426
    13  C   -0.173280
    14  H    0.116756
    15  C   -0.173280
    16  H    0.116754
    17  H    0.128415
    18  H    0.128407
    19  H    0.128408
    20  H    0.128412
    21  H    0.091996
    22  H    0.131495
 Sum of Mulliken charges =  -0.00000

 Dipole moment (field-independent basis, Debye):
    X=             -8.0712    Y=              0.0000    Z=             -0.0001  Tot=              8.0712
 Quadrupole moment (field-independent basis, Debye-Ang):
   XX=            -76.5279   YY=            -65.2785   ZZ=            -70.9710
   XY=              0.0000   XZ=             -0.0002   YZ=             -0.0049

  Exact polarizability: 185.717   0.000 110.433   0.001   0.002  48.815
 Approx polarizability: 289.936   0.000 204.038  -0.000   0.018  73.760

                      1                      2                      3
                      A                      A                      A
 Frequencies --     47.0530                64.2873                84.1038
 Red. masses --      2.2899                 4.8845                 2.7905
 Frc consts  --      0.0030                 0.0119                 0.0116
 IR Inten    --      1.5844                 0.0000                 0.0000

                      4                      5                      6
                      A                      A                      A
 Frequencies --     85.2326               176.5510               200.2812
 Red. masses --      2.5842                 5.0513                 1.1362
 Frc consts  --      0.0111                 0.0928                 0.0269
 IR Inten    --      1.3030                 0.5695                 0.0044

                      7                      8                      9
                      A                      A                      A
 Frequencies --    200.8745               291.2931               306.2601
 Red. masses --      2.0603                 4.2705                 5.9229
 Frc consts  --      0.0490                 0.2135                 0.3273
 IR Inten    --      5.2602                 0.1983                 0.1643

                     10                     11                     12
                      A                      A                      A
 Frequencies --    319.9816               436.3346               475.6090
 Red. masses --      3.8349                 3.2485                 3.2882
 Frc consts  --      0.2313                 0.3644                 0.4382
 IR Inten    --      0.3703                 0.0000                 0.1930

                     13                     14                     15
                      A                      A                      A
 Frequencies --    476.8191               510.5503               548.9613
 Red. masses --      4.3766                 2.7341                 5.7780
 Frc consts  --      0.5863                 0.4199                 1.0259
 IR Inten    --      2.1096                 3.9045                 4.8193

                     16                     17                     18
                      A                      A                      A
 Frequencies --    621.2645               645.3983               704.8555
 Red. masses --      4.8548                 7.1971                 3.3907
 Frc consts  --      1.1040                 1.7663                 0.9925
 IR Inten    --      5.3892                 0.5583                 9.1647

                     19                     20                     21
                      A                      A                      A
 Frequencies --    759.0611               763.6152               812.8706
 Red. masses --      6.9764                 5.8170                 1.2495
 Frc consts  --      2.3683                 1.9985                 0.4864
 IR Inten    --     24.2144                10.6451                 0.0000

                     22                     23                     24
                      A                      A                      A
 Frequencies --    842.0343               865.4293               966.7156
 Red. masses --      1.9210                10.2264                 3.0457
 Frc consts  --      0.8025                 4.5127                 1.6770
 IR Inten    --     39.4691                17.1687                20.6364

                     25                     26                     27
                      A                      A                      A
 Frequencies --    973.5400               983.6621              1017.7749
 Red. masses --      1.3016                 1.3040                 3.0281
 Frc consts  --      0.7268                 0.7434                 1.8481
 IR Inten    --      0.0000                 1.4515                 4.6769

                     28                     29                     30
                      A                      A                      A
 Frequencies --   1086.7419              1140.7952              1141.9233
 Red. masses --      1.5214                 2.3426                 1.3089
 Frc consts  --      1.0587                 1.7962                 1.0056
 IR Inten    --     27.7388               147.8843                 0.0807

                     31                     32                     33
                      A                      A                      A
 Frequencies --   1148.9166              1149.6082              1203.2237
 Red. masses --      1.2897                 1.2348                 1.6947
 Frc consts  --      1.0030                 0.9615                 1.4456
 IR Inten    --      5.2195                 0.0000                 7.1653

                     34                     35                     36
                      A                      A                      A
 Frequencies --   1227.9360              1280.4825              1343.8738
 Red. masses --      1.4064                 2.9205                 1.4610
 Frc consts  --      1.2494                 2.8213                 1.5546
 IR Inten    --     30.2420                29.3378                 3.6408

                     37                     38                     39
                      A                      A                      A
 Frequencies --   1377.7065              1391.7499              1409.9218
 Red. masses --      7.6759                 8.2950                 3.6137
 Frc consts  --      8.5841                 9.4665                 4.2324
 IR Inten    --   1025.4904                 4.1517                 0.6755

                     40                     41                     42
                      A                      A                      A
 Frequencies --   1458.1968              1483.5042              1494.6051
 Red. masses --      1.2493                 2.5886                 1.0380
 Frc consts  --      1.5651                 3.3565                 1.3661
 IR Inten    --      0.0935                 4.0663                 0.0000

                     43                     44                     45
                      A                      A                      A
 Frequencies --   1500.9879              1503.4033              1528.8358
 Red. masses --      1.2481                 1.0439                 1.1039
 Frc consts  --      1.6568                 1.3902                 1.5202
 IR Inten    --     17.6446                10.5709                 0.5198

                     46                     47                     48
                      A                      A                      A
 Frequencies --   1540.5855              1564.2255              1591.3175
 Red. masses --      1.1474                 2.3109                 9.6773
 Frc consts  --      1.6045                 3.3314                14.4383
 IR Inten    --     17.6390               150.5949                79.2707

                     49                     50                     51
                      A                      A                      A
 Frequencies --   1649.2070              1661.8974              3012.7498
 Red. masses --      9.3473                 5.6289                 1.0376
 Frc consts  --     14.9791                 9.1598                 5.5491
 IR Inten    --    131.4792               306.7891                77.1849

                     52                     53                     54
                      A                      A                      A
 Frequencies --   3020.0703              3063.7650              3065.0248
 Red. masses --      1.0410                 1.1031                 1.1064
 Frc consts  --      5.5939                 6.1008                 6.1239
 IR Inten    --     56.2830                 0.0001                65.5875

                     55                     56                     57
                      A                      A                      A
 Frequencies --   3147.6859              3159.9602              3229.7926
 Red. masses --      1.0979                 1.0954                 1.0874
 Frc consts  --      6.4093                 6.4442                 6.6835
 IR Inten    --      1.8791                31.3845                 3.9364

                     58                     59                     60
                      A                      A                      A
 Frequencies --   3230.8902              3244.4047              3245.3888
 Red. masses --      1.0876                 1.0938                 1.0945
 Frc consts  --      6.6893                 6.7838                 6.7922
 IR Inten    --      6.5178                 1.0415                 5.3806

 - Thermochemistry -
 -------------------
 Temperature   298.150 Kelvin.  Pressure   1.00000 Atm.
 Atom     1 has atomic number  8 and mass  15.99491

 Molecular mass:   166.07423 amu.
 Principal axes and moments of inertia in atomic units:
                           1         2         3
     Eigenvalues --   659.800723793.583244430.65094
           X            1.00000  -0.00000   0.00000
           Y            0.00000   1.00000  -0.00003
           Z           -0.00000   0.00003   1.00000
 This molecule is an asymmetric top.
 Rotational symmetry number  1.
 Warning -- assumption of classical behavior for rotation
           may cause significant error
 Rotational temperatures (Kelvin)      0.13127     0.02283     0.01955
 Rotational constants (GHZ):           2.73528     0.47574     0.40733
 Zero-point vibrational energy     463432.1 (Joules/Mol)
                                  110.76292 (Kcal/Mol)
 Warning -- explicit consideration of  15 degrees of freedom as
           vibrations may cause significant error
 Vibrational temperatures:     67.70    92.50   121.01   122.63   254.02
          (Kelvin)            288.16   289.01   419.11   440.64   460.38
                              627.79   684.29   686.04   734.57   789.83
                              893.86   928.58  1014.13  1092.12  1098.67
                             1169.54  1211.50  1245.16  1390.89  1400.71
                             1415.27  1464.35  1563.58  1641.35  1642.97
                             1653.03  1654.03  1731.17  1766.72  1842.33
                             1933.53  1982.21  2002.42  2028.56  2098.02
                             2134.43  2150.40  2159.58  2163.06  2199.65
                             2216.56  2250.57  2289.55  2372.84  2391.10
                             4334.67  4345.20  4408.07  4409.88  4528.81
                             4546.47  4646.95  4648.52  4667.97  4669.38

 Zero-point correction=                           0.176512 (Hartree/Particle)
 Thermal correction to Energy=                    0.187813
 Thermal correction to Enthalpy=                  0.188757
 Thermal correction to Gibbs Free Energy=         0.138324
 Sum of electronic and zero-point Energies=           -570.561399
 Sum of electronic and thermal Energies=              -570.550098
 Sum of electronic and thermal Enthalpies=            -570.549154
 Sum of electronic and thermal Free Energies=         -570.599587

                     E (Thermal)             CV                S
                      KCal/Mol        Cal/Mol-Kelvin    Cal/Mol-Kelvin
 Total                  117.854             41.240            106.145
 Electronic               0.000              0.000              0.000
 Translational            0.889              2.981             41.230
 Rotational               0.889              2.981             30.784
 Vibrational            116.077             35.279             34.131
 Vibration     1          0.595              1.979              4.938
 Vibration     2          0.597              1.971              4.321
 Vibration     3          0.601              1.960              3.793
 Vibration     4          0.601              1.959              3.767
 Vibration     5          0.628              1.871              2.365
 Vibration     6          0.638              1.839              2.131
 Vibration     7          0.638              1.839              2.125
 Vibration     8          0.687              1.690              1.466
 Vibration     9          0.697              1.662              1.382
 Vibration    10          0.706              1.635              1.310
 Vibration    11          0.797              1.391              0.838
 Vibration    12          0.832              1.304              0.722
 Vibration    13          0.833              1.301              0.719
 Vibration    14          0.866              1.227              0.632
 Vibration    15          0.904              1.142              0.546

 Optimization completed.
    -- Stationary point found.
 Normal termination of Gaussian 09 at Fri Aug 20 16:03:57 2021.
