 Gaussian 09, Revision E.01,
 Gaussian 09:  ES64L-G09RevE.01 30-Nov-2015

 -------------------------
 #P OPT Freq B3LYP/6-31G**
 -------------------------

 --------
 EWUKIQ01
 --------
 Symbolic Z-matrix:
 Charge =  0 Multiplicity = 1

 SCF Done:  E(RB3LYP) =  -747.001324984     A.U. after   16 cycles
 SCF Done:  E(RB3LYP) =  -747.080308374     A.U. after   14 cycles
 SCF Done:  E(RB3LYP) =  -747.098647024     A.U. after   15 cycles
 SCF Done:  E(RB3LYP) =  -747.100064569     A.U. after   14 cycles
 SCF Done:  E(RB3LYP) =  -747.089202498     A.U. after   18 cycles
 SCF Done:  E(RB3LYP) =  -747.101957787     A.U. after   13 cycles
 SCF Done:  E(RB3LYP) =  -747.105729270     A.U. after   15 cycles
 SCF Done:  E(RB3LYP) =  -747.106345593     A.U. after   14 cycles
 SCF Done:  E(RB3LYP) =  -747.106859618     A.U. after   14 cycles
 SCF Done:  E(RB3LYP) =  -747.106967998     A.U. after   13 cycles
 SCF Done:  E(RB3LYP) =  -747.107039043     A.U. after   10 cycles
 SCF Done:  E(RB3LYP) =  -747.107041700     A.U. after    9 cycles
 SCF Done:  E(RB3LYP) =  -747.107043281     A.U. after    9 cycles
 SCF Done:  E(RB3LYP) =  -747.107044005     A.U. after    9 cycles
 SCF Done:  E(RB3LYP) =  -747.107044722     A.U. after    9 cycles
 SCF Done:  E(RB3LYP) =  -747.107045578     A.U. after   10 cycles
 SCF Done:  E(RB3LYP) =  -747.107046099     A.U. after   10 cycles
 SCF Done:  E(RB3LYP) =  -747.107046286     A.U. after    9 cycles
 SCF Done:  E(RB3LYP) =  -747.107046394     A.U. after    8 cycles
 Optimization completed.
    -- Stationary point found.
 Normal termination of Gaussian 09 at Fri Aug 20 16:04:27 2021.

 ----------------------------------------------------------------------
 #P Geom=AllCheck Guess=TCheck SCRF=Check GenChk RB3LYP/6-31G(d,p) Freq
 ----------------------------------------------------------------------

 Structure from the checkpoint file:  "/public/home/users/caep010/.cache/gau_scr/Gau-56365.chk"
 --------
 EWUKIQ01
 --------
 Charge =  0 Multiplicity = 1

                         Standard orientation:
 ---------------------------------------------------------------------
 Center     Atomic      Atomic             Coordinates (Angstroms)
 Number     Number       Type             X           Y           Z
 ---------------------------------------------------------------------
      1          7           0        2.912389   -0.116324   -0.300105
      2          7           0        1.925426    0.839204   -0.253746
      3          8           0        3.968820    0.250068   -0.793368
      4          8           0        2.738845   -1.283305    0.139199
      5          6           0        0.741751    0.517200    0.268271
      6          7           0       -0.172401    1.526588    0.228045
      7          1           0        0.117747    2.360250   -0.261282
      8          6           0       -1.512297    1.389865    0.769479
      9          1           0       -1.549603    1.636487    1.837280
     10          7           0       -1.962197    0.006795    0.663493
     11          1           0       -2.198791    2.036961    0.229288
     12          7           0       -2.431489   -0.367703   -0.639484
     13          8           0       -2.430345   -1.560763   -0.898710
     14          8           0       -2.862501    0.535295   -1.340447
     15          7           0        0.345487   -0.659237    0.793044
     16          6           0       -1.011456   -0.918707    1.262973
     17          1           0       -1.299483   -1.936582    1.009180
     18          1           0       -1.087174   -0.784511    2.347777
     19          1           0        1.070246   -1.378382    0.741294
 ---------------------------------------------------------------------

 SCF Done:  E(RB3LYP) =  -747.107046394     A.U. after    1 cycles

 The electronic state is 1-A.
 Alpha  occ. eigenvalues --  -19.21696 -19.21684 -19.16494 -19.16158 -14.63202
 Alpha  occ. eigenvalues --  -14.58146 -14.44725 -14.40467 -14.39915 -14.36122
 Alpha  occ. eigenvalues --  -10.34556 -10.31256 -10.31049  -1.27658  -1.21819
 Alpha  occ. eigenvalues --   -1.09920  -1.06617  -1.03319  -0.99581  -0.95184
 Alpha  occ. eigenvalues --   -0.92210  -0.78774  -0.76874  -0.71248  -0.66204
 Alpha  occ. eigenvalues --   -0.61327  -0.59017  -0.58620  -0.58002  -0.55882
 Alpha  occ. eigenvalues --   -0.54223  -0.53195  -0.52858  -0.52138  -0.50586
 Alpha  occ. eigenvalues --   -0.50252  -0.49251  -0.44077  -0.42279  -0.36507
 Alpha  occ. eigenvalues --   -0.34743  -0.34507  -0.32919  -0.32517  -0.30168
 Alpha  occ. eigenvalues --   -0.29818  -0.29038  -0.26916  -0.26621
 Alpha virt. eigenvalues --   -0.08518  -0.05861   0.03057   0.04789   0.06052
 Alpha virt. eigenvalues --    0.08296   0.09871   0.10249   0.12077   0.13345
 Alpha virt. eigenvalues --    0.15328   0.16809   0.17126   0.17452   0.20974

 Mulliken charges:
               1
     1  N    0.594904
     2  N   -0.436735
     3  O   -0.386546
     4  O   -0.474472
     5  C    0.811198
     6  N   -0.568684
     7  H    0.299164
     8  C    0.086448
     9  H    0.152672
    10  N   -0.328597
    11  H    0.179435
    12  N    0.661042
    13  O   -0.383523
    14  O   -0.388618
    15  N   -0.572952
    16  C    0.090738
    17  H    0.184891
    18  H    0.154279
    19  H    0.325356
 Sum of Mulliken charges =  -0.00000

 Dipole moment (field-independent basis, Debye):
    X=             -5.1173    Y=              1.7992    Z=              4.4171  Tot=              6.9953
 Quadrupole moment (field-independent basis, Debye-Ang):
   XX=            -98.5727   YY=            -68.1274   ZZ=            -71.7496
   XY=             -3.1033   XZ=             -3.1538   YZ=             -1.1698

  Exact polarizability: 114.729  -4.091  86.244  -8.660  -5.648  65.981
 Approx polarizability: 164.260  -5.804 167.013 -18.403 -19.884 110.160

                      1                      2                      3
                      A                      A                      A
 Frequencies --     34.7872                50.3153                79.7858
 Red. masses --     12.1502                 8.3330                15.0027
 Frc consts  --      0.0087                 0.0124                 0.0563
 IR Inten    --      1.0540                 0.8259                 0.1552

                      4                      5                      6
                      A                      A                      A
 Frequencies --    102.6162               125.0607               193.4914
 Red. masses --      5.8391                 6.5805                11.4130
 Frc consts  --      0.0362                 0.0606                 0.2518
 IR Inten    --      0.1828                 2.5351                 7.4190

                      7                      8                      9
                      A                      A                      A
 Frequencies --    213.9288               367.6622               371.8812
 Red. masses --      6.5295                 3.2175                 3.3309
 Frc consts  --      0.1761                 0.2562                 0.2714
 IR Inten    --      5.5943                 5.0430                11.0737

                     10                     11                     12
                      A                      A                      A
 Frequencies --    393.0813               413.3524               436.6301
 Red. masses --      1.5008                 4.5860                 2.8709
 Frc consts  --      0.1366                 0.4617                 0.3225
 IR Inten    --     55.0260                 3.0157                17.7304

                     13                     14                     15
                      A                      A                      A
 Frequencies --    507.1657               542.5913               636.8110
 Red. masses --      5.2453                 6.8648                 3.6662
 Frc consts  --      0.7949                 1.1908                 0.8760
 IR Inten    --      7.5256                11.9550                18.5641

                     16                     17                     18
                      A                      A                      A
 Frequencies --    654.9933               688.9084               711.9855
 Red. masses --      4.3231                 1.7070                 4.2305
 Frc consts  --      1.0927                 0.4773                 1.2635
 IR Inten    --      8.1480                19.7448                67.4104

                     19                     20                     21
                      A                      A                      A
 Frequencies --    756.9538               771.4914               779.3731
 Red. masses --      8.4405                10.5141                13.9144
 Frc consts  --      2.8494                 3.6871                 4.9797
 IR Inten    --     11.6915                12.9704                16.0700

                     22                     23                     24
                      A                      A                      A
 Frequencies --    826.0830               876.4432               917.1606
 Red. masses --      6.8210                 8.0433                 4.6652
 Frc consts  --      2.7425                 3.6403                 2.3121
 IR Inten    --     22.6589                 3.9362                96.4717

                     25                     26                     27
                      A                      A                      A
 Frequencies --    979.7397               993.2555              1000.1684
 Red. masses --      3.0943                 2.1193                 5.0894
 Frc consts  --      1.7500                 1.2319                 2.9996
 IR Inten    --    118.9186                38.7977                64.4732

                     28                     29                     30
                      A                      A                      A
 Frequencies --   1044.5404              1132.0100              1162.1708
 Red. masses --      2.5545                 2.1768                 2.1852
 Frc consts  --      1.6421                 1.6435                 1.7389
 IR Inten    --     32.2846               207.1171                40.6588

                     31                     32                     33
                      A                      A                      A
 Frequencies --   1226.6436              1283.3338              1293.4699
 Red. masses --      5.4774                 2.8476                 1.4204
 Frc consts  --      4.8558                 2.7632                 1.4001
 IR Inten    --      1.3442               237.1175                61.9494

                     34                     35                     36
                      A                      A                      A
 Frequencies --   1341.3724              1342.5371              1362.1898
 Red. masses --      1.6716                 2.8006                 1.4702
 Frc consts  --      1.7721                 2.9741                 1.6073
 IR Inten    --     52.4747               216.6667                45.0096

                     37                     38                     39
                      A                      A                      A
 Frequencies --   1371.2702              1424.0992              1440.0478
 Red. masses --      2.2283                 1.7258                 1.6030
 Frc consts  --      2.4687                 2.0621                 1.9585
 IR Inten    --     69.6546               159.5206                78.2224

                     40                     41                     42
                      A                      A                      A
 Frequencies --   1490.5537              1519.4698              1575.7607
 Red. masses --      1.1812                 1.1124                 3.7864
 Frc consts  --      1.5462                 1.5132                 5.5393
 IR Inten    --      2.5001                42.3422               346.7691

                     43                     44                     45
                      A                      A                      A
 Frequencies --   1633.4230              1675.0723              1703.7165
 Red. masses --      7.5372                 3.3302                12.5795
 Frc consts  --     11.8484                 5.5053                21.5134
 IR Inten    --    559.7050               354.3740               280.8018

                     46                     47                     48
                      A                      A                      A
 Frequencies --   3051.5908              3064.7815              3179.0963
 Red. masses --      1.0729                 1.0729                 1.0949
 Frc consts  --      5.8864                 5.9376                 6.5198
 IR Inten    --     14.1706                58.3288                 0.6671

                     49                     50                     51
                      A                      A                      A
 Frequencies --   3187.0558              3422.4986              3657.0460
 Red. masses --      1.0946                 1.0795                 1.0782
 Frc consts  --      6.5506                 7.4499                 8.4962
 IR Inten    --      0.7686               265.6883                83.0761

 - Thermochemistry -
 -------------------
 Temperature   298.150 Kelvin.  Pressure   1.00000 Atm.
 Atom     1 has atomic number  7 and mass  14.00307

 Molecular mass:   190.04505 amu.
 Principal axes and moments of inertia in atomic units:
                           1         2         3
     Eigenvalues --  1035.597213848.474464076.22050
           X            0.99995  -0.00641  -0.00751
           Y            0.00619   0.99956  -0.02898
           Z            0.00769   0.02894   0.99955
 This molecule is an asymmetric top.
 Rotational symmetry number  1.
 Warning -- assumption of classical behavior for rotation
           may cause significant error
 Rotational temperatures (Kelvin)      0.08364     0.02251     0.02125
 Rotational constants (GHZ):           1.74271     0.46895     0.44275
 Zero-point vibrational energy     352955.0 (Joules/Mol)
                                   84.35827 (Kcal/Mol)
 Warning -- explicit consideration of  14 degrees of freedom as
           vibrations may cause significant error
 Vibrational temperatures:     50.05    72.39   114.79   147.64   179.93
          (Kelvin)            278.39   307.80   528.98   535.05   565.56
                              594.72   628.21   729.70   780.67   916.23
                              942.39   991.18  1024.39  1089.09  1110.00
                             1121.34  1188.55  1261.00  1319.59  1409.63
                             1429.07  1439.02  1502.86  1628.71  1672.10
                             1764.86  1846.43  1861.01  1929.93  1931.61
                             1959.88  1972.95  2048.96  2071.90  2144.57
                             2186.18  2267.17  2350.13  2410.05  2451.26
                             4390.55  4409.53  4574.00  4585.46  4924.21
                             5261.67

 Zero-point correction=                           0.134433 (Hartree/Particle)
 Thermal correction to Energy=                    0.145488
 Thermal correction to Enthalpy=                  0.146432
 Thermal correction to Gibbs Free Energy=         0.095575
 Sum of electronic and zero-point Energies=           -746.972613
 Sum of electronic and thermal Energies=              -746.961559
 Sum of electronic and thermal Enthalpies=            -746.960615
 Sum of electronic and thermal Free Energies=         -747.011471

                     E (Thermal)             CV                S
                      KCal/Mol        Cal/Mol-Kelvin    Cal/Mol-Kelvin
 Total                   91.295             39.946            107.037
 Electronic               0.000              0.000              0.000
 Translational            0.889              2.981             41.632
 Rotational               0.889              2.981             31.164
 Vibrational             89.517             33.984             34.241
 Vibration     1          0.594              1.983              5.536
 Vibration     2          0.595              1.977              4.805
 Vibration     3          0.600              1.963              3.896
 Vibration     4          0.605              1.947              3.404
 Vibration     5          0.610              1.928              3.021
 Vibration     6          0.635              1.849              2.194
 Vibration     7          0.644              1.820              2.010
 Vibration     8          0.740              1.539              1.090
 Vibration     9          0.744              1.530              1.072
 Vibration    10          0.760              1.485              0.988
 Vibration    11          0.777              1.441              0.915
 Vibration    12          0.797              1.390              0.837
 Vibration    13          0.862              1.234              0.640
 Vibration    14          0.898              1.156              0.560

 Normal termination of Gaussian 09 at Fri Aug 20 16:04:59 2021.
