 Gaussian 09, Revision E.01,
 Gaussian 09:  ES64L-G09RevE.01 30-Nov-2015

 -------------------------
 #P OPT Freq B3LYP/6-31G**
 -------------------------

 ------
 VIKWAN
 ------
 Symbolic Z-matrix:
 Charge =  0 Multiplicity = 1

 SCF Done:  E(RB3LYP) =  -648.174651289     A.U. after   16 cycles
 SCF Done:  E(RB3LYP) =  -648.289851928     A.U. after   14 cycles
 SCF Done:  E(RB3LYP) =  -648.361237249     A.U. after   14 cycles
 SCF Done:  E(RB3LYP) =  -648.363828049     A.U. after   15 cycles
 SCF Done:  E(RB3LYP) =  -648.362043664     A.U. after   15 cycles
 SCF Done:  E(RB3LYP) =  -648.366542305     A.U. after   12 cycles
 SCF Done:  E(RB3LYP) =  -648.368392196     A.U. after   14 cycles
 SCF Done:  E(RB3LYP) =  -648.369261181     A.U. after   14 cycles
 SCF Done:  E(RB3LYP) =  -648.369288521     A.U. after   14 cycles
 SCF Done:  E(RB3LYP) =  -648.369601633     A.U. after   13 cycles
 SCF Done:  E(RB3LYP) =  -648.370006504     A.U. after   12 cycles
 SCF Done:  E(RB3LYP) =  -648.369987104     A.U. after   13 cycles
 SCF Done:  E(RB3LYP) =  -648.370025338     A.U. after   12 cycles
 SCF Done:  E(RB3LYP) =  -648.370031255     A.U. after   11 cycles
 SCF Done:  E(RB3LYP) =  -648.370034040     A.U. after   11 cycles
 SCF Done:  E(RB3LYP) =  -648.370034346     A.U. after    8 cycles
 SCF Done:  E(RB3LYP) =  -648.370035121     A.U. after    7 cycles
 SCF Done:  E(RB3LYP) =  -648.370035368     A.U. after    8 cycles
 SCF Done:  E(RB3LYP) =  -648.370035538     A.U. after    7 cycles
 Optimization completed.
    -- Stationary point found.
 Normal termination of Gaussian 09 at Fri Aug 20 15:56:14 2021.

 ----------------------------------------------------------------------
 #P Geom=AllCheck Guess=TCheck SCRF=Check GenChk RB3LYP/6-31G(d,p) Freq
 ----------------------------------------------------------------------

 Structure from the checkpoint file:  "/public/home/users/caep010/.cache/gau_scr/Gau-81249.chk"
 ------
 VIKWAN
 ------
 Charge =  0 Multiplicity = 1

                         Standard orientation:
 ---------------------------------------------------------------------
 Center     Atomic      Atomic             Coordinates (Angstroms)
 Number     Number       Type             X           Y           Z
 ---------------------------------------------------------------------
      1          6           0       -0.244622   -0.028008   -0.100424
      2          6           0        0.920579   -0.052964    0.907128
      3          6           0        1.204575    0.005300   -0.593490
      4          6           0        1.802401   -1.192149   -1.327002
      5          6           0       -1.179251   -1.232014   -0.227507
      6          6           0        1.746808    1.301081   -1.195357
      7          6           0        1.164189    1.165813    1.789802
      8          6           0        1.165263   -1.344224    1.679063
      9          7           0       -1.033558    1.243562   -0.210064
     10          8           0       -1.632297    1.629859    0.802476
     11          7           0       -2.478057   -1.008198    0.113031
     12          8           0       -1.093886    1.796692   -1.301007
     13          8           0       -0.782389   -2.330298   -0.593207
     14          1           0        2.837409    1.303180   -1.093396
     15          1           0        1.366056    2.212095   -0.737292
     16          1           0        1.506145    1.348176   -2.260738
     17          1           0        1.449776   -2.151575   -0.962966
     18          1           0        1.553033   -1.136017   -2.391495
     19          1           0        2.894035   -1.146884   -1.239414
     20          1           0        0.514833    1.128555    2.669443
     21          1           0        0.986289    2.120930    1.297141
     22          1           0        2.203373    1.154710    2.136664
     23          1           0        0.889574   -2.237105    1.120518
     24          1           0        0.591059   -1.338119    2.612056
     25          1           0        2.225764   -1.414333    1.944834
     26          1           0       -2.765353   -0.181586    0.615567
     27          1           0       -3.081764   -1.816602    0.108934
 ---------------------------------------------------------------------

 SCF Done:  E(RB3LYP) =  -648.370035538     A.U. after    1 cycles

 The electronic state is 1-A.
 Alpha  occ. eigenvalues --  -19.19631 -19.19218 -19.12953 -14.57776 -14.36850
 Alpha  occ. eigenvalues --  -10.31429 -10.26105 -10.22981 -10.22654 -10.19100
 Alpha  occ. eigenvalues --  -10.18644 -10.18585 -10.17639  -1.23394  -1.06100
 Alpha  occ. eigenvalues --   -1.05026  -0.92029  -0.90457  -0.77718  -0.76543
 Alpha  occ. eigenvalues --   -0.71236  -0.68393  -0.68141  -0.64417  -0.58309
 Alpha  occ. eigenvalues --   -0.56287  -0.53358  -0.53072  -0.51688  -0.51101
 Alpha  occ. eigenvalues --   -0.47702  -0.45880  -0.44816  -0.44043  -0.42375
 Alpha  occ. eigenvalues --   -0.41448  -0.40612  -0.40066  -0.39198  -0.38630
 Alpha  occ. eigenvalues --   -0.37808  -0.37506  -0.33731  -0.32487  -0.32109
 Alpha  occ. eigenvalues --   -0.31603  -0.28696  -0.28223  -0.28151  -0.26382
 Alpha virt. eigenvalues --   -0.08287   0.00251   0.07752   0.08438   0.09806
 Alpha virt. eigenvalues --    0.11006   0.11528   0.12526   0.13698   0.14641
 Alpha virt. eigenvalues --    0.14892   0.17098   0.17489   0.18002   0.18621

 Mulliken charges:
               1
     1  C    0.085242
     2  C    0.045527
     3  C    0.039420
     4  C   -0.318027
     5  C    0.621968
     6  C   -0.313852
     7  C   -0.314224
     8  C   -0.335744
     9  N    0.375212
    10  O   -0.386751
    11  N   -0.619911
    12  O   -0.352394
    13  O   -0.514455
    14  H    0.108564
    15  H    0.106794
    16  H    0.128541
    17  H    0.144024
    18  H    0.114112
    19  H    0.097846
    20  H    0.123885
    21  H    0.111170
    22  H    0.112776
    23  H    0.138860
    24  H    0.108931
    25  H    0.112023
    26  H    0.295959
    27  H    0.284506
 Sum of Mulliken charges =  -0.00000

 Dipole moment (field-independent basis, Debye):
    X=              0.7792    Y=             -0.4120    Z=              1.8284  Tot=              2.0297
 Quadrupole moment (field-independent basis, Debye-Ang):
   XX=            -68.7642   YY=            -86.2591   ZZ=            -78.2182
   XY=              6.1277   XZ=             -2.1961   YZ=             -1.7193

  Exact polarizability: 110.991  -1.058 101.750  -4.990   0.322 101.352
 Approx polarizability: 160.267  -9.996 156.018 -13.806   2.311 170.655

                      1                      2                      3
                      A                      A                      A
 Frequencies --     39.1188                76.2129               107.4643
 Red. masses --      6.4433                 6.5978                 3.3439
 Frc consts  --      0.0058                 0.0226                 0.0228
 IR Inten    --      5.5516                 0.1463                 0.2764

                      4                      5                      6
                      A                      A                      A
 Frequencies --    139.8185               157.7574               169.2117
 Red. masses --      1.5179                 1.2581                 2.0806
 Frc consts  --      0.0175                 0.0184                 0.0351
 IR Inten    --      0.0862                 0.1640                 0.5827

                      7                      8                      9
                      A                      A                      A
 Frequencies --    190.8798               210.4549               228.7727
 Red. masses --      1.4478                 2.6096                 2.0016
 Frc consts  --      0.0311                 0.0681                 0.0617
 IR Inten    --      1.4988                 0.4435                 2.3866

                     10                     11                     12
                      A                      A                      A
 Frequencies --    245.8939               251.0417               270.4987
 Red. masses --      2.3254                 2.9740                 1.9521
 Frc consts  --      0.0828                 0.1104                 0.0842
 IR Inten    --      2.0794                 9.1344                 1.5673

                     13                     14                     15
                      A                      A                      A
 Frequencies --    331.3527               353.3446               360.2159
 Red. masses --      2.0121                 2.9883                 3.5183
 Frc consts  --      0.1302                 0.2198                 0.2690
 IR Inten    --      3.0439                 5.2626                 2.8993

                     16                     17                     18
                      A                      A                      A
 Frequencies --    391.4878               393.0017               412.3372
 Red. masses --      2.8981                 2.9724                 1.5027
 Frc consts  --      0.2617                 0.2705                 0.1505
 IR Inten    --      1.1728                49.5378               151.1034

                     19                     20                     21
                      A                      A                      A
 Frequencies --    444.9254               464.2780               476.5661
 Red. masses --      2.9192                 3.0101                 2.8332
 Frc consts  --      0.3405                 0.3823                 0.3791
 IR Inten    --      0.3377                 3.7616                16.9612

                     22                     23                     24
                      A                      A                      A
 Frequencies --    565.9185               605.6920               645.1545
 Red. masses --      1.6432                 1.9553                 3.2965
 Frc consts  --      0.3101                 0.4226                 0.8084
 IR Inten    --      4.2798                 3.8200                14.9674

                     25                     26                     27
                      A                      A                      A
 Frequencies --    667.2516               717.5701               720.8795
 Red. masses --      3.1391                 3.5851                 7.6252
 Frc consts  --      0.8234                 1.0876                 2.3347
 IR Inten    --      1.1188                 7.7290                 8.5229

                     28                     29                     30
                      A                      A                      A
 Frequencies --    817.6698               851.1126               962.7618
 Red. masses --      8.8526                 5.9422                 2.9058
 Frc consts  --      3.4872                 2.5361                 1.5869
 IR Inten    --     29.0170                 1.4264                 9.8303

                     31                     32                     33
                      A                      A                      A
 Frequencies --    969.0134               971.9073               979.4966
 Red. masses --      1.3838                 1.8872                 2.2446
 Frc consts  --      0.7656                 1.0503                 1.2688
 IR Inten    --      0.4757                 4.1938                 6.1558

                     34                     35                     36
                      A                      A                      A
 Frequencies --    986.8360              1031.1912              1043.6858
 Red. masses --      1.6635                 1.2913                 2.0323
 Frc consts  --      0.9545                 0.8090                 1.3043
 IR Inten    --      7.9037                 0.1861                 0.4888

                     37                     38                     39
                      A                      A                      A
 Frequencies --   1092.0528              1126.6872              1144.8438
 Red. masses --      2.1910                 1.8991                 1.7792
 Frc consts  --      1.5395                 1.4204                 1.3739
 IR Inten    --      4.2489                 3.7992                 4.4702

                     40                     41                     42
                      A                      A                      A
 Frequencies --   1152.7306              1214.6911              1226.4878
 Red. masses --      1.8390                 4.1790                 2.3973
 Frc consts  --      1.4398                 3.6329                 2.1247
 IR Inten    --     35.8677                 0.2417                 7.0776

                     43                     44                     45
                      A                      A                      A
 Frequencies --   1270.7048              1337.6878              1401.0899
 Red. masses --      3.9246                 3.6909                 4.0734
 Frc consts  --      3.7337                 3.8913                 4.7113
 IR Inten    --      0.8481               118.0813                33.8693

                     46                     47                     48
                      A                      A                      A
 Frequencies --   1407.4250              1419.6574              1429.6791
 Red. masses --      7.5727                 1.2933                 1.2410
 Frc consts  --      8.8379                 1.5357                 1.4945
 IR Inten    --    175.0406                 1.6680                 5.5702

                     49                     50                     51
                      A                      A                      A
 Frequencies --   1433.7802              1452.1713              1486.3454
 Red. masses --      1.2243                 1.2163                 1.0497
 Frc consts  --      1.4828                 1.5112                 1.3663
 IR Inten    --      5.5024                10.9918                 3.1765

                     52                     53                     54
                      A                      A                      A
 Frequencies --   1490.4879              1500.7227              1509.6358
 Red. masses --      1.0501                 1.0501                 1.0505
 Frc consts  --      1.3745                 1.3934                 1.4106
 IR Inten    --      1.1729                 7.2630                 8.3078

                     55                     56                     57
                      A                      A                      A
 Frequencies --   1514.4099              1516.6421              1530.9286
 Red. masses --      1.0505                 1.0481                 1.1048
 Frc consts  --      1.4194                 1.4205                 1.5256
 IR Inten    --      7.2190                 4.7808                12.7281

                     58                     59                     60
                      A                      A                      A
 Frequencies --   1541.2388              1605.0345              1652.4125
 Red. masses --      1.0755                 2.1756                 2.4046
 Frc consts  --      1.5052                 3.3022                 3.8683
 IR Inten    --     10.4871               297.9365                95.3341

                     61                     62                     63
                      A                      A                      A
 Frequencies --   1786.1303              3046.7318              3049.3954
 Red. masses --      8.8570                 1.0414                 1.0439
 Frc consts  --     16.6481                 5.6956                 5.7191
 IR Inten    --    246.5416                18.4841                20.4432

                     64                     65                     66
                      A                      A                      A
 Frequencies --   3054.0358              3060.1053              3104.6111
 Red. masses --      1.0407                 1.0427                 1.1019
 Frc consts  --      5.7188                 5.7531                 6.2574
 IR Inten    --     33.1805                37.1703                11.2430

                     67                     68                     69
                      A                      A                      A
 Frequencies --   3107.3789              3116.9606              3124.2025
 Red. masses --      1.1006                 1.1006                 1.0998
 Frc consts  --      6.2611                 6.3000                 6.3250
 IR Inten    --     17.0019                18.2005                20.8085

                     70                     71                     72
                      A                      A                      A
 Frequencies --   3159.0555              3175.8429              3177.3407
 Red. masses --      1.0994                 1.0971                 1.0955
 Frc consts  --      6.4642                 6.5193                 6.5163
 IR Inten    --     16.2515                 2.0057                21.7758

                     73                     74                     75
                      A                      A                      A
 Frequencies --   3215.8817              3587.5247              3724.3229
 Red. masses --      1.0937                 1.0453                 1.1056
 Frc consts  --      6.6645                 7.9267                 9.0353
 IR Inten    --      2.8313                45.8814                78.1830

 - Thermochemistry -
 -------------------
 Temperature   298.150 Kelvin.  Pressure   1.00000 Atm.
 Atom     1 has atomic number  6 and mass  12.00000

 Molecular mass:   186.10044 amu.
 Principal axes and moments of inertia in atomic units:
                           1         2         3
     Eigenvalues --  1980.842922108.972462589.94133
           X            0.98672   0.16089  -0.02215
           Y           -0.16107   0.98692  -0.00653
           Z            0.02080   0.01001   0.99973
 This molecule is an asymmetric top.
 Rotational symmetry number  1.
 Warning -- assumption of classical behavior for rotation
           may cause significant error
 Rotational temperatures (Kelvin)      0.04373     0.04107     0.03344
 Rotational constants (GHZ):           0.91110     0.85574     0.69683
 Zero-point vibrational energy     587353.5 (Joules/Mol)
                                  140.38086 (Kcal/Mol)
 Warning -- explicit consideration of  23 degrees of freedom as
           vibrations may cause significant error
 Vibrational temperatures:     56.28   109.65   154.62   201.17   226.98
          (Kelvin)            243.46   274.63   302.80   329.15   353.79
                              361.19   389.19   476.74   508.38   518.27
                              563.26   565.44   593.26   640.15   667.99
                              685.67   814.23   871.45   928.23   960.03
                             1032.42  1037.18  1176.44  1224.56  1385.20
                             1394.19  1398.36  1409.28  1419.84  1483.65
                             1501.63  1571.22  1621.05  1647.17  1658.52
                             1747.67  1764.64  1828.26  1924.63  2015.85
                             2024.97  2042.57  2056.99  2062.89  2089.35
                             2138.52  2144.48  2159.20  2172.03  2178.90
                             2182.11  2202.66  2217.50  2309.28  2377.45
                             2569.84  4383.56  4387.39  4394.07  4402.80
                             4466.84  4470.82  4484.61  4495.02  4545.17
                             4569.32  4571.48  4626.93  5161.64  5358.46

 Zero-point correction=                           0.223711 (Hartree/Particle)
 Thermal correction to Energy=                    0.238105
 Thermal correction to Enthalpy=                  0.239049
 Thermal correction to Gibbs Free Energy=         0.183676
 Sum of electronic and zero-point Energies=           -648.146324
 Sum of electronic and thermal Energies=              -648.131931
 Sum of electronic and thermal Enthalpies=            -648.130987
 Sum of electronic and thermal Free Energies=         -648.186360

                     E (Thermal)             CV                S
                      KCal/Mol        Cal/Mol-Kelvin    Cal/Mol-Kelvin
 Total                  149.413             53.861            116.542
 Electronic               0.000              0.000              0.000
 Translational            0.889              2.981             41.569
 Rotational               0.889              2.981             30.760
 Vibrational            147.636             47.899             44.213
 Vibration     1          0.594              1.981              5.303
 Vibration     2          0.599              1.965              3.986
 Vibration     3          0.606              1.943              3.314
 Vibration     4          0.615              1.914              2.806
 Vibration     5          0.621              1.894              2.577
 Vibration     6          0.625              1.880              2.444
 Vibration     7          0.634              1.852              2.219
 Vibration     8          0.643              1.825              2.040
 Vibration     9          0.651              1.797              1.889
 Vibration    10          0.660              1.770              1.760
 Vibration    11          0.663              1.761              1.723
 Vibration    12          0.674              1.728              1.593
 Vibration    13          0.714              1.613              1.253
 Vibration    14          0.730              1.568              1.151
 Vibration    15          0.735              1.554              1.121
 Vibration    16          0.759              1.488              0.994
 Vibration    17          0.760              1.485              0.989
 Vibration    18          0.776              1.443              0.918
 Vibration    19          0.804              1.372              0.811
 Vibration    20          0.822              1.329              0.754
 Vibration    21          0.833              1.302              0.719
 Vibration    22          0.922              1.105              0.512
 Vibration    23          0.964              1.020              0.440

 Normal termination of Gaussian 09 at Fri Aug 20 15:57:13 2021.
