 Gaussian 09, Revision E.01,
 Gaussian 09:  ES64L-G09RevE.01 30-Nov-2015

 -------------------------
 #P OPT Freq B3LYP/6-31G**
 -------------------------

 ------
 SEGRUR
 ------
 Symbolic Z-matrix:
 Charge =  0 Multiplicity = 1

 SCF Done:  E(RB3LYP) =  -508.047559629     A.U. after   15 cycles
 SCF Done:  E(RB3LYP) =  -508.134443804     A.U. after   14 cycles
 SCF Done:  E(RB3LYP) =  -508.155353518     A.U. after   15 cycles
 SCF Done:  E(RB3LYP) =  -508.148018462     A.U. after   17 cycles
 SCF Done:  E(RB3LYP) =  -508.156227369     A.U. after   12 cycles
 SCF Done:  E(RB3LYP) =  -508.157714832     A.U. after   14 cycles
 SCF Done:  E(RB3LYP) =  -508.158079589     A.U. after   13 cycles
 SCF Done:  E(RB3LYP) =  -508.158123076     A.U. after   12 cycles
 SCF Done:  E(RB3LYP) =  -508.158171955     A.U. after   12 cycles
 SCF Done:  E(RB3LYP) =  -508.158229923     A.U. after   14 cycles
 SCF Done:  E(RB3LYP) =  -508.158284605     A.U. after   11 cycles
 SCF Done:  E(RB3LYP) =  -508.158349907     A.U. after   12 cycles
 SCF Done:  E(RB3LYP) =  -508.158368889     A.U. after   12 cycles
 SCF Done:  E(RB3LYP) =  -508.158376395     A.U. after   12 cycles
 SCF Done:  E(RB3LYP) =  -508.158378331     A.U. after   10 cycles
 SCF Done:  E(RB3LYP) =  -508.158378593     A.U. after    9 cycles
 Optimization completed.
    -- Stationary point found.
 Normal termination of Gaussian 09 at Fri Aug 20 15:50:33 2021.

 ----------------------------------------------------------------------
 #P Geom=AllCheck Guess=TCheck SCRF=Check GenChk RB3LYP/6-31G(d,p) Freq
 ----------------------------------------------------------------------

 Structure from the checkpoint file:  "/public/home/users/caep010/.cache/gau_scr/Gau-205572.chk"
 ------
 SEGRUR
 ------
 Charge =  0 Multiplicity = 1

                         Standard orientation:
 ---------------------------------------------------------------------
 Center     Atomic      Atomic             Coordinates (Angstroms)
 Number     Number       Type             X           Y           Z
 ---------------------------------------------------------------------
      1          6           0        0.583945    0.114927   -0.001865
      2          7           0        2.002842   -0.306970    0.000796
      3          8           0        2.855428    0.577463   -0.003806
      4          8           0        2.238946   -1.513454    0.008350
      5          6           0       -0.395514   -0.859401   -0.009416
      6          6           0        0.277492    1.474113    0.002756
      7          1           0        1.054036    2.225707    0.008190
      8          6           0       -1.078959    1.789195    0.005064
      9          7           0       -2.065889    0.887145    0.005286
     10          1           0       -0.128323   -1.908195   -0.021269
     11          6           0       -1.736184   -0.415930   -0.006724
     12          7           0       -2.778116   -1.308686   -0.058414
     13          1           0       -3.686646   -0.921157    0.149302
     14          1           0       -1.392567    2.830782    0.012499
     15          1           0       -2.618037   -2.257050    0.242359
 ---------------------------------------------------------------------

 SCF Done:  E(RB3LYP) =  -508.158378593     A.U. after    1 cycles

 The electronic state is 1-A.
 Alpha  occ. eigenvalues --  -19.18925 -19.18889 -14.57896 -14.36477 -14.34378
 Alpha  occ. eigenvalues --  -10.28470 -10.26550 -10.24281 -10.21967 -10.21114
 Alpha  occ. eigenvalues --   -1.23200  -1.05968  -0.98377  -0.91075  -0.85421
 Alpha  occ. eigenvalues --   -0.76642  -0.73133  -0.65456  -0.61162  -0.56787
 Alpha  occ. eigenvalues --   -0.55225  -0.53845  -0.51405  -0.50741  -0.48837
 Alpha  occ. eigenvalues --   -0.46971  -0.45444  -0.43059  -0.39949  -0.34206
 Alpha  occ. eigenvalues --   -0.31673  -0.31413  -0.30664  -0.29838  -0.28003
 Alpha  occ. eigenvalues --   -0.23592
 Alpha virt. eigenvalues --   -0.09739  -0.02039   0.00030   0.06957   0.09133
 Alpha virt. eigenvalues --    0.11740   0.14080   0.15400   0.17130   0.18542
 Alpha virt. eigenvalues --    0.21779   0.25803   0.26693   0.28548   0.32438

 Mulliken charges:
               1
     1  C    0.278164
     2  N    0.387847
     3  O   -0.384595
     4  O   -0.390202
     5  C   -0.128247
     6  C   -0.127529
     7  H    0.133191
     8  C    0.096107
     9  N   -0.493630
    10  H    0.131295
    11  C    0.469329
    12  N   -0.633534
    13  H    0.280436
    14  H    0.110657
    15  H    0.270712
 Sum of Mulliken charges =  -0.00000

 Dipole moment (field-independent basis, Debye):
    X=             -3.6387    Y=             -0.6415    Z=              0.7848  Tot=              3.7772
 Quadrupole moment (field-independent basis, Debye-Ang):
   XX=            -61.7800   YY=            -49.9296   ZZ=            -56.7916
   XY=              7.7344   XZ=             -2.5771   YZ=             -1.4816

  Exact polarizability: 104.687   7.720  96.398  -0.133  -0.081  29.274
 Approx polarizability: 168.476  20.262 190.644   0.754   0.718  45.298

                      1                      2                      3
                      A                      A                      A
 Frequencies --     53.0728               164.2696               211.2007
 Red. masses --     10.2881                 6.1754                 4.1024
 Frc consts  --      0.0171                 0.0982                 0.1078
 IR Inten    --      0.1239                 3.1058                 8.7760

                      4                      5                      6
                      A                      A                      A
 Frequencies --    218.8084               370.4374               379.4843
 Red. masses --      6.0666                 1.5531                 3.2853
 Frc consts  --      0.1711                 0.1256                 0.2788
 IR Inten    --      1.1832               116.1287                52.1258

                      7                      8                      9
                      A                      A                      A
 Frequencies --    407.0268               441.6815               475.7638
 Red. masses --      3.9515                 2.6468                 1.3415
 Frc consts  --      0.3857                 0.3042                 0.1789
 IR Inten    --     18.9293                50.8556               123.1671

                     10                     11                     12
                      A                      A                      A
 Frequencies --    539.2891               575.1215               581.6616
 Red. masses --      4.9541                 5.3695                 5.2558
 Frc consts  --      0.8489                 1.0464                 1.0477
 IR Inten    --      6.2922                 1.7614                 7.5738

                     13                     14                     15
                      A                      A                      A
 Frequencies --    703.9493               743.4936               755.5364
 Red. masses --      7.8625                 3.0240                 5.6249
 Frc consts  --      2.2956                 0.9849                 1.8918
 IR Inten    --     19.6168                 0.6329                35.5400

                     16                     17                     18
                      A                      A                      A
 Frequencies --    841.7270               843.3363               886.9979
 Red. masses --      3.7316                 1.8096                 1.7169
 Frc consts  --      1.5577                 0.7583                 0.7959
 IR Inten    --     27.5350                10.5364                23.6195

                     19                     20                     21
                      A                      A                      A
 Frequencies --    957.0415               983.7055              1007.5613
 Red. masses --      4.5652                 1.3518                 7.4019
 Frc consts  --      2.4636                 0.7707                 4.4273
 IR Inten    --      0.3992                 0.0094                 7.1426

                     22                     23                     24
                      A                      A                      A
 Frequencies --   1059.1092              1111.0116              1142.7664
 Red. masses --      1.5064                 1.5716                 1.5221
 Frc consts  --      0.9955                 1.1430                 1.1711
 IR Inten    --      4.3193                19.6714                 0.6728

                     25                     26                     27
                      A                      A                      A
 Frequencies --   1307.0826              1339.1651              1359.6778
 Red. masses --      1.7696                 7.0037                 1.8838
 Frc consts  --      1.7813                 7.4002                 2.0519
 IR Inten    --     14.1258                26.9146                 6.6591

                     28                     29                     30
                      A                      A                      A
 Frequencies --   1405.4246              1472.9152              1521.9340
 Red. masses --     14.3308                 3.8591                 2.4313
 Frc consts  --     16.6777                 4.9328                 3.3180
 IR Inten    --    209.9793                98.8427                37.8460

                     31                     32                     33
                      A                      A                      A
 Frequencies --   1616.6411              1632.9635              1653.5835
 Red. masses --      6.5287                 2.2792                 2.5478
 Frc consts  --     10.0533                 3.5809                 4.1046
 IR Inten    --    101.0975                50.8790               416.4742

                     34                     35                     36
                      A                      A                      A
 Frequencies --   1685.7803              3177.3994              3241.7921
 Red. masses --      6.5207                 1.0909                 1.0921
 Frc consts  --     10.9181                 6.4891                 6.7623
 IR Inten    --     86.0911                22.2931                 3.6911

                     37                     38                     39
                      A                      A                      A
 Frequencies --   3265.2846              3600.8351              3727.9226
 Red. masses --      1.0936                 1.0463                 1.1023
 Frc consts  --      6.8700                 7.9928                 9.0261
 IR Inten    --      4.4254                62.5365                34.7522

 - Thermochemistry -
 -------------------
 Temperature   298.150 Kelvin.  Pressure   1.00000 Atm.
 Atom     1 has atomic number  6 and mass  12.00000

 Molecular mass:   139.03818 amu.
 Principal axes and moments of inertia in atomic units:
                           1         2         3
     Eigenvalues --   630.492381840.271392469.84984
           X            0.99973   0.02326  -0.00238
           Y           -0.02326   0.99972  -0.00343
           Z            0.00230   0.00348   0.99999
 This molecule is an asymmetric top.
 Rotational symmetry number  1.
 Warning -- assumption of classical behavior for rotation
           may cause significant error
 Rotational temperatures (Kelvin)      0.13737     0.04707     0.03507
 Rotational constants (GHZ):           2.86243     0.98069     0.73071
 Zero-point vibrational energy     283888.5 (Joules/Mol)
                                   67.85099 (Kcal/Mol)
 Warning -- explicit consideration of  12 degrees of freedom as
           vibrations may cause significant error
 Vibrational temperatures:     76.36   236.35   303.87   314.82   532.98
          (Kelvin)            545.99   585.62   635.48   684.52   775.92
                              827.47   836.88  1012.82  1069.72  1087.05
                             1211.06  1213.37  1276.19  1376.97  1415.33
                             1449.65  1523.82  1598.50  1644.18  1880.60
                             1926.76  1956.27  2022.09  2119.19  2189.72
                             2325.98  2349.47  2379.13  2425.46  4571.56
                             4664.21  4698.01  5180.79  5363.64

 Zero-point correction=                           0.108127 (Hartree/Particle)
 Thermal correction to Energy=                    0.116249
 Thermal correction to Enthalpy=                  0.117193
 Thermal correction to Gibbs Free Energy=         0.074710
 Sum of electronic and zero-point Energies=           -508.050251
 Sum of electronic and thermal Energies=              -508.042129
 Sum of electronic and thermal Enthalpies=            -508.041185
 Sum of electronic and thermal Free Energies=         -508.083669

                     E (Thermal)             CV                S
                      KCal/Mol        Cal/Mol-Kelvin    Cal/Mol-Kelvin
 Total                   72.947             30.800             89.414
 Electronic               0.000              0.000              0.000
 Translational            0.889              2.981             40.700
 Rotational               0.889              2.981             29.440
 Vibrational             71.170             24.838             19.274
 Vibration     1          0.596              1.976              4.699
 Vibration     2          0.623              1.886              2.500
 Vibration     3          0.643              1.824              2.033
 Vibration     4          0.647              1.812              1.969
 Vibration     5          0.742              1.533              1.078
 Vibration     6          0.749              1.514              1.041
 Vibration     7          0.772              1.455              0.937
 Vibration     8          0.801              1.379              0.821
 Vibration     9          0.832              1.304              0.722
 Vibration    10          0.894              1.163              0.567
 Vibration    11          0.931              1.085              0.494
 Vibration    12          0.938              1.071              0.482

 Optimization completed.
    -- Stationary point found.
 Normal termination of Gaussian 09 at Fri Aug 20 15:50:50 2021.
