 Gaussian 09, Revision E.01,
 Gaussian 09:  ES64L-G09RevE.01 30-Nov-2015

 -------------------------
 #P OPT Freq B3LYP/6-31G**
 -------------------------

 ------
 DUJQOP
 ------
 Symbolic Z-matrix:
 Charge =  0 Multiplicity = 1

 SCF Done:  E(RB3LYP) =  -680.572460933     A.U. after   16 cycles
 SCF Done:  E(RB3LYP) =  -680.666774303     A.U. after   13 cycles
 SCF Done:  E(RB3LYP) =  -680.699575115     A.U. after   15 cycles
 SCF Done:  E(RB3LYP) =  -680.697921193     A.U. after   15 cycles
 SCF Done:  E(RB3LYP) =  -680.701707861     A.U. after   11 cycles
 SCF Done:  E(RB3LYP) =  -680.702037864     A.U. after   14 cycles
 SCF Done:  E(RB3LYP) =  -680.696982316     A.U. after   15 cycles
 SCF Done:  E(RB3LYP) =  -680.702437229     A.U. after   11 cycles
 SCF Done:  E(RB3LYP) =  -680.702635023     A.U. after   13 cycles
 SCF Done:  E(RB3LYP) =  -680.702755845     A.U. after   13 cycles
 SCF Done:  E(RB3LYP) =  -680.702827106     A.U. after    8 cycles
 SCF Done:  E(RB3LYP) =  -680.702827367     A.U. after    8 cycles
 SCF Done:  E(RB3LYP) =  -680.702827861     A.U. after   10 cycles
 SCF Done:  E(RB3LYP) =  -680.702828332     A.U. after   10 cycles
 SCF Done:  E(RB3LYP) =  -680.702829709     A.U. after   11 cycles
 SCF Done:  E(RB3LYP) =  -680.702829649     A.U. after    8 cycles
 SCF Done:  E(RB3LYP) =  -680.702829833     A.U. after   10 cycles
 SCF Done:  E(RB3LYP) =  -680.702829883     A.U. after   10 cycles
 SCF Done:  E(RB3LYP) =  -680.702829934     A.U. after    8 cycles
 Optimization completed.
    -- Stationary point found.
 Normal termination of Gaussian 09 at Fri Aug 20 16:04:47 2021.

 ----------------------------------------------------------------------
 #P Geom=AllCheck Guess=TCheck SCRF=Check GenChk RB3LYP/6-31G(d,p) Freq
 ----------------------------------------------------------------------

 Structure from the checkpoint file:  "/public/home/users/caep010/.cache/gau_scr/Gau-204841.chk"
 ------
 DUJQOP
 ------
 Charge =  0 Multiplicity = 1

                         Standard orientation:
 ---------------------------------------------------------------------
 Center     Atomic      Atomic             Coordinates (Angstroms)
 Number     Number       Type             X           Y           Z
 ---------------------------------------------------------------------
      1          8           0        2.288913    1.894494    0.002094
      2          6           0        1.105562    1.291798   -0.005302
      3          6           0       -0.050948    2.100489   -0.022227
      4          1           0        0.083095    3.176127   -0.032704
      5          6           0       -1.308199    1.532088   -0.020111
      6          6           0       -1.427478    0.135288   -0.000479
      7          6           0       -0.308994   -0.685027    0.012153
      8          1           0        2.973719    1.162225    0.029992
      9          1           0       -2.205524    2.138078   -0.030202
     10          1           0       -0.481297   -1.753961    0.038385
     11          6           0        0.973425   -0.129509    0.003180
     12          6           0        2.216714   -0.944907    0.004489
     13          8           0        3.338135   -0.402809    0.050810
     14          7           0       -2.753209   -0.475545    0.008985
     15          8           0       -2.820223   -1.708030    0.025901
     16          7           0        2.121184   -2.294588   -0.039373
     17          1           0        2.985126   -2.814103   -0.071407
     18          1           0        1.254501   -2.787418   -0.169076
     19          8           0       -3.730066    0.274928   -0.001616
 ---------------------------------------------------------------------

 SCF Done:  E(RB3LYP) =  -680.702829934     A.U. after    1 cycles

 The electronic state is 1-A.
 Alpha  occ. eigenvalues --  -19.18698 -19.18136 -19.18070 -19.15442 -14.57360
 Alpha  occ. eigenvalues --  -14.39051 -10.33109 -10.29118 -10.25510 -10.24005
 Alpha  occ. eigenvalues --  -10.23418 -10.23152 -10.21661  -1.22389  -1.09038
 Alpha  occ. eigenvalues --   -1.06008  -1.05068  -0.93988  -0.89677  -0.81085
 Alpha  occ. eigenvalues --   -0.79466  -0.70316  -0.68261  -0.63761  -0.61111
 Alpha  occ. eigenvalues --   -0.58010  -0.55309  -0.54847  -0.53288  -0.52531
 Alpha  occ. eigenvalues --   -0.50430  -0.49356  -0.46422  -0.46005  -0.45397
 Alpha  occ. eigenvalues --   -0.44057  -0.41863  -0.40712  -0.37705  -0.36616
 Alpha  occ. eigenvalues --   -0.31107  -0.31094  -0.30351  -0.29206  -0.29189
 Alpha  occ. eigenvalues --   -0.29027  -0.25315
 Alpha virt. eigenvalues --   -0.08777  -0.06747  -0.00080   0.04009   0.04525
 Alpha virt. eigenvalues --    0.09554   0.09734   0.14600   0.15541   0.15722
 Alpha virt. eigenvalues --    0.17102   0.19896   0.21324   0.22874   0.25467

 Mulliken charges:
               1
     1  O   -0.550728
     2  C    0.324552
     3  C   -0.111691
     4  H    0.120030
     5  C   -0.087080
     6  C    0.233276
     7  C   -0.137083
     8  H    0.369876
     9  H    0.143663
    10  H    0.124438
    11  C    0.008140
    12  C    0.605833
    13  O   -0.574267
    14  N    0.384391
    15  O   -0.412758
    16  N   -0.620985
    17  H    0.294102
    18  H    0.286899
    19  O   -0.400609
 Sum of Mulliken charges =  -0.00000

 Dipole moment (field-independent basis, Debye):
    X=              2.5522    Y=             -1.6455    Z=             -0.3414  Tot=              3.0558
 Quadrupole moment (field-independent basis, Debye-Ang):
   XX=            -92.5817   YY=            -62.2820   ZZ=            -72.9584
   XY=            -12.5420   XZ=             -0.5673   YZ=              0.9207

  Exact polarizability: 148.976   0.529 119.857   0.396  -0.055  35.950
 Approx polarizability: 257.316  10.770 221.946   1.320  -0.664  56.375

                      1                      2                      3
                      A                      A                      A
 Frequencies --     36.8662                66.4850               127.4496
 Red. masses --      3.4286                13.2554                 7.2795
 Frc consts  --      0.0027                 0.0345                 0.0697
 IR Inten    --     26.3188                 1.9981                 0.3607

                      4                      5                      6
                      A                      A                      A
 Frequencies --    151.3465               169.0192               217.3604
 Red. masses --      4.9227                 7.6037                 1.5431
 Frc consts  --      0.0664                 0.1280                 0.0430
 IR Inten    --      2.7010                11.8276               167.3215

                      7                      8                      9
                      A                      A                      A
 Frequencies --    303.7250               311.7020               354.5396
 Red. masses --      5.2782                 6.5358                11.4648
 Frc consts  --      0.2869                 0.3741                 0.8491
 IR Inten    --     10.8268                 5.3341                 1.7244

                     10                     11                     12
                      A                      A                      A
 Frequencies --    375.6871               419.8090               441.1824
 Red. masses --      7.2460                 2.6047                 6.7837
 Frc consts  --      0.6026                 0.2705                 0.7780
 IR Inten    --      6.4102                12.9200                 2.5780

                     13                     14                     15
                      A                      A                      A
 Frequencies --    500.7131               522.9192               558.2100
 Red. masses --      5.1493                 3.3344                 1.5293
 Frc consts  --      0.7606                 0.5372                 0.2808
 IR Inten    --      0.9134                 6.1615                14.0994

                     16                     17                     18
                      A                      A                      A
 Frequencies --    564.8874               651.0296               672.8540
 Red. masses --      2.8447                 7.1950                 4.5900
 Frc consts  --      0.5348                 1.7967                 1.2243
 IR Inten    --      6.1864                22.1664                43.0916

                     19                     20                     21
                      A                      A                      A
 Frequencies --    698.3934               751.8799               767.9094
 Red. masses --      4.9416                 7.0136                 5.1395
 Frc consts  --      1.4201                 2.3361                 1.7856
 IR Inten    --     13.5569                22.3939                14.1528

                     22                     23                     24
                      A                      A                      A
 Frequencies --    770.4963               833.4208               856.7867
 Red. masses --      4.9549                 7.6600                 1.5764
 Frc consts  --      1.7331                 3.1348                 0.6818
 IR Inten    --      2.6430                 2.7079                35.2972

                     25                     26                     27
                      A                      A                      A
 Frequencies --    914.7808               919.0210               932.8773
 Red. masses --      1.4663                 1.0881                 6.5007
 Frc consts  --      0.7229                 0.5415                 3.3332
 IR Inten    --      0.4940               101.9198                21.3912

                     28                     29                     30
                      A                      A                      A
 Frequencies --    995.6837              1082.8586              1111.4862
 Red. masses --      1.2962                 2.1910                 1.8085
 Frc consts  --      0.7571                 1.5137                 1.3164
 IR Inten    --      0.1055                 4.6198                16.5376

                     31                     32                     33
                      A                      A                      A
 Frequencies --   1149.5320              1162.5615              1266.6958
 Red. masses --      1.4685                 2.8968                 1.4681
 Frc consts  --      1.1433                 2.3067                 1.3879
 IR Inten    --      9.9657                77.2301                30.6342

                     34                     35                     36
                      A                      A                      A
 Frequencies --   1329.1617              1358.8079              1390.2352
 Red. masses --      3.3924                 2.9891                 9.3790
 Frc consts  --      3.5312                 3.2517                10.6803
 IR Inten    --    106.1895               117.7657               498.0288

                     37                     38                     39
                      A                      A                      A
 Frequencies --   1435.4024              1459.0964              1485.8879
 Red. masses --      4.7684                 2.6064                 4.5721
 Frc consts  --      5.7886                 3.2694                 5.9475
 IR Inten    --    131.5442                86.7431                21.8158

                     40                     41                     42
                      A                      A                      A
 Frequencies --   1535.2620              1613.9274              1624.0233
 Red. masses --      2.6743                 3.7213                 2.0366
 Frc consts  --      3.7139                 5.7110                 3.1648
 IR Inten    --    158.5718               150.2301                73.6679

                     43                     44                     45
                      A                      A                      A
 Frequencies --   1648.2390              1674.5508              1738.8960
 Red. masses --      3.4547                 5.6386                 4.5765
 Frc consts  --      5.5297                 9.3157                 8.1532
 IR Inten    --     81.0102               303.7921               290.6670

                     46                     47                     48
                      A                      A                      A
 Frequencies --   3118.8311              3223.6266              3232.3636
 Red. masses --      1.0708                 1.0903                 1.0901
 Frc consts  --      6.1367                 6.6758                 6.7106
 IR Inten    --    622.0910                 1.8256                 1.9510

                     49                     50                     51
                      A                      A                      A
 Frequencies --   3245.7065              3619.9403              3757.4764
 Red. masses --      1.0940                 1.0461                 1.1045
 Frc consts  --      6.7904                 8.0764                 9.1879
 IR Inten    --      2.3061                73.2732                54.1490

 - Thermochemistry -
 -------------------
 Temperature   298.150 Kelvin.  Pressure   1.00000 Atm.
 Atom     1 has atomic number  8 and mass  15.99491

 Molecular mass:   182.03276 amu.
 Principal axes and moments of inertia in atomic units:
                           1         2         3
     Eigenvalues --  1205.608043346.036274550.74783
           X            0.99980  -0.01991  -0.00033
           Y            0.01991   0.99980   0.00140
           Z            0.00030  -0.00140   1.00000
 This molecule is an asymmetric top.
 Rotational symmetry number  1.
 Warning -- assumption of classical behavior for rotation
           may cause significant error
 Rotational temperatures (Kelvin)      0.07184     0.02589     0.01903
 Rotational constants (GHZ):           1.49696     0.53937     0.39658
 Zero-point vibrational energy     353805.2 (Joules/Mol)
                                   84.56146 (Kcal/Mol)
 Warning -- explicit consideration of  16 degrees of freedom as
           vibrations may cause significant error
 Vibrational temperatures:     53.04    95.66   183.37   217.75   243.18
          (Kelvin)            312.73   436.99   448.47   510.10   540.53
                              604.01   634.76   720.41   752.36   803.14
                              812.75   936.69   968.09  1004.83  1081.79
                             1104.85  1108.57  1199.11  1232.72  1316.16
                             1322.26  1342.20  1432.56  1557.99  1599.18
                             1653.92  1672.66  1822.49  1912.36  1955.02
                             2000.24  2065.22  2099.31  2137.86  2208.90
                             2322.08  2336.60  2371.45  2409.30  2501.88
                             4487.30  4638.07  4650.64  4669.84  5208.28
                             5406.16

 Zero-point correction=                           0.134757 (Hartree/Particle)
 Thermal correction to Energy=                    0.145716
 Thermal correction to Enthalpy=                  0.146660
 Thermal correction to Gibbs Free Energy=         0.097025
 Sum of electronic and zero-point Energies=           -680.568073
 Sum of electronic and thermal Energies=              -680.557114
 Sum of electronic and thermal Enthalpies=            -680.556170
 Sum of electronic and thermal Free Energies=         -680.605805

                     E (Thermal)             CV                S
                      KCal/Mol        Cal/Mol-Kelvin    Cal/Mol-Kelvin
 Total                   91.438             41.164            104.465
 Electronic               0.000              0.000              0.000
 Translational            0.889              2.981             41.504
 Rotational               0.889              2.981             31.285
 Vibrational             89.661             35.202             31.676
 Vibration     1          0.594              1.982              5.421
 Vibration     2          0.598              1.970              4.255
 Vibration     3          0.611              1.926              2.984
 Vibration     4          0.619              1.901              2.655
 Vibration     5          0.625              1.881              2.446
 Vibration     6          0.646              1.815              1.981
 Vibration     7          0.695              1.667              1.396
 Vibration     8          0.700              1.651              1.353
 Vibration     9          0.730              1.566              1.146
 Vibration    10          0.747              1.522              1.056
 Vibration    11          0.782              1.427              0.893
 Vibration    12          0.801              1.380              0.823
 Vibration    13          0.856              1.248              0.656
 Vibration    14          0.878              1.199              0.603
 Vibration    15          0.914              1.122              0.527
 Vibration    16          0.921              1.107              0.514

 Optimization completed.
    -- Stationary point found.
 Normal termination of Gaussian 09 at Fri Aug 20 16:05:17 2021.
