 Gaussian 09, Revision E.01,
 Gaussian 09:  ES64L-G09RevE.01 30-Nov-2015

 -------------------------
 #P OPT Freq B3LYP/6-31G**
 -------------------------

 --------
 CIWMAW01
 --------
 Symbolic Z-matrix:
 Charge =  0 Multiplicity = 1

 SCF Done:  E(RB3LYP) =  -783.921360062     A.U. after   17 cycles
 SCF Done:  E(RB3LYP) =  -784.034851075     A.U. after   14 cycles
 SCF Done:  E(RB3LYP) =  -784.060446724     A.U. after   16 cycles
 SCF Done:  E(RB3LYP) =  -784.057006795     A.U. after   17 cycles
 SCF Done:  E(RB3LYP) =  -784.064056001     A.U. after   12 cycles
 SCF Done:  E(RB3LYP) =  -784.065258837     A.U. after   15 cycles
 SCF Done:  E(RB3LYP) =  -784.067006794     A.U. after   14 cycles
 SCF Done:  E(RB3LYP) =  -784.066339180     A.U. after   15 cycles
 SCF Done:  E(RB3LYP) =  -784.067106926     A.U. after   10 cycles
 SCF Done:  E(RB3LYP) =  -784.066845933     A.U. after   14 cycles
 SCF Done:  E(RB3LYP) =  -784.067157572     A.U. after    9 cycles
 SCF Done:  E(RB3LYP) =  -784.067176611     A.U. after   11 cycles
 SCF Done:  E(RB3LYP) =  -784.067178706     A.U. after   10 cycles
 SCF Done:  E(RB3LYP) =  -784.067179388     A.U. after   10 cycles
 SCF Done:  E(RB3LYP) =  -784.067179676     A.U. after   10 cycles
 SCF Done:  E(RB3LYP) =  -784.067179789     A.U. after    8 cycles
 Optimization completed.
    -- Stationary point found.
 Normal termination of Gaussian 09 at Fri Aug 20 15:54:00 2021.

 ----------------------------------------------------------------------
 #P Geom=AllCheck Guess=TCheck SCRF=Check GenChk RB3LYP/6-31G(d,p) Freq
 ----------------------------------------------------------------------

 Structure from the checkpoint file:  "/public/home/users/caep010/.cache/gau_scr/Gau-38010.chk"
 --------
 CIWMAW01
 --------
 Charge =  0 Multiplicity = 1

                         Standard orientation:
 ---------------------------------------------------------------------
 Center     Atomic      Atomic             Coordinates (Angstroms)
 Number     Number       Type             X           Y           Z
 ---------------------------------------------------------------------
      1          7           0        0.000092    1.915781   -0.000430
      2          6           0       -1.160636    1.246700   -0.000281
      3          7           0       -2.285910    1.971427   -0.000982
      4          1           0       -3.173935    1.487637   -0.000643
      5          6           0        1.160714    1.246543    0.000170
      6          6           0        1.134806   -0.195193    0.000283
      7          7           0       -0.000088   -0.850254    0.000268
      8          6           0       -1.134889   -0.195074    0.000205
      9          7           0       -2.347123   -1.017250    0.000290
     10          8           0       -3.440125   -0.416149    0.001167
     11          8           0       -2.233726   -2.231271   -0.000454
     12          7           0        2.346975   -1.017308   -0.000097
     13          8           0        2.233698   -2.231325   -0.000887
     14          8           0        3.439956   -0.416016    0.000296
     15          7           0        2.286209    1.970988    0.000990
     16          1           0        3.173982    1.486928   -0.000284
     17          1           0        2.202472    2.975816   -0.000899
     18          1           0       -2.201987    2.976153   -0.001673
 ---------------------------------------------------------------------

 SCF Done:  E(RB3LYP) =  -784.067179789     A.U. after    1 cycles

 The electronic state is 1-A.
 Alpha  occ. eigenvalues --  -19.19045 -19.19043 -19.19021 -19.19020 -14.58229
 Alpha  occ. eigenvalues --  -14.58229 -14.39781 -14.39246 -14.39243 -14.36827
 Alpha  occ. eigenvalues --  -10.32612 -10.32610 -10.29687 -10.29686  -1.23411
 Alpha  occ. eigenvalues --   -1.23359  -1.06073  -1.06014  -1.04634  -0.98483
 Alpha  occ. eigenvalues --   -0.97879  -0.90798  -0.84581  -0.76970  -0.72191
 Alpha  occ. eigenvalues --   -0.67926  -0.64199  -0.61683  -0.59189  -0.57680
 Alpha  occ. eigenvalues --   -0.54989  -0.54954  -0.54135  -0.54056  -0.53435
 Alpha  occ. eigenvalues --   -0.51199  -0.50969  -0.48778  -0.47531  -0.40177
 Alpha  occ. eigenvalues --   -0.39458  -0.35058  -0.33679  -0.31859  -0.31830
 Alpha  occ. eigenvalues --   -0.31637  -0.30211  -0.30207  -0.29469  -0.28873
 Alpha  occ. eigenvalues --   -0.26005
 Alpha virt. eigenvalues --   -0.11130  -0.08434  -0.03821   0.00271   0.06747
 Alpha virt. eigenvalues --    0.07929   0.11907   0.12829   0.13644   0.13902
 Alpha virt. eigenvalues --    0.14515   0.19171   0.22967   0.24870   0.27034

 Mulliken charges:
               1
     1  N   -0.597004
     2  C    0.546244
     3  N   -0.628688
     4  H    0.318748
     5  C    0.546232
     6  C    0.413445
     7  N   -0.455386
     8  C    0.413405
     9  N    0.390663
    10  O   -0.441968
    11  O   -0.361153
    12  N    0.390658
    13  O   -0.361165
    14  O   -0.442021
    15  N   -0.628677
    16  H    0.318773
    17  H    0.288940
    18  H    0.288953
 Sum of Mulliken charges =  -0.00000

 Dipole moment (field-independent basis, Debye):
    X=             -0.0006    Y=              7.5449    Z=             -0.0053  Tot=              7.5449
 Quadrupole moment (field-independent basis, Debye-Ang):
   XX=            -82.8030   YY=            -76.3990   ZZ=            -75.3913
   XY=             -0.0033   XZ=             -0.0035   YZ=             -0.0184

  Exact polarizability: 167.790  -0.005 121.415   0.009   0.003  36.033
 Approx polarizability: 312.110  -0.016 234.458   0.028   0.035  57.094

                      1                      2                      3
                      A                      A                      A
 Frequencies --     43.7673                62.6072                80.9518
 Red. masses --     10.6393                14.6732                 8.7658
 Frc consts  --      0.0120                 0.0339                 0.0338
 IR Inten    --      0.0000                 0.0017                 0.0001

                      4                      5                      6
                      A                      A                      A
 Frequencies --    143.7027               183.2797               227.9043
 Red. masses --      7.9937                13.8412                11.5498
 Frc consts  --      0.0973                 0.2739                 0.3535
 IR Inten    --      0.3005                 1.6476                 0.4035

                      7                      8                      9
                      A                      A                      A
 Frequencies --    315.6119               337.1688               357.3586
 Red. masses --      8.1660                 3.6471                 5.2229
 Frc consts  --      0.4793                 0.2443                 0.3930
 IR Inten    --      0.2972                 0.0026                 6.5589

                     10                     11                     12
                      A                      A                      A
 Frequencies --    357.4135               377.2058               397.6371
 Red. masses --      4.9020                 9.7566                 1.2128
 Frc consts  --      0.3690                 0.8179                 0.1130
 IR Inten    --      7.3162                 3.4730               360.1712

                     13                     14                     15
                      A                      A                      A
 Frequencies --    402.6147               407.2994               499.6569
 Red. masses --      1.4259                 4.8255                 8.8554
 Frc consts  --      0.1362                 0.4716                 1.3026
 IR Inten    --      0.2141                 0.1819                 0.2957

                     16                     17                     18
                      A                      A                      A
 Frequencies --    507.5048               615.4692               628.7488
 Red. masses --      7.2293                10.1537                 3.6321
 Frc consts  --      1.0971                 2.2661                 0.8460
 IR Inten    --    106.7634                 3.1902                 6.9113

                     19                     20                     21
                      A                      A                      A
 Frequencies --    650.6730               671.8240               712.5744
 Red. masses --      1.5570                 1.0486                 2.4436
 Frc consts  --      0.3884                 0.2789                 0.7310
 IR Inten    --      0.0012                 3.9161                 0.0009

                     22                     23                     24
                      A                      A                      A
 Frequencies --    714.8151               719.5798               745.8930
 Red. masses --     13.2406                10.7560                12.4312
 Frc consts  --      3.9861                 3.2814                 4.0749
 IR Inten    --      0.4865                24.1998                23.6998

                     25                     26                     27
                      A                      A                      A
 Frequencies --    755.1380               761.8154               841.5521
 Red. masses --      8.0168                11.4979                14.8569
 Frc consts  --      2.6934                 3.9316                 6.1993
 IR Inten    --      6.0857                 0.0001                39.4953

                     28                     29                     30
                      A                      A                      A
 Frequencies --    892.5831              1022.4729              1103.3529
 Red. masses --     10.4998                 1.6895                 2.7715
 Frc consts  --      4.9286                 1.0407                 1.9879
 IR Inten    --     77.1504                 0.5732                53.9901

                     31                     32                     33
                      A                      A                      A
 Frequencies --   1175.0355              1212.3464              1310.6578
 Red. masses --      7.5115                 2.9941                11.1998
 Frc consts  --      6.1105                 2.5928                11.3354
 IR Inten    --      1.5520                 3.6346               723.5604

                     34                     35                     36
                      A                      A                      A
 Frequencies --   1354.4086              1409.2112              1410.7786
 Red. masses --      7.9434                 5.2745                 5.2914
 Frc consts  --      8.5854                 6.1715                 6.2049
 IR Inten    --     92.9847                55.3767                21.3250

                     37                     38                     39
                      A                      A                      A
 Frequencies --   1484.7182              1504.1914              1544.3515
 Red. masses --      2.6918                 2.1180                 4.3510
 Frc consts  --      3.4961                 2.8235                 6.1141
 IR Inten    --    130.8973               237.0545                 1.7862

                     40                     41                     42
                      A                      A                      A
 Frequencies --   1572.3948              1635.8731              1653.7232
 Red. masses --      4.2993                 2.6677                 5.2010
 Frc consts  --      6.2628                 4.2061                 8.3804
 IR Inten    --      2.4816               318.8581               124.4437

                     43                     44                     45
                      A                      A                      A
 Frequencies --   1670.1057              1671.8685              3559.3193
 Red. masses --     12.4668                 4.4937                 1.0455
 Frc consts  --     20.4877                 7.4005                 7.8041
 IR Inten    --    613.1754               538.8502               286.5805

                     46                     47                     48
                      A                      A                      A
 Frequencies --   3561.3697              3721.4565              3722.5402
 Red. masses --      1.0460                 1.1054                 1.1055
 Frc consts  --      7.8164                 9.0196                 9.0258
 IR Inten    --      4.6442                33.8397               194.1883

 - Thermochemistry -
 -------------------
 Temperature   298.150 Kelvin.  Pressure   1.00000 Atm.
 Atom     1 has atomic number  7 and mass  14.00307

 Molecular mass:   200.02940 amu.
 Principal axes and moments of inertia in atomic units:
                           1         2         3
     Eigenvalues --  1515.062413328.718814843.78066
           X            1.00000  -0.00000   0.00000
           Y            0.00000   1.00000  -0.00002
           Z           -0.00000   0.00002   1.00000
 This molecule is an asymmetric top.
 Rotational symmetry number  1.
 Warning -- assumption of classical behavior for rotation
           may cause significant error
 Rotational temperatures (Kelvin)      0.05717     0.02602     0.01788
 Rotational constants (GHZ):           1.19120     0.54217     0.37259
 Zero-point vibrational energy     303328.3 (Joules/Mol)
                                   72.49720 (Kcal/Mol)
 Warning -- explicit consideration of  17 degrees of freedom as
           vibrations may cause significant error
 Vibrational temperatures:     62.97    90.08   116.47   206.76   263.70
          (Kelvin)            327.90   454.09   485.11   514.16   514.24
                              542.71   572.11   579.27   586.01   718.89
                              730.19   885.52   904.63   936.17   966.60
                             1025.23  1028.46  1035.31  1073.17  1086.47
                             1096.08  1210.80  1284.23  1471.11  1587.48
                             1690.61  1744.29  1885.74  1948.69  2027.54
                             2029.79  2136.18  2164.19  2221.97  2262.32
                             2353.65  2379.34  2402.91  2405.44  5121.06
                             5124.01  5354.34  5355.90

 Zero-point correction=                           0.115532 (Hartree/Particle)
 Thermal correction to Energy=                    0.127162
 Thermal correction to Enthalpy=                  0.128106
 Thermal correction to Gibbs Free Energy=         0.077029
 Sum of electronic and zero-point Energies=           -783.951648
 Sum of electronic and thermal Energies=              -783.940018
 Sum of electronic and thermal Enthalpies=            -783.939074
 Sum of electronic and thermal Free Energies=         -783.990151

                     E (Thermal)             CV                S
                      KCal/Mol        Cal/Mol-Kelvin    Cal/Mol-Kelvin
 Total                   79.795             43.636            107.501
 Electronic               0.000              0.000              0.000
 Translational            0.889              2.981             41.785
 Rotational               0.889              2.981             31.569
 Vibrational             78.018             37.675             34.148
 Vibration     1          0.595              1.980              5.081
 Vibration     2          0.597              1.972              4.373
 Vibration     3          0.600              1.962              3.868
 Vibration     4          0.616              1.909              2.754
 Vibration     5          0.631              1.863              2.295
 Vibration     6          0.651              1.798              1.895
 Vibration     7          0.703              1.644              1.333
 Vibration     8          0.718              1.601              1.226
 Vibration     9          0.733              1.560              1.134
 Vibration    10          0.733              1.560              1.133
 Vibration    11          0.748              1.519              1.050
 Vibration    12          0.764              1.475              0.971
 Vibration    13          0.768              1.464              0.953
 Vibration    14          0.772              1.454              0.936
 Vibration    15          0.855              1.251              0.659
 Vibration    16          0.863              1.233              0.640
 Vibration    17          0.975              0.999              0.424

 Normal termination of Gaussian 09 at Fri Aug 20 15:54:30 2021.
