 Gaussian 09, Revision E.01,
 Gaussian 09:  ES64L-G09RevE.01 30-Nov-2015

 -------------------------
 #P OPT Freq B3LYP/6-31G**
 -------------------------

 ------
 JEDSUG
 ------
 Symbolic Z-matrix:
 Charge =  0 Multiplicity = 1

 SCF Done:  E(RB3LYP) =  -711.528861220     A.U. after   16 cycles
 SCF Done:  E(RB3LYP) =  -711.594503443     A.U. after   14 cycles
 SCF Done:  E(RB3LYP) =  -711.609385243     A.U. after   15 cycles
 SCF Done:  E(RB3LYP) =  -711.604798593     A.U. after   15 cycles
 SCF Done:  E(RB3LYP) =  -711.610722313     A.U. after   11 cycles
 SCF Done:  E(RB3LYP) =  -711.611238570     A.U. after   14 cycles
 SCF Done:  E(RB3LYP) =  -711.611672648     A.U. after   14 cycles
 SCF Done:  E(RB3LYP) =  -711.611604880     A.U. after   13 cycles
 SCF Done:  E(RB3LYP) =  -711.611906578     A.U. after   10 cycles
 SCF Done:  E(RB3LYP) =  -711.612032347     A.U. after   13 cycles
 SCF Done:  E(RB3LYP) =  -711.613120403     A.U. after   15 cycles
 SCF Done:  E(RB3LYP) =  -711.613452140     A.U. after   16 cycles
 SCF Done:  E(RB3LYP) =  -711.613697506     A.U. after   13 cycles
 SCF Done:  E(RB3LYP) =  -711.613756993     A.U. after   12 cycles
 SCF Done:  E(RB3LYP) =  -711.613777348     A.U. after   13 cycles
 SCF Done:  E(RB3LYP) =  -711.613782049     A.U. after   10 cycles
 SCF Done:  E(RB3LYP) =  -711.613785205     A.U. after   10 cycles
 SCF Done:  E(RB3LYP) =  -711.613786250     A.U. after   10 cycles
 SCF Done:  E(RB3LYP) =  -711.613786810     A.U. after    9 cycles
 Optimization completed.
    -- Stationary point found.
 Normal termination of Gaussian 09 at Fri Aug 20 15:49:32 2021.

 ----------------------------------------------------------------------
 #P Geom=AllCheck Guess=TCheck SCRF=Check GenChk RB3LYP/6-31G(d,p) Freq
 ----------------------------------------------------------------------

 Structure from the checkpoint file:  "/public/home/users/caep010/.cache/gau_scr/Gau-61355.chk"
 ------
 JEDSUG
 ------
 Charge =  0 Multiplicity = 1

                         Standard orientation:
 ---------------------------------------------------------------------
 Center     Atomic      Atomic             Coordinates (Angstroms)
 Number     Number       Type             X           Y           Z
 ---------------------------------------------------------------------
      1          6           0       -0.000134   -0.657675    0.000807
      2          8           0       -0.000401   -1.852091    0.002190
      3          7           0       -1.092194    0.234505   -0.201017
      4          7           0       -2.436219   -0.178923   -0.039375
      5          8           0       -3.211951    0.733622    0.225679
      6          8           0       -2.689689   -1.352909   -0.210224
      7          6           0       -0.761151    1.628117    0.102524
      8          7           0        1.092284    0.234470    0.200939
      9          6           0        0.761320    1.628053   -0.102819
     10          1           0        1.277849    2.305046    0.576692
     11          1           0        1.041105    1.875120   -1.131564
     12          1           0       -1.040848    1.875350    1.131204
     13          7           0        2.436341   -0.179121    0.038740
     14          8           0        2.689617   -1.353449    0.207146
     15          8           0        3.212178    0.733820   -0.224459
     16          1           0       -1.277836    2.305064   -0.577079
 ---------------------------------------------------------------------

 SCF Done:  E(RB3LYP) =  -711.613786810     A.U. after    1 cycles

 The electronic state is 1-A.
 Alpha  occ. eigenvalues --  -19.21457 -19.21455 -19.21387 -19.21385 -19.17970
 Alpha  occ. eigenvalues --  -14.63666 -14.63663 -14.45956 -14.45956 -10.38253
 Alpha  occ. eigenvalues --  -10.28829 -10.28808  -1.27886  -1.27749  -1.11630
 Alpha  occ. eigenvalues --   -1.09944  -1.09930  -1.03990  -0.98373  -0.83653
 Alpha  occ. eigenvalues --   -0.78327  -0.72857  -0.66374  -0.60456  -0.60066
 Alpha  occ. eigenvalues --   -0.58614  -0.58231  -0.58025  -0.55121  -0.53230
 Alpha  occ. eigenvalues --   -0.53184  -0.50337  -0.47633  -0.45893  -0.45749
 Alpha  occ. eigenvalues --   -0.45207  -0.36451  -0.36234  -0.34180  -0.34148
 Alpha  occ. eigenvalues --   -0.33309  -0.32727  -0.32468  -0.31797  -0.30677
 Alpha virt. eigenvalues --   -0.09404  -0.07730   0.00144   0.03699   0.07348
 Alpha virt. eigenvalues --    0.08227   0.08317   0.09995   0.11847   0.14961
 Alpha virt. eigenvalues --    0.15634   0.18472   0.21362   0.23955   0.26459

 Mulliken charges:
               1
     1  C    0.830986
     2  O   -0.398554
     3  N   -0.420415
     4  N    0.659092
     5  O   -0.391906
     6  O   -0.346149
     7  C   -0.045940
     8  N   -0.420546
     9  C   -0.045773
    10  H    0.166421
    11  H    0.162623
    12  H    0.162653
    13  N    0.659175
    14  O   -0.346203
    15  O   -0.391865
    16  H    0.166401
 Sum of Mulliken charges =   0.00000

 Dipole moment (field-independent basis, Debye):
    X=              0.0012    Y=              5.2617    Z=             -0.0013  Tot=              5.2617
 Quadrupole moment (field-independent basis, Debye-Ang):
   XX=            -84.9950   YY=            -68.2147   ZZ=            -62.3094
   XY=             -0.0028   XZ=              0.5567   YZ=             -0.0020

  Exact polarizability: 100.566   0.001  87.051  -1.915   0.011  40.941
 Approx polarizability: 140.057   0.005 179.226  -5.708   0.047  64.962

                      1                      2                      3
                      A                      A                      A
 Frequencies --     61.1954                64.3739                70.9230
 Red. masses --     12.3995                13.1970                13.5642
 Frc consts  --      0.0274                 0.0322                 0.0402
 IR Inten    --      1.9824                 0.0328                 2.0557

                      4                      5                      6
                      A                      A                      A
 Frequencies --    142.8434               180.3865               205.2547
 Red. masses --      4.6756                 9.8146                 4.2502
 Frc consts  --      0.0562                 0.1882                 0.1055
 IR Inten    --      0.0255                 3.7085                 1.1771

                      7                      8                      9
                      A                      A                      A
 Frequencies --    230.9875               284.6169               337.8585
 Red. masses --      2.5152                 9.5353                13.8978
 Frc consts  --      0.0791                 0.4551                 0.9347
 IR Inten    --      2.7787                 2.4453                 0.2380

                     10                     11                     12
                      A                      A                      A
 Frequencies --    407.3983               468.4011               521.6237
 Red. masses --     11.1740                 6.2050                13.5246
 Frc consts  --      1.0927                 0.8021                 2.1681
 IR Inten    --      0.2334                 8.7551                 3.6074

                     13                     14                     15
                      A                      A                      A
 Frequencies --    688.2608               704.4579               715.9371
 Red. masses --      4.1429                 8.6951                 7.7229
 Frc consts  --      1.1563                 2.5424                 2.3323
 IR Inten    --      3.8006                14.4272                18.4778

                     16                     17                     18
                      A                      A                      A
 Frequencies --    730.8116               765.6866               768.4372
 Red. masses --      7.8281                13.3874                12.0987
 Frc consts  --      2.4633                 4.6243                 4.2093
 IR Inten    --     48.3779                 0.3874                40.0743

                     19                     20                     21
                      A                      A                      A
 Frequencies --    836.8839               876.9560               943.5699
 Red. masses --     12.2313                 1.8719                 3.9684
 Frc consts  --      5.0472                 0.8482                 2.0817
 IR Inten    --      4.3570               131.1742                25.4148

                     22                     23                     24
                      A                      A                      A
 Frequencies --   1004.3378              1110.7303              1121.0673
 Red. masses --      2.2390                 4.2588                 5.2901
 Frc consts  --      1.3306                 3.0957                 3.9172
 IR Inten    --      1.6412                 0.1172               924.1026

                     25                     26                     27
                      A                      A                      A
 Frequencies --   1125.9443              1223.9545              1226.3763
 Red. masses --      1.7199                 4.1106                 1.6855
 Frc consts  --      1.2846                 3.6282                 1.4936
 IR Inten    --      5.2095                12.5246               150.2754

                     28                     29                     30
                      A                      A                      A
 Frequencies --   1247.7691              1268.5689              1311.1050
 Red. masses --      2.7330                 1.5035                 2.9639
 Frc consts  --      2.5071                 1.4255                 3.0019
 IR Inten    --     83.1436                15.7106               446.0254

                     31                     32                     33
                      A                      A                      A
 Frequencies --   1337.1341              1390.4635              1400.1850
 Red. masses --      5.6333                 1.9108                 2.2791
 Frc consts  --      5.9342                 2.1767                 2.6326
 IR Inten    --      2.6168                 1.2957                32.9422

                     34                     35                     36
                      A                      A                      A
 Frequencies --   1526.7236              1537.3146              1699.9380
 Red. masses --      1.0899                 1.0889                14.4512
 Frc consts  --      1.4967                 1.5163                24.6048
 IR Inten    --      8.9720                 0.1204               321.7036

                     37                     38                     39
                      A                      A                      A
 Frequencies --   1704.0946              1910.0111              3079.4589
 Red. masses --     14.4633                13.0745                 1.0690
 Frc consts  --     24.7460                28.1027                 5.9727
 IR Inten    --     29.3451               400.3715                 9.1555

                     40                     41                     42
                      A                      A                      A
 Frequencies --   3083.9380              3156.6661              3164.6240
 Red. masses --      1.0634                 1.1007                 1.1044
 Frc consts  --      5.9587                 6.4620                 6.5168
 IR Inten    --     10.3057                 2.4133                 5.1023

 - Thermochemistry -
 -------------------
 Temperature   298.150 Kelvin.  Pressure   1.00000 Atm.
 Atom     1 has atomic number  6 and mass  12.00000

 Molecular mass:   176.01817 amu.
 Principal axes and moments of inertia in atomic units:
                           1         2         3
     Eigenvalues --   810.657212814.668573570.39818
           X            1.00000   0.00000  -0.00114
           Y           -0.00000   1.00000  -0.00001
           Z            0.00114   0.00001   1.00000
 This molecule is an asymmetric top.
 Rotational symmetry number  1.
 Warning -- assumption of classical behavior for rotation
           may cause significant error
 Rotational temperatures (Kelvin)      0.10684     0.03077     0.02426
 Rotational constants (GHZ):           2.22627     0.64119     0.50547
 Zero-point vibrational energy     272971.5 (Joules/Mol)
                                   65.24175 (Kcal/Mol)
 Warning -- explicit consideration of  12 degrees of freedom as
           vibrations may cause significant error
 Vibrational temperatures:     88.05    92.62   102.04   205.52   259.54
          (Kelvin)            295.32   332.34   409.50   486.10   586.15
                              673.92   750.50   990.25  1013.56  1030.07
                             1051.47  1101.65  1105.61  1204.09  1261.74
                             1357.58  1445.02  1598.09  1612.96  1619.98
                             1761.00  1764.48  1795.26  1825.19  1886.39
                             1923.84  2000.56  2014.55  2196.61  2211.85
                             2445.83  2451.81  2748.08  4430.65  4437.09
                             4541.73  4553.18

 Zero-point correction=                           0.103969 (Hartree/Particle)
 Thermal correction to Energy=                    0.114096
 Thermal correction to Enthalpy=                  0.115040
 Thermal correction to Gibbs Free Energy=         0.066848
 Sum of electronic and zero-point Energies=           -711.509817
 Sum of electronic and thermal Energies=              -711.499691
 Sum of electronic and thermal Enthalpies=            -711.498747
 Sum of electronic and thermal Free Energies=         -711.546939

                     E (Thermal)             CV                S
                      KCal/Mol        Cal/Mol-Kelvin    Cal/Mol-Kelvin
 Total                   71.596             35.373            101.429
 Electronic               0.000              0.000              0.000
 Translational            0.889              2.981             41.403
 Rotational               0.889              2.981             30.478
 Vibrational             69.819             29.411             29.548
 Vibration     1          0.597              1.973              4.418
 Vibration     2          0.597              1.971              4.318
 Vibration     3          0.598              1.968              4.128
 Vibration     4          0.616              1.910              2.765
 Vibration     5          0.629              1.866              2.324
 Vibration     6          0.640              1.832              2.085
 Vibration     7          0.653              1.794              1.871
 Vibration     8          0.683              1.702              1.506
 Vibration     9          0.718              1.600              1.222
 Vibration    10          0.772              1.454              0.936
 Vibration    11          0.826              1.320              0.742
 Vibration    12          0.877              1.202              0.606

 Normal termination of Gaussian 09 at Fri Aug 20 15:49:55 2021.
