 Gaussian 09, Revision E.01,
 Gaussian 09:  ES64L-G09RevE.01 30-Nov-2015

 -------------------------
 #P OPT Freq B3LYP/6-31G**
 -------------------------

 --------
 ZZZGVU01
 --------
 Symbolic Z-matrix:
 Charge =  0 Multiplicity = 1

 SCF Done:  E(RB3LYP) =  -680.566538033     A.U. after   16 cycles
 SCF Done:  E(RB3LYP) =  -680.568954067     A.U. after   15 cycles
 SCF Done:  E(RB3LYP) =  -680.553803085     A.U. after   17 cycles
 SCF Done:  E(RB3LYP) =  -680.569990670     A.U. after   12 cycles
 SCF Done:  E(RB3LYP) =  -680.570264525     A.U. after   15 cycles
 SCF Done:  E(RB3LYP) =  -680.567058196     A.U. after   16 cycles
 SCF Done:  E(RB3LYP) =  -680.570569881     A.U. after   11 cycles
 SCF Done:  E(RB3LYP) =  -680.570843052     A.U. after   14 cycles
 SCF Done:  E(RB3LYP) =  -680.570876664     A.U. after   13 cycles
 SCF Done:  E(RB3LYP) =  -680.570884089     A.U. after   12 cycles
 SCF Done:  E(RB3LYP) =  -680.570885032     A.U. after   10 cycles
 SCF Done:  E(RB3LYP) =  -680.570885591     A.U. after   10 cycles
 SCF Done:  E(RB3LYP) =  -680.570885998     A.U. after   10 cycles
 SCF Done:  E(RB3LYP) =  -680.570886190     A.U. after   10 cycles
 SCF Done:  E(RB3LYP) =  -680.570886222     A.U. after    9 cycles
 Optimization completed.
    -- Stationary point found.
 Normal termination of Gaussian 09 at Fri Aug 20 15:56:42 2021.

 ----------------------------------------------------------------------
 #P Geom=AllCheck Guess=TCheck SCRF=Check GenChk RB3LYP/6-31G(d,p) Freq
 ----------------------------------------------------------------------

 Structure from the checkpoint file:  "/public/home/users/caep010/.cache/gau_scr/Gau-219572.chk"
 --------
 ZZZGVU01
 --------
 Charge =  0 Multiplicity = 1

                         Standard orientation:
 ---------------------------------------------------------------------
 Center     Atomic      Atomic             Coordinates (Angstroms)
 Number     Number       Type             X           Y           Z
 ---------------------------------------------------------------------
      1          6           0        1.224218    1.201331   -0.029832
      2          6           0        2.593922    1.828830   -0.059388
      3          6           0        0.098040    2.043034   -0.042223
      4          6           0        0.961826   -0.184946   -0.006034
      5          7           0        2.051179   -1.184562    0.008427
      6          6           0       -0.329979   -0.705829    0.004939
      7          6           0       -1.397585    0.177644    0.005612
      8          6           0       -1.202862    1.556171   -0.018632
      9          7           0       -2.768817   -0.359326    0.028443
     10          8           0       -3.692279    0.453080    0.018867
     11          8           0        3.184234   -0.802236    0.298522
     12          8           0        1.756955   -2.346604   -0.262360
     13          8           0       -2.901100   -1.580565    0.055744
     14          1           0       -0.491159   -1.774730    0.011194
     15          1           0       -2.060082    2.217615   -0.022110
     16          1           0        0.258596    3.115860   -0.070608
     17          1           0        3.126883    1.654706    0.878728
     18          1           0        3.219069    1.401777   -0.846704
     19          1           0        2.502199    2.905187   -0.221411
 ---------------------------------------------------------------------

 SCF Done:  E(RB3LYP) =  -680.570886222     A.U. after    1 cycles

 The electronic state is 1-A.
 Alpha  occ. eigenvalues --  -19.19845 -19.19752 -19.19677 -19.19670 -14.59008
 Alpha  occ. eigenvalues --  -14.58844 -10.28053 -10.27629 -10.26287 -10.24838
 Alpha  occ. eigenvalues --  -10.24687 -10.23905 -10.21323  -1.24228  -1.24045
 Alpha  occ. eigenvalues --   -1.06903  -1.06812  -0.92587  -0.85212  -0.82427
 Alpha  occ. eigenvalues --   -0.76449  -0.73184  -0.68524  -0.64461  -0.60226
 Alpha  occ. eigenvalues --   -0.57746  -0.55266  -0.54732  -0.54114  -0.53617
 Alpha  occ. eigenvalues --   -0.52237  -0.50720  -0.49983  -0.47594  -0.44988
 Alpha  occ. eigenvalues --   -0.42634  -0.40886  -0.40399  -0.40277  -0.32650
 Alpha  occ. eigenvalues --   -0.32587  -0.32468  -0.32045  -0.31187  -0.30649
 Alpha  occ. eigenvalues --   -0.30010  -0.29803
 Alpha virt. eigenvalues --   -0.10943  -0.10111  -0.03399  -0.01169   0.06437
 Alpha virt. eigenvalues --    0.09466   0.11204   0.11701   0.13025   0.15216
 Alpha virt. eigenvalues --    0.16995   0.17537   0.18698   0.19922   0.25102

 Mulliken charges:
               1
     1  C    0.138385
     2  C   -0.351755
     3  C   -0.142468
     4  C    0.185280
     5  N    0.380361
     6  C   -0.084038
     7  C    0.228954
     8  C   -0.063118
     9  N    0.392254
    10  O   -0.389943
    11  O   -0.392079
    12  O   -0.378650
    13  O   -0.385377
    14  H    0.182232
    15  H    0.150168
    16  H    0.113668
    17  H    0.158549
    18  H    0.147908
    19  H    0.109667
 Sum of Mulliken charges =  -0.00000

 Dipole moment (field-independent basis, Debye):
    X=              1.5598    Y=              4.5836    Z=             -0.0941  Tot=              4.8426
 Quadrupole moment (field-independent basis, Debye-Ang):
   XX=            -90.6269   YY=            -72.2893   ZZ=            -71.2627
   XY=              3.9586   XZ=             -0.6227   YZ=             -0.6907

  Exact polarizability: 143.766   3.420 118.273   1.474   0.997  41.911
 Approx polarizability: 235.884   4.171 231.392   7.288   5.822  67.166

                      1                      2                      3
                      A                      A                      A
 Frequencies --     31.3311                54.3989               106.1880
 Red. masses --     10.9504                13.3676                 4.1723
 Frc consts  --      0.0063                 0.0233                 0.0277
 IR Inten    --      0.2354                 0.5101                 0.7266

                      4                      5                      6
                      A                      A                      A
 Frequencies --    158.8494               169.0201               220.1155
 Red. masses --      5.7125                12.0341                 1.0577
 Frc consts  --      0.0849                 0.2026                 0.0302
 IR Inten    --      2.7110                 3.5171                 1.1382

                      7                      8                      9
                      A                      A                      A
 Frequencies --    289.4183               296.5345               352.0135
 Red. masses --      5.2859                 4.5343                10.3994
 Frc consts  --      0.2609                 0.2349                 0.7592
 IR Inten    --      0.8690                 1.9622                 1.3456

                     10                     11                     12
                      A                      A                      A
 Frequencies --    355.7362               395.6939               446.0134
 Red. masses --      6.9713                 4.7252                 3.4538
 Frc consts  --      0.5198                 0.4359                 0.4048
 IR Inten    --      1.3520                 0.7577                 0.2146

                     13                     14                     15
                      A                      A                      A
 Frequencies --    502.3727               528.9658               576.1197
 Red. masses --      4.6920                 6.9967                 4.6037
 Frc consts  --      0.6977                 1.1535                 0.9003
 IR Inten    --      3.1026                 2.2844                 0.3257

                     16                     17                     18
                      A                      A                      A
 Frequencies --    651.6333               681.2618               715.9240
 Red. masses --      7.0217                 4.7883                 6.8778
 Frc consts  --      1.7567                 1.3094                 2.0770
 IR Inten    --      5.2298                 3.6962                25.6937

                     19                     20                     21
                      A                      A                      A
 Frequencies --    742.6324               778.5083               799.9421
 Red. masses --      4.3966                 8.7001                 5.7905
 Frc consts  --      1.4286                 3.1067                 2.1831
 IR Inten    --     31.5483                 1.2460                19.4533

                     22                     23                     24
                      A                      A                      A
 Frequencies --    846.8675               857.4702               934.9167
 Red. masses --     13.2325                 1.3542                 7.2002
 Frc consts  --      5.5914                 0.5866                 3.7080
 IR Inten    --     23.9562                 9.6211                30.6126

                     25                     26                     27
                      A                      A                      A
 Frequencies --    961.2565               997.9803              1029.0618
 Red. masses --      1.4533                 1.3297                 1.4514
 Frc consts  --      0.7912                 0.7803                 0.9055
 IR Inten    --     10.8004                 0.3141                 2.0773

                     28                     29                     30
                      A                      A                      A
 Frequencies --   1062.4212              1081.3624              1154.0153
 Red. masses --      1.5593                 2.0354                 3.9233
 Frc consts  --      1.0370                 1.4023                 3.0784
 IR Inten    --      5.4509                45.6436                12.7062

                     31                     32                     33
                      A                      A                      A
 Frequencies --   1172.8263              1223.1422              1289.3429
 Red. masses --      1.3151                 3.7196                 1.4361
 Frc consts  --      1.0658                 3.2787                 1.4066
 IR Inten    --     18.1651                 7.1603                 6.9761

                     34                     35                     36
                      A                      A                      A
 Frequencies --   1365.0387              1391.4254              1403.2571
 Red. masses --      6.4210                13.2396                13.2830
 Frc consts  --      7.0493                15.1024                15.4107
 IR Inten    --      3.0271               400.1379               139.0437

                     37                     38                     39
                      A                      A                      A
 Frequencies --   1428.8891              1434.2731              1487.6895
 Red. masses --      1.4287                 2.3860                 1.0550
 Frc consts  --      1.7187                 2.8919                 1.3757
 IR Inten    --      0.4891                10.4868                 6.5062

                     40                     41                     42
                      A                      A                      A
 Frequencies --   1500.3253              1516.9094              1611.7366
 Red. masses --      1.1740                 2.6710                 9.1210
 Frc consts  --      1.5570                 3.6211                13.9599
 IR Inten    --     15.0857                 7.6307                93.8149

                     43                     44                     45
                      A                      A                      A
 Frequencies --   1630.7625              1669.9976              1673.6660
 Red. masses --      9.2917                 8.3618                11.3364
 Frc consts  --     14.5589                13.7398                18.7096
 IR Inten    --     48.1208                99.5434               198.6041

                     46                     47                     48
                      A                      A                      A
 Frequencies --   3066.9402              3137.2066              3147.6085
 Red. masses --      1.0356                 1.1001                 1.1046
 Frc consts  --      5.7393                 6.3794                 6.4477
 IR Inten    --      7.6241                 3.5690                16.2545

                     49                     50                     51
                      A                      A                      A
 Frequencies --   3205.4613              3247.3831              3271.4282
 Red. masses --      1.0905                 1.0933                 1.0914
 Frc consts  --      6.6018                 6.7929                 6.8817
 IR Inten    --      6.0261                 2.9944                20.5687

 - Thermochemistry -
 -------------------
 Temperature   298.150 Kelvin.  Pressure   1.00000 Atm.
 Atom     1 has atomic number  6 and mass  12.00000

 Molecular mass:   182.03276 amu.
 Principal axes and moments of inertia in atomic units:
                           1         2         3
     Eigenvalues --  1217.686363278.566344466.05964
           X            0.99969   0.02474  -0.00060
           Y           -0.02475   0.99969  -0.00204
           Z            0.00055   0.00206   1.00000
 This molecule is an asymmetric top.
 Rotational symmetry number  1.
 Warning -- assumption of classical behavior for rotation
           may cause significant error
 Rotational temperatures (Kelvin)      0.07113     0.02642     0.01939
 Rotational constants (GHZ):           1.48211     0.55047     0.40410
 Zero-point vibrational energy     350824.8 (Joules/Mol)
                                   83.84915 (Kcal/Mol)
 Warning -- explicit consideration of  15 degrees of freedom as
           vibrations may cause significant error
 Vibrational temperatures:     45.08    78.27   152.78   228.55   243.18
          (Kelvin)            316.70   416.41   426.65   506.47   511.82
                              569.31   641.71   722.80   761.06   828.91
                              937.55   980.18  1030.05  1068.48  1120.10
                             1150.94  1218.45  1233.71  1345.13  1383.03
                             1435.87  1480.59  1528.59  1555.84  1660.37
                             1687.43  1759.83  1855.07  1963.98  2001.95
                             2018.97  2055.85  2063.60  2140.45  2158.63
                             2182.49  2318.93  2346.30  2402.75  2408.03
                             4412.64  4513.73  4528.70  4611.94  4672.25
                             4706.85

 Zero-point correction=                           0.133622 (Hartree/Particle)
 Thermal correction to Energy=                    0.144492
 Thermal correction to Enthalpy=                  0.145437
 Thermal correction to Gibbs Free Energy=         0.095516
 Sum of electronic and zero-point Energies=           -680.437264
 Sum of electronic and thermal Energies=              -680.426394
 Sum of electronic and thermal Enthalpies=            -680.425450
 Sum of electronic and thermal Free Energies=         -680.475370

                     E (Thermal)             CV                S
                      KCal/Mol        Cal/Mol-Kelvin    Cal/Mol-Kelvin
 Total                   90.670             40.075            105.067
 Electronic               0.000              0.000              0.000
 Translational            0.889              2.981             41.504
 Rotational               0.889              2.981             31.256
 Vibrational             88.893             34.113             32.307
 Vibration     1          0.594              1.983              5.743
 Vibration     2          0.596              1.976              4.651
 Vibration     3          0.605              1.944              3.337
 Vibration     4          0.621              1.893              2.563
 Vibration     5          0.625              1.881              2.446
 Vibration     6          0.647              1.810              1.958
 Vibration     7          0.686              1.693              1.477
 Vibration     8          0.690              1.680              1.436
 Vibration     9          0.729              1.571              1.157
 Vibration    10          0.731              1.563              1.141
 Vibration    11          0.762              1.479              0.979
 Vibration    12          0.805              1.370              0.808
 Vibration    13          0.858              1.245              0.652
 Vibration    14          0.884              1.186              0.590
 Vibration    15          0.933              1.083              0.493

 Optimization completed.
    -- Stationary point found.
 Normal termination of Gaussian 09 at Fri Aug 20 15:57:12 2021.
