 Gaussian 09, Revision E.01,
 Gaussian 09:  ES64L-G09RevE.01 30-Nov-2015

 -------------------------
 #P OPT Freq B3LYP/6-31G**
 -------------------------

 ------
 DATGEL
 ------
 Symbolic Z-matrix:
 Charge =  0 Multiplicity = 1

 SCF Done:  E(RB3LYP) =  -570.590865375     A.U. after   15 cycles
 SCF Done:  E(RB3LYP) =  -570.699187771     A.U. after   13 cycles
 SCF Done:  E(RB3LYP) =  -570.759882535     A.U. after   14 cycles
 SCF Done:  E(RB3LYP) =  -570.760235234     A.U. after   14 cycles
 SCF Done:  E(RB3LYP) =  -570.760067906     A.U. after   14 cycles
 SCF Done:  E(RB3LYP) =  -570.761081893     A.U. after   10 cycles
 SCF Done:  E(RB3LYP) =  -570.759616897     A.U. after   14 cycles
 SCF Done:  E(RB3LYP) =  -570.761693097     A.U. after   10 cycles
 SCF Done:  E(RB3LYP) =  -570.761966938     A.U. after   11 cycles
 SCF Done:  E(RB3LYP) =  -570.762019550     A.U. after   11 cycles
 SCF Done:  E(RB3LYP) =  -570.762069014     A.U. after    8 cycles
 SCF Done:  E(RB3LYP) =  -570.760936753     A.U. after   14 cycles
 SCF Done:  E(RB3LYP) =  -570.762069023     A.U. after    8 cycles
 SCF Done:  E(RB3LYP) =  -570.762072447     A.U. after    9 cycles
 SCF Done:  E(RB3LYP) =  -570.761972217     A.U. after   13 cycles
 SCF Done:  E(RB3LYP) =  -570.762078009     A.U. after   13 cycles
 SCF Done:  E(RB3LYP) =  -570.762078326     A.U. after    8 cycles
 SCF Done:  E(RB3LYP) =  -570.762078443     A.U. after    8 cycles
 SCF Done:  E(RB3LYP) =  -570.762078522     A.U. after    7 cycles
 Optimization completed.
    -- Stationary point found.
 Normal termination of Gaussian 09 at Fri Aug 20 15:43:57 2021.

 ----------------------------------------------------------------------
 #P Geom=AllCheck Guess=TCheck SCRF=Check GenChk RB3LYP/6-31G(d,p) Freq
 ----------------------------------------------------------------------

 Structure from the checkpoint file:  "/public/home/users/caep010/.cache/gau_scr/Gau-214953.chk"
 ------
 DATGEL
 ------
 Charge =  0 Multiplicity = 1

                         Standard orientation:
 ---------------------------------------------------------------------
 Center     Atomic      Atomic             Coordinates (Angstroms)
 Number     Number       Type             X           Y           Z
 ---------------------------------------------------------------------
      1          6           0        0.922016   -0.327256   -0.008426
      2          6           0        0.066802    0.811382   -0.005924
      3          6           0       -1.345093    0.588464   -0.000183
      4          6           0       -1.854574   -0.711875    0.003840
      5          6           0       -0.973419   -1.814439   -0.002111
      6          1           0       -1.377540   -2.821299   -0.001245
      7          6           0       -3.343118   -0.978962    0.011768
      8          1           0       -3.836611   -0.560286   -0.872495
      9          1           0       -3.830653   -0.543069    0.890805
     10          6           0        0.390295   -1.624301   -0.008819
     11          1           0        1.081761   -2.456458   -0.011445
     12          7           0        2.364824   -0.212826    0.002509
     13          8           0        2.888552    0.919979    0.017619
     14          8           0        3.037749   -1.245647   -0.001026
     15          7           0        0.542881    2.084212   -0.031588
     16          1           0        1.543209    2.207013    0.044542
     17          1           0       -0.082568    2.856065    0.115935
     18          6           0       -2.242990    1.803405   -0.006088
     19          1           0       -2.099403    2.419520    0.892683
     20          1           0       -3.541630   -2.053002    0.022523
     21          1           0       -3.297761    1.534082   -0.040317
     22          1           0       -2.042658    2.444554   -0.874514
 ---------------------------------------------------------------------

 SCF Done:  E(RB3LYP) =  -570.762078522     A.U. after    1 cycles

 The electronic state is 1-A.
 Alpha  occ. eigenvalues --  -19.16788 -19.16517 -14.55937 -14.35690 -10.25986
 Alpha  occ. eigenvalues --  -10.23713 -10.21601 -10.20738 -10.20253 -10.20152
 Alpha  occ. eigenvalues --  -10.19668 -10.19050  -1.20749  -1.03251  -0.94355
 Alpha  occ. eigenvalues --   -0.86334  -0.81816  -0.76719  -0.73738  -0.70426
 Alpha  occ. eigenvalues --   -0.65441  -0.61078  -0.59414  -0.54531  -0.53363
 Alpha  occ. eigenvalues --   -0.51788  -0.50490  -0.50050  -0.46014  -0.45414
 Alpha  occ. eigenvalues --   -0.44765  -0.42664  -0.42053  -0.40848  -0.39307
 Alpha  occ. eigenvalues --   -0.38110  -0.37191  -0.35396  -0.32361  -0.29756
 Alpha  occ. eigenvalues --   -0.29580  -0.27793  -0.25675  -0.21626
 Alpha virt. eigenvalues --   -0.07525  -0.00077   0.01731   0.06992   0.09559
 Alpha virt. eigenvalues --    0.11618   0.12877   0.13088   0.15225   0.15730
 Alpha virt. eigenvalues --    0.16886   0.17399   0.18309   0.19135   0.20100

 Mulliken charges:
               1
     1  C    0.246776
     2  C    0.290673
     3  C    0.059862
     4  C    0.093902
     5  C   -0.141588
     6  H    0.084750
     7  C   -0.392454
     8  H    0.129056
     9  H    0.128134
    10  C   -0.099706
    11  H    0.133070
    12  N    0.363422
    13  O   -0.452708
    14  O   -0.408323
    15  N   -0.680990
    16  H    0.306385
    17  H    0.266512
    18  C   -0.409682
    19  H    0.120616
    20  H    0.116240
    21  H    0.119324
    22  H    0.126729
 Sum of Mulliken charges =  -0.00000

 Dipole moment (field-independent basis, Debye):
    X=             -5.2055    Y=              1.7064    Z=              0.2955  Tot=              5.4860
 Quadrupole moment (field-independent basis, Debye-Ang):
   XX=            -78.0271   YY=            -61.3235   ZZ=            -71.0604
   XY=              1.5282   XZ=              0.0983   YZ=              0.9100

  Exact polarizability: 150.846  -0.969 128.257  -0.160   0.198  48.310
 Approx polarizability: 236.839  -2.056 239.446  -0.398  -0.160  74.322

                      1                      2                      3
                      A                      A                      A
 Frequencies --     66.4301                92.4583               115.8533
 Red. masses --      8.4307                 5.6995                 1.4667
 Frc consts  --      0.0219                 0.0287                 0.0116
 IR Inten    --      0.7306                 3.0081                11.6748

                      4                      5                      6
                      A                      A                      A
 Frequencies --    157.5291               164.2885               221.4447
 Red. masses --      1.6420                 1.1601                 1.2953
 Frc consts  --      0.0240                 0.0184                 0.0374
 IR Inten    --     14.0080                43.6783                63.1123

                      7                      8                      9
                      A                      A                      A
 Frequencies --    256.0844               283.2882               310.1829
 Red. masses --      5.1183                 3.4391                 2.5693
 Frc consts  --      0.1978                 0.1626                 0.1456
 IR Inten    --      3.3374                 5.0927                57.0952

                     10                     11                     12
                      A                      A                      A
 Frequencies --    339.7246               368.2525               401.2041
 Red. masses --      2.7276                 7.2030                 3.2498
 Frc consts  --      0.1855                 0.5755                 0.3082
 IR Inten    --      1.0014                 0.6857                 6.2743

                     13                     14                     15
                      A                      A                      A
 Frequencies --    429.2164               501.6087               503.0160
 Red. masses --      5.3243                 4.3471                 4.2104
 Frc consts  --      0.5779                 0.6444                 0.6277
 IR Inten    --      3.1270                 2.5695                 2.3338

                     16                     17                     18
                      A                      A                      A
 Frequencies --    585.1597               600.8540               626.5169
 Red. masses --      3.3306                 3.8955                 1.5112
 Frc consts  --      0.6719                 0.8286                 0.3495
 IR Inten    --      3.0813                 0.0336                18.5587

                     19                     20                     21
                      A                      A                      A
 Frequencies --    631.0747               704.7925               724.7124
 Red. masses --      2.4380                 4.4398                 6.4302
 Frc consts  --      0.5721                 1.2994                 1.9898
 IR Inten    --     11.0358                 1.5646                 0.9663

                     22                     23                     24
                      A                      A                      A
 Frequencies --    756.8011               816.7718               817.2884
 Red. masses --      4.3832                 6.2686                 1.5657
 Frc consts  --      1.4791                 2.4639                 0.6162
 IR Inten    --     24.2697                17.8542                 9.2134

                     25                     26                     27
                      A                      A                      A
 Frequencies --    882.5285               967.5084               969.9747
 Red. masses --      3.1610                 1.2752                 2.2040
 Frc consts  --      1.4505                 0.7033                 1.2217
 IR Inten    --      4.5792                 0.5222                15.0834

                     28                     29                     30
                      A                      A                      A
 Frequencies --   1020.5566              1046.1336              1067.2451
 Red. masses --      1.3815                 1.4351                 1.5716
 Frc consts  --      0.8477                 0.9254                 1.0547
 IR Inten    --     13.9544                 3.0611                 0.6848

                     31                     32                     33
                      A                      A                      A
 Frequencies --   1096.0310              1136.2981              1196.8219
 Red. masses --      1.8326                 2.2800                 1.7071
 Frc consts  --      1.2971                 1.7345                 1.4407
 IR Inten    --     27.6609                 8.9755                 9.8871

                     34                     35                     36
                      A                      A                      A
 Frequencies --   1215.2537              1271.1162              1306.0901
 Red. masses --      3.1421                 1.6893                 5.0944
 Frc consts  --      2.7340                 1.6082                 5.1202
 IR Inten    --     42.7384                 8.2578               299.9443

                     37                     38                     39
                      A                      A                      A
 Frequencies --   1358.8965              1398.6840              1425.8286
 Red. masses --      4.3457                 4.9439                 1.4156
 Frc consts  --      4.7280                 5.6985                 1.6956
 IR Inten    --    123.4549                97.0451                13.7879

                     40                     41                     42
                      A                      A                      A
 Frequencies --   1430.7349              1474.4354              1491.8021
 Red. masses --      1.2434                 2.6638                 1.3748
 Frc consts  --      1.4996                 3.4120                 1.8027
 IR Inten    --      2.7903                78.8019                 4.2199

                     43                     44                     45
                      A                      A                      A
 Frequencies --   1494.3400              1511.4016              1515.8446
 Red. masses --      1.0477                 1.7856                 1.0468
 Frc consts  --      1.3784                 2.4032                 1.4171
 IR Inten    --     12.0957                28.5166                 0.4874

                     46                     47                     48
                      A                      A                      A
 Frequencies --   1528.5678              1574.1578              1630.2644
 Red. masses --      1.2838                 3.6122                 5.1627
 Frc consts  --      1.7673                 5.2737                 8.0844
 IR Inten    --     25.1880               206.3515               100.4210

                     49                     50                     51
                      A                      A                      A
 Frequencies --   1637.3667              1664.8041              3017.4191
 Red. masses --      1.9380                 6.1029                 1.0458
 Frc consts  --      3.0612                 9.9658                 5.6101
 IR Inten    --     32.8573               228.6652                28.9160

                     52                     53                     54
                      A                      A                      A
 Frequencies --   3043.4877              3063.7110              3099.1320
 Red. masses --      1.0384                 1.0989                 1.1007
 Frc consts  --      5.6672                 6.0773                 6.2290
 IR Inten    --     19.7021                20.4860                14.1620

                     55                     56                     57
                      A                      A                      A
 Frequencies --   3133.5239              3165.1071              3202.3373
 Red. masses --      1.1004                 1.0926                 1.0901
 Frc consts  --      6.3660                 6.4487                 6.5863
 IR Inten    --     16.5099                10.5669                10.5152

                     58                     59                     60
                      A                      A                      A
 Frequencies --   3249.9590              3566.8059              3746.2899
 Red. masses --      1.0926                 1.0508                 1.0984
 Frc consts  --      6.7996                 7.8766                 9.0824
 IR Inten    --      2.4814                93.8162                73.2397

 - Thermochemistry -
 -------------------
 Temperature   298.150 Kelvin.  Pressure   1.00000 Atm.
 Atom     1 has atomic number  6 and mass  12.00000

 Molecular mass:   166.07423 amu.
 Principal axes and moments of inertia in atomic units:
                           1         2         3
     Eigenvalues --  1037.220302546.768013561.26520
           X            1.00000   0.00105  -0.00009
           Y           -0.00105   1.00000   0.00134
           Z            0.00010  -0.00134   1.00000
 This molecule is an asymmetric top.
 Rotational symmetry number  1.
 Warning -- assumption of classical behavior for rotation
           may cause significant error
 Rotational temperatures (Kelvin)      0.08351     0.03401     0.02432
 Rotational constants (GHZ):           1.73998     0.70864     0.50677
 Zero-point vibrational energy     461010.9 (Joules/Mol)
                                  110.18426 (Kcal/Mol)
 Warning -- explicit consideration of  17 degrees of freedom as
           vibrations may cause significant error
 Vibrational temperatures:     95.58   133.03   166.69   226.65   236.37
          (Kelvin)            318.61   368.45   407.59   446.28   488.79
                              529.83   577.24   617.55   721.70   723.73
                              841.91   864.49   901.42   907.97  1014.04
                             1042.70  1088.87  1175.15  1175.89  1269.76
                             1392.03  1395.58  1468.35  1505.15  1535.53
                             1576.94  1634.88  1721.96  1748.48  1828.85
                             1879.17  1955.15  2012.39  2051.45  2058.51
                             2121.38  2146.37  2150.02  2174.57  2180.96
                             2199.27  2264.86  2345.58  2355.80  2395.28
                             4341.39  4378.89  4407.99  4458.95  4508.44
                             4553.88  4607.44  4675.96  5131.83  5390.07

 Zero-point correction=                           0.175590 (Hartree/Particle)
 Thermal correction to Energy=                    0.187009
 Thermal correction to Enthalpy=                  0.187953
 Thermal correction to Gibbs Free Energy=         0.138605
 Sum of electronic and zero-point Energies=           -570.586489
 Sum of electronic and thermal Energies=              -570.575070
 Sum of electronic and thermal Enthalpies=            -570.574126
 Sum of electronic and thermal Free Energies=         -570.623473

                     E (Thermal)             CV                S
                      KCal/Mol        Cal/Mol-Kelvin    Cal/Mol-Kelvin
 Total                  117.350             43.277            103.860
 Electronic               0.000              0.000              0.000
 Translational            0.889              2.981             41.230
 Rotational               0.889              2.981             30.621
 Vibrational            115.572             37.316             32.009
 Vibration     1          0.598              1.970              4.256
 Vibration     2          0.602              1.955              3.607
 Vibration     3          0.608              1.936              3.168
 Vibration     4          0.621              1.894              2.579
 Vibration     5          0.623              1.886              2.500
 Vibration     6          0.648              1.808              1.947
 Vibration     7          0.666              1.753              1.688
 Vibration     8          0.682              1.705              1.514
 Vibration     9          0.699              1.654              1.361
 Vibration    10          0.720              1.596              1.213
 Vibration    11          0.741              1.538              1.087
 Vibration    12          0.767              1.468              0.958
 Vibration    13          0.791              1.407              0.861
 Vibration    14          0.857              1.246              0.654
 Vibration    15          0.858              1.243              0.651
 Vibration    16          0.942              1.063              0.476
 Vibration    17          0.959              1.030              0.448

 Normal termination of Gaussian 09 at Fri Aug 20 15:44:31 2021.
