 Gaussian 09, Revision E.01,
 Gaussian 09:  ES64L-G09RevE.01 30-Nov-2015

 -------------------------
 #P OPT Freq B3LYP/6-31G**
 -------------------------

 ------
 ISAJAN
 ------
 Symbolic Z-matrix:
 Charge =  0 Multiplicity = 1

 SCF Done:  E(RB3LYP) =  -713.580891307     A.U. after   17 cycles
 SCF Done:  E(RB3LYP) =  -713.651284867     A.U. after   14 cycles
 SCF Done:  E(RB3LYP) =  -713.668041932     A.U. after   17 cycles
 SCF Done:  E(RB3LYP) =  -713.661612319     A.U. after   18 cycles
 SCF Done:  E(RB3LYP) =  -713.670111441     A.U. after   13 cycles
 SCF Done:  E(RB3LYP) =  -713.664860986     A.U. after   17 cycles
 SCF Done:  E(RB3LYP) =  -713.670324102     A.U. after   12 cycles
 SCF Done:  E(RB3LYP) =  -713.670745608     A.U. after   14 cycles
 SCF Done:  E(RB3LYP) =  -713.670854243     A.U. after   14 cycles
 SCF Done:  E(RB3LYP) =  -713.670981757     A.U. after   14 cycles
 SCF Done:  E(RB3LYP) =  -713.671071401     A.U. after   14 cycles
 SCF Done:  E(RB3LYP) =  -713.671115498     A.U. after   14 cycles
 SCF Done:  E(RB3LYP) =  -713.671132109     A.U. after   12 cycles
 SCF Done:  E(RB3LYP) =  -713.671132903     A.U. after    9 cycles
 SCF Done:  E(RB3LYP) =  -713.671133063     A.U. after    9 cycles
 Optimization completed.
    -- Stationary point found.
 Normal termination of Gaussian 09 at Fri Aug 20 16:01:22 2021.

 ----------------------------------------------------------------------
 #P Geom=AllCheck Guess=TCheck SCRF=Check GenChk RB3LYP/6-31G(d,p) Freq
 ----------------------------------------------------------------------

 Structure from the checkpoint file:  "/public/home/users/caep010/.cache/gau_scr/Gau-107184.chk"
 ------
 ISAJAN
 ------
 Charge =  0 Multiplicity = 1

                         Standard orientation:
 ---------------------------------------------------------------------
 Center     Atomic      Atomic             Coordinates (Angstroms)
 Number     Number       Type             X           Y           Z
 ---------------------------------------------------------------------
      1          8           0        1.428600   -0.949398   -1.019588
      2          6           0        1.194137   -0.008129   -0.296012
      3          7           0        2.194497    0.753448    0.382538
      4          6           0       -0.171687    0.555619   -0.056532
      5          7           0        3.363430    0.354277    0.190783
      6          7           0        4.455376    0.074133    0.093876
      7          6           0       -1.312109   -0.258240    0.020586
      8          7           0       -1.200118   -1.722761    0.168706
      9          8           0       -0.298318   -2.148009    0.883690
     10          8           0       -2.055161   -2.406944   -0.388906
     11          6           0       -2.594188    0.276388    0.058037
     12          1           0       -3.441312   -0.396775    0.111212
     13          6           0       -0.359077    1.942232   -0.057678
     14          6           0       -1.640195    2.493136   -0.002695
     15          1           0        0.511400    2.585647   -0.119783
     16          6           0       -2.757793    1.661681    0.047009
     17          1           0       -3.756367    2.084565    0.086318
     18          1           0       -1.761512    3.571581   -0.006925
 ---------------------------------------------------------------------

 SCF Done:  E(RB3LYP) =  -713.671133063     A.U. after    1 cycles

 The electronic state is 1-A.
 Alpha  occ. eigenvalues --  -19.18990 -19.18915 -19.16497 -14.57972 -14.55121
 Alpha  occ. eigenvalues --  -14.45713 -14.41642 -10.33835 -10.27370 -10.24905
 Alpha  occ. eigenvalues --  -10.23533 -10.23471 -10.23338 -10.23213  -1.23290
 Alpha  occ. eigenvalues --   -1.18218  -1.08281  -1.06065  -1.00665  -0.90926
 Alpha  occ. eigenvalues --   -0.82101  -0.81004  -0.73645  -0.70347  -0.65573
 Alpha  occ. eigenvalues --   -0.61115  -0.57657  -0.54995  -0.54758  -0.53889
 Alpha  occ. eigenvalues --   -0.53425  -0.51845  -0.50158  -0.49009  -0.48192
 Alpha  occ. eigenvalues --   -0.47278  -0.46228  -0.43393  -0.41369  -0.39651
 Alpha  occ. eigenvalues --   -0.39430  -0.36509  -0.31769  -0.31344  -0.31177
 Alpha  occ. eigenvalues --   -0.30101  -0.29764  -0.28713  -0.28098
 Alpha virt. eigenvalues --   -0.09830  -0.07237  -0.05972  -0.03517  -0.02089
 Alpha virt. eigenvalues --    0.03888   0.06693   0.12168   0.12233   0.12791
 Alpha virt. eigenvalues --    0.15698   0.16669   0.17551   0.22531   0.23566

 Mulliken charges:
               1
     1  O   -0.436680
     2  C    0.527162
     3  N   -0.444528
     4  C    0.071602
     5  N    0.486533
     6  N   -0.199266
     7  C    0.220907
     8  N    0.363531
     9  O   -0.374660
    10  O   -0.372102
    11  C   -0.075246
    12  H    0.141049
    13  C   -0.104063
    14  C   -0.071744
    15  H    0.128591
    16  C   -0.087908
    17  H    0.114831
    18  H    0.111992
 Sum of Mulliken charges =   0.00000

 Dipole moment (field-independent basis, Debye):
    X=             -1.7536    Y=              5.5673    Z=              0.5448  Tot=              5.8624
 Quadrupole moment (field-independent basis, Debye-Ang):
   XX=            -70.6304   YY=            -78.9819   ZZ=            -79.7569
   XY=             -4.1763   XZ=             -0.5617   YZ=             -1.9323

  Exact polarizability: 164.053 -10.382 115.275   4.024   3.860  48.084
 Approx polarizability: 285.462 -20.365 199.381  14.838  14.796  88.510

                      1                      2                      3
                      A                      A                      A
 Frequencies --     25.7418                65.6215                84.7799
 Red. masses --     13.9230                11.7330                 7.3193
 Frc consts  --      0.0054                 0.0298                 0.0310
 IR Inten    --      0.3692                 0.2777                 0.1456

                      4                      5                      6
                      A                      A                      A
 Frequencies --    120.8133               140.3450               186.7977
 Red. masses --      9.1141                 7.2280                 9.1405
 Frc consts  --      0.0784                 0.0839                 0.1879
 IR Inten    --      0.4541                 0.0963                 1.1219

                      7                      8                      9
                      A                      A                      A
 Frequencies --    200.2670               242.1673               319.9698
 Red. masses --     12.9339                 7.0305                 9.6591
 Frc consts  --      0.3056                 0.2429                 0.5826
 IR Inten    --      0.1001                 1.5806                 5.6117

                     10                     11                     12
                      A                      A                      A
 Frequencies --    351.2137               412.1718               418.2028
 Red. masses --      9.6138                 5.5867                 4.5060
 Frc consts  --      0.6987                 0.5592                 0.4643
 IR Inten    --      0.5695                 2.4988                 1.8551

                     13                     14                     15
                      A                      A                      A
 Frequencies --    512.7650               551.7589               577.2542
 Red. masses --     10.8342                 5.8264                 5.5769
 Frc consts  --      1.6784                 1.0451                 1.0949
 IR Inten    --      0.2431                 2.8786                 1.9051

                     16                     17                     18
                      A                      A                      A
 Frequencies --    585.7258               657.6298               692.1109
 Red. masses --     10.9784                 6.2172                 7.1388
 Frc consts  --      2.2191                 1.5842                 2.0148
 IR Inten    --      7.9357                11.8899                 2.3325

                     19                     20                     21
                      A                      A                      A
 Frequencies --    719.6991               734.8311               784.2979
 Red. masses --      7.4123                 3.3034                 3.6993
 Frc consts  --      2.2621                 1.0509                 1.3407
 IR Inten    --     34.3057                48.2320                13.4788

                     22                     23                     24
                      A                      A                      A
 Frequencies --    803.3373               859.9202               872.6270
 Red. masses --      1.8680                10.8920                10.2741
 Frc consts  --      0.7103                 4.7454                 4.6095
 IR Inten    --     15.9482                38.5284                10.6148

                     25                     26                     27
                      A                      A                      A
 Frequencies --    906.7303               976.4897              1006.4479
 Red. masses --      1.4596                 1.3975                 3.7936
 Frc consts  --      0.7071                 0.7851                 2.2641
 IR Inten    --      3.3970                12.2793               144.2529

                     28                     29                     30
                      A                      A                      A
 Frequencies --   1007.9998              1067.3853              1117.4042
 Red. masses --      1.5832                 2.4159                 2.9553
 Frc consts  --      0.9478                 1.6217                 2.1740
 IR Inten    --     32.8652                 0.4325                17.0447

                     31                     32                     33
                      A                      A                      A
 Frequencies --   1172.5370              1192.9304              1251.9598
 Red. masses --      1.8278                 1.1076                 4.6778
 Frc consts  --      1.4806                 0.9286                 4.3199
 IR Inten    --      2.9165                 0.8463                21.7551

                     34                     35                     36
                      A                      A                      A
 Frequencies --   1292.6429              1299.3709              1364.1876
 Red. masses --      5.5437                 1.7408                 7.0787
 Frc consts  --      5.4576                 1.7317                 7.7617
 IR Inten    --    661.7860               143.7569                13.5301

                     37                     38                     39
                      A                      A                      A
 Frequencies --   1410.2016              1482.2479              1520.7408
 Red. masses --     14.4398                 2.2316                 2.6203
 Frc consts  --     16.9190                 2.8888                 3.5704
 IR Inten    --    191.2434                 3.4769                 8.1347

                     40                     41                     42
                      A                      A                      A
 Frequencies --   1628.1111              1641.5084              1668.3179
 Red. masses --      6.2384                 8.2794                 8.9433
 Frc consts  --      9.7430                13.1442                14.6659
 IR Inten    --     27.4754               168.4314                70.3315

                     43                     44                     45
                      A                      A                      A
 Frequencies --   1795.9258              2301.1837              3200.1002
 Red. masses --     13.1969                13.9932                 1.0872
 Frc consts  --     25.0783                43.6587                 6.5598
 IR Inten    --    171.0030               539.5820                 1.6099

                     46                     47                     48
                      A                      A                      A
 Frequencies --   3213.5646              3224.5445              3237.4647
 Red. masses --      1.0923                 1.0947                 1.0941
 Frc consts  --      6.6464                 6.7065                 6.7562
 IR Inten    --      8.5868                 2.7043                 1.2645

 - Thermochemistry -
 -------------------
 Temperature   298.150 Kelvin.  Pressure   1.00000 Atm.
 Atom     1 has atomic number  8 and mass  15.99491

 Molecular mass:   192.02834 amu.
 Principal axes and moments of inertia in atomic units:
                           1         2         3
     Eigenvalues --  1607.080443338.587124689.59526
           X            0.99971  -0.02409  -0.00088
           Y            0.02409   0.99971  -0.00049
           Z            0.00089   0.00047   1.00000
 This molecule is an asymmetric top.
 Rotational symmetry number  1.
 Warning -- assumption of classical behavior for rotation
           may cause significant error
 Rotational temperatures (Kelvin)      0.05390     0.02594     0.01847
 Rotational constants (GHZ):           1.12299     0.54057     0.38484
 Zero-point vibrational energy     304449.9 (Joules/Mol)
                                   72.76527 (Kcal/Mol)
 Warning -- explicit consideration of  16 degrees of freedom as
           vibrations may cause significant error
 Vibrational temperatures:     37.04    94.41   121.98   173.82   201.92
          (Kelvin)            268.76   288.14   348.42   460.36   505.32
                              593.02   601.70   737.75   793.86   830.54
                              842.73   946.18   995.79  1035.49  1057.26
                             1128.43  1155.82  1237.23  1255.51  1304.58
                             1404.95  1448.05  1450.29  1535.73  1607.69
                             1687.02  1716.36  1801.29  1859.82  1869.50
                             1962.76  2028.96  2132.62  2188.00  2342.49
                             2361.76  2400.33  2583.93  3310.89  4604.22
                             4623.60  4639.39  4657.98

 Zero-point correction=                           0.115959 (Hartree/Particle)
 Thermal correction to Energy=                    0.127388
 Thermal correction to Enthalpy=                  0.128332
 Thermal correction to Gibbs Free Energy=         0.076676
 Sum of electronic and zero-point Energies=           -713.555174
 Sum of electronic and thermal Energies=              -713.543745
 Sum of electronic and thermal Enthalpies=            -713.542801
 Sum of electronic and thermal Free Energies=         -713.594457

                     E (Thermal)             CV                S
                      KCal/Mol        Cal/Mol-Kelvin    Cal/Mol-Kelvin
 Total                   79.937             41.157            108.720
 Electronic               0.000              0.000              0.000
 Translational            0.889              2.981             41.663
 Rotational               0.889              2.981             31.598
 Vibrational             78.160             35.195             35.458
 Vibration     1          0.593              1.985              6.133
 Vibration     2          0.597              1.971              4.281
 Vibration     3          0.601              1.960              3.777
 Vibration     4          0.609              1.932              3.087
 Vibration     5          0.615              1.913              2.799
 Vibration     6          0.632              1.858              2.259
 Vibration     7          0.638              1.840              2.131
 Vibration     8          0.658              1.776              1.787
 Vibration     9          0.706              1.635              1.310
 Vibration    10          0.728              1.573              1.161
 Vibration    11          0.776              1.444              0.919
 Vibration    12          0.781              1.431              0.898
 Vibration    13          0.868              1.222              0.627
 Vibration    14          0.907              1.136              0.541
 Vibration    15          0.934              1.080              0.490
 Vibration    16          0.943              1.062              0.475

 Optimization completed.
    -- Stationary point found.
 Normal termination of Gaussian 09 at Fri Aug 20 16:01:54 2021.
