 Gaussian 09, Revision E.01,
 Gaussian 09:  ES64L-G09RevE.01 30-Nov-2015

 -------------------------
 #P OPT Freq B3LYP/6-31G**
 -------------------------

 ------
 NIPYAZ
 ------
 Symbolic Z-matrix:
 Charge =  0 Multiplicity = 1

 SCF Done:  E(RB3LYP) =  -430.607276913     A.U. after   16 cycles
 SCF Done:  E(RB3LYP) =  -430.661666918     A.U. after   15 cycles
 SCF Done:  E(RB3LYP) =  -430.669917163     A.U. after   14 cycles
 SCF Done:  E(RB3LYP) =  -430.669955537     A.U. after   12 cycles
 SCF Done:  E(RB3LYP) =  -430.669688962     A.U. after   13 cycles
 SCF Done:  E(RB3LYP) =  -430.669991613     A.U. after    8 cycles
 SCF Done:  E(RB3LYP) =  -430.670032834     A.U. after   12 cycles
 SCF Done:  E(RB3LYP) =  -430.670049903     A.U. after   10 cycles
 SCF Done:  E(RB3LYP) =  -430.670050735     A.U. after    9 cycles
 SCF Done:  E(RB3LYP) =  -430.670051078     A.U. after    9 cycles
 Optimization completed.
    -- Stationary point found.
 Normal termination of Gaussian 09 at Fri Aug 20 15:51:30 2021.

 ----------------------------------------------------------------------
 #P Geom=AllCheck Guess=TCheck SCRF=Check GenChk RB3LYP/6-31G(d,p) Freq
 ----------------------------------------------------------------------

 Structure from the checkpoint file:  "/public/home/users/caep010/.cache/gau_scr/Gau-190127.chk"
 ------
 NIPYAZ
 ------
 Charge =  0 Multiplicity = 1

                         Standard orientation:
 ---------------------------------------------------------------------
 Center     Atomic      Atomic             Coordinates (Angstroms)
 Number     Number       Type             X           Y           Z
 ---------------------------------------------------------------------
      1          6           0       -1.980806   -0.749821    0.000231
      2          6           0       -2.095695    0.671255   -0.000018
      3          6           0       -0.805114    1.133410   -0.000319
      4          7           0       -0.026534    0.001093   -0.000023
      5          7           0       -0.719746   -1.155701   -0.000009
      6          7           0        1.403718   -0.013727    0.000077
      7          8           0        1.918250    1.094581    0.000341
      8          8           0        1.934875   -1.100426   -0.000269
      9          1           0       -2.773134   -1.486025    0.000455
     10          1           0       -2.997362    1.264993   -0.000038
     11          1           0       -0.366879    2.117087   -0.000668
 ---------------------------------------------------------------------

 SCF Done:  E(RB3LYP) =  -430.670051078     A.U. after    1 cycles

 The electronic state is 1-A.
 Alpha  occ. eigenvalues --  -19.21482 -19.21205 -14.63290 -14.47734 -14.38586
 Alpha  occ. eigenvalues --  -10.26014 -10.24278 -10.21893  -1.27695  -1.09983
 Alpha  occ. eigenvalues --   -1.08791  -0.88752  -0.82380  -0.71818  -0.63584
 Alpha  occ. eigenvalues --   -0.59611  -0.58211  -0.58166  -0.53586  -0.50455
 Alpha  occ. eigenvalues --   -0.46165  -0.46020  -0.43411  -0.35033  -0.33997
 Alpha  occ. eigenvalues --   -0.33136  -0.31778  -0.29603  -0.28382
 Alpha virt. eigenvalues --   -0.09365   0.00410   0.04012   0.06842   0.11769
 Alpha virt. eigenvalues --    0.13817   0.14219   0.17920   0.19797   0.24825
 Alpha virt. eigenvalues --    0.26621   0.33774   0.38622   0.40623   0.50774

 Mulliken charges:
               1
     1  C    0.131933
     2  C   -0.207689
     3  C    0.175151
     4  N   -0.186501
     5  N   -0.253076
     6  N    0.668128
     7  O   -0.385915
     8  O   -0.347966
     9  H    0.126031
    10  H    0.114992
    11  H    0.164912
 Sum of Mulliken charges =  -0.00000

 Dipole moment (field-independent basis, Debye):
    X=             -3.3732    Y=              1.9275    Z=             -0.0003  Tot=              3.8850
 Quadrupole moment (field-independent basis, Debye-Ang):
   XX=            -42.5966   YY=            -45.1659   ZZ=            -44.3012
   XY=             -0.2324   XZ=             -0.0009   YZ=             -0.0028

  Exact polarizability:  81.682   1.010  62.040  -0.003  -0.001  22.653
 Approx polarizability: 131.470   1.124 126.890  -0.008   0.004  34.793

                      1                      2                      3
                      A                      A                      A
 Frequencies --     92.4347               153.9835               265.1730
 Red. masses --      7.7379                 6.6544                 7.0974
 Frc consts  --      0.0390                 0.0930                 0.2940
 IR Inten    --      1.8108                 0.0032                 0.3998

                      4                      5                      6
                      A                      A                      A
 Frequencies --    440.6798               577.9579               580.9667
 Red. masses --     10.4938                 9.2910                 4.5518
 Frc consts  --      1.2007                 1.8285                 0.9052
 IR Inten    --      7.6220                 0.3189                 1.6062

                      7                      8                      9
                      A                      A                      A
 Frequencies --    649.4351               741.3712               769.8737
 Red. masses --      4.1738                 6.2804                 1.3429
 Frc consts  --      1.0372                 2.0338                 0.4689
 IR Inten    --      5.1268                 1.0369                66.5607

                     10                     11                     12
                      A                      A                      A
 Frequencies --    829.4092               868.3067               912.6388
 Red. masses --     13.0744                 1.2507                 1.3501
 Frc consts  --      5.2992                 0.5556                 0.6625
 IR Inten    --    129.9547                 2.6660                 2.7418

                     13                     14                     15
                      A                      A                      A
 Frequencies --    919.9180               963.4858              1051.5391
 Red. masses --      6.3145                 3.7987                 1.3954
 Frc consts  --      3.1484                 2.0777                 0.9091
 IR Inten    --     11.6871                19.6744               104.5973

                     16                     17                     18
                      A                      A                      A
 Frequencies --   1074.5761              1192.8420              1260.6659
 Red. masses --      2.0647                 2.4960                 1.8920
 Frc consts  --      1.4047                 2.0924                 1.7716
 IR Inten    --     24.8607               137.1202                16.0422

                     19                     20                     21
                      A                      A                      A
 Frequencies --   1333.3413              1362.3767              1420.8420
 Red. masses --      7.8582                 4.4504                 4.1417
 Frc consts  --      8.2311                 4.8668                 4.9263
 IR Inten    --    276.3586               145.1321                14.9195

                     22                     23                     24
                      A                      A                      A
 Frequencies --   1455.7351              1579.9527              1735.7335
 Red. masses --      4.6435                 4.5856                14.3563
 Frc consts  --      5.7978                 6.7442                25.4835
 IR Inten    --      8.8217                 8.0291               249.6214

                     25                     26                     27
                      A                      A                      A
 Frequencies --   3259.9955              3281.7740              3322.8789
 Red. masses --      1.0942                 1.0983                 1.1021
 Frc consts  --      6.8514                 6.9691                 7.1699
 IR Inten    --      2.6287                 0.2517                 8.9194

 - Thermochemistry -
 -------------------
 Temperature   298.150 Kelvin.  Pressure   1.00000 Atm.
 Atom     1 has atomic number  6 and mass  12.00000

 Molecular mass:   113.02253 amu.
 Principal axes and moments of inertia in atomic units:
                           1         2         3
     Eigenvalues --   332.57257 991.948431324.52096
           X            1.00000  -0.00297  -0.00000
           Y            0.00297   1.00000  -0.00002
           Z            0.00000   0.00002   1.00000
 This molecule is an asymmetric top.
 Rotational symmetry number  1.
 Rotational temperatures (Kelvin)      0.26044     0.08732     0.06539
 Rotational constants (GHZ):           5.42661     1.81939     1.36256
 Zero-point vibrational energy     191988.0 (Joules/Mol)
                                   45.88623 (Kcal/Mol)
 Warning -- explicit consideration of   6 degrees of freedom as
           vibrations may cause significant error
 Vibrational temperatures:    132.99   221.55   381.52   634.04   831.55
          (Kelvin)            835.88   934.39  1066.67  1107.68  1193.33
                             1249.30  1313.08  1323.56  1386.24  1512.93
                             1546.07  1716.23  1813.81  1918.38  1960.15
                             2044.27  2094.48  2273.20  2497.33  4690.40
                             4721.73  4780.88

 Zero-point correction=                           0.073124 (Hartree/Particle)
 Thermal correction to Energy=                    0.079142
 Thermal correction to Enthalpy=                  0.080086
 Thermal correction to Gibbs Free Energy=         0.042458
 Sum of electronic and zero-point Energies=           -430.596927
 Sum of electronic and thermal Energies=              -430.590909
 Sum of electronic and thermal Enthalpies=            -430.589965
 Sum of electronic and thermal Free Energies=         -430.627593

                     E (Thermal)             CV                S
                      KCal/Mol        Cal/Mol-Kelvin    Cal/Mol-Kelvin
 Total                   49.663             21.523             79.196
 Electronic               0.000              0.000              0.000
 Translational            0.889              2.981             40.083
 Rotational               0.889              2.981             27.571
 Vibrational             47.885             15.561             11.542
 Vibration     1          0.602              1.955              3.608
 Vibration     2          0.620              1.898              2.622
 Vibration     3          0.671              1.737              1.627
 Vibration     4          0.801              1.381              0.824
 Vibration     5          0.934              1.079              0.489
 Vibration     6          0.938              1.072              0.484

 Optimization completed.
    -- Stationary point found.
 Normal termination of Gaussian 09 at Fri Aug 20 15:51:41 2021.
