 Gaussian 09, Revision E.01,
 Gaussian 09:  ES64L-G09RevE.01 30-Nov-2015

 -------------------------
 #P OPT Freq B3LYP/6-31G**
 -------------------------

 --------
 ONITAN02
 --------
 Symbolic Z-matrix:
 Charge =  0 Multiplicity = 1

 SCF Done:  E(RB3LYP) =  -491.880567122     A.U. after   15 cycles
 SCF Done:  E(RB3LYP) =  -492.046888789     A.U. after   14 cycles
 SCF Done:  E(RB3LYP) =  -492.115820631     A.U. after   14 cycles
 SCF Done:  E(RB3LYP) =  -492.118417784     A.U. after   14 cycles
 SCF Done:  E(RB3LYP) =  -492.122342466     A.U. after   14 cycles
 SCF Done:  E(RB3LYP) =  -492.115962596     A.U. after   15 cycles
 SCF Done:  E(RB3LYP) =  -492.122719263     A.U. after   11 cycles
 SCF Done:  E(RB3LYP) =  -492.122952009     A.U. after   12 cycles
 SCF Done:  E(RB3LYP) =  -492.122996497     A.U. after   12 cycles
 SCF Done:  E(RB3LYP) =  -492.123002911     A.U. after    9 cycles
 SCF Done:  E(RB3LYP) =  -492.123003847     A.U. after    9 cycles
 SCF Done:  E(RB3LYP) =  -492.123004048     A.U. after    8 cycles
 Optimization completed.
    -- Stationary point found.
 Normal termination of Gaussian 09 at Fri Aug 20 15:46:30 2021.

 ----------------------------------------------------------------------
 #P Geom=AllCheck Guess=TCheck SCRF=Check GenChk RB3LYP/6-31G(d,p) Freq
 ----------------------------------------------------------------------

 Structure from the checkpoint file:  "/public/home/users/caep010/.cache/gau_scr/Gau-20504.chk"
 --------
 ONITAN02
 --------
 Charge =  0 Multiplicity = 1

                         Standard orientation:
 ---------------------------------------------------------------------
 Center     Atomic      Atomic             Coordinates (Angstroms)
 Number     Number       Type             X           Y           Z
 ---------------------------------------------------------------------
      1          6           0       -0.436966    1.000972    0.003285
      2          6           0        0.227666   -0.259023    0.003264
      3          6           0       -0.495173   -1.464099    0.001758
      4          1           0        0.071854   -2.386024    0.002304
      5          6           0       -1.875776   -1.461185   -0.001596
      6          1           0       -2.426507   -2.395039   -0.003032
      7          6           0       -2.551736   -0.228053   -0.004008
      8          1           0       -3.637680   -0.205448   -0.007616
      9          6           0       -1.855650    0.964102   -0.001623
     10          7           0        0.203006    2.195937    0.018093
     11          1           0        1.211565    2.201838   -0.023714
     12          7           0        1.672583   -0.359814   -0.000822
     13          8           0        2.350603    0.686686   -0.010826
     14          8           0        2.186688   -1.479317    0.004318
     15          1           0       -0.330154    3.046755   -0.041719
     16          1           0       -2.390715    1.909827   -0.001539
 ---------------------------------------------------------------------

 SCF Done:  E(RB3LYP) =  -492.123004048     A.U. after    1 cycles

 The electronic state is 1-A.
 Alpha  occ. eigenvalues --  -19.17244 -19.17011 -14.56403 -14.36333 -10.26772
 Alpha  occ. eigenvalues --  -10.24383 -10.21391 -10.21015 -10.20607 -10.19809
 Alpha  occ. eigenvalues --   -1.21250  -1.03777  -0.94762  -0.86521  -0.80434
 Alpha  occ. eigenvalues --   -0.75159  -0.69418  -0.63105  -0.60829  -0.55666
 Alpha  occ. eigenvalues --   -0.53041  -0.52641  -0.52259  -0.50517  -0.47630
 Alpha  occ. eigenvalues --   -0.44634  -0.44418  -0.40387  -0.39093  -0.36949
 Alpha  occ. eigenvalues --   -0.33337  -0.30192  -0.30067  -0.28289  -0.27452
 Alpha  occ. eigenvalues --   -0.22254
 Alpha virt. eigenvalues --   -0.08005  -0.00496   0.01156   0.07613   0.08630
 Alpha virt. eigenvalues --    0.13321   0.14823   0.15439   0.16575   0.18451
 Alpha virt. eigenvalues --    0.20065   0.24371   0.26708   0.29033   0.30757

 Mulliken charges:
               1
     1  C    0.330634
     2  C    0.239046
     3  C   -0.096594
     4  H    0.136759
     5  C   -0.109605
     6  H    0.095416
     7  C   -0.072149
     8  H    0.098267
     9  C   -0.128782
    10  N   -0.670504
    11  H    0.308359
    12  N    0.367499
    13  O   -0.448405
    14  O   -0.405785
    15  H    0.269478
    16  H    0.086367
 Sum of Mulliken charges =  -0.00000

 Dipole moment (field-independent basis, Debye):
    X=             -4.1147    Y=              2.3103    Z=             -0.1457  Tot=              4.7212
 Quadrupole moment (field-independent basis, Debye-Ang):
   XX=            -60.6019   YY=            -47.4004   ZZ=            -58.6193
   XY=              1.9942   XZ=             -0.0061   YZ=             -0.4269

  Exact polarizability: 114.509   0.577 106.803   0.082  -0.041  29.326
 Approx polarizability: 193.092   0.635 208.808   0.216   0.129  45.341

                      1                      2                      3
                      A                      A                      A
 Frequencies --     65.6512                98.9891               188.9538
 Red. masses --     10.3530                 3.0575                 1.3451
 Frc consts  --      0.0263                 0.0177                 0.0283
 IR Inten    --     17.2000                53.2334               148.7819

                      4                      5                      6
                      A                      A                      A
 Frequencies --    246.9577               302.0216               388.6715
 Red. masses --      5.3455                 7.1164                 4.7359
 Frc consts  --      0.1921                 0.3825                 0.4215
 IR Inten    --      0.4383                 3.4525                 3.5137

                      7                      8                      9
                      A                      A                      A
 Frequencies --    406.4125               435.7663               537.4489
 Red. masses --      6.0280                 3.6339                 2.9672
 Frc consts  --      0.5866                 0.4066                 0.5050
 IR Inten    --      1.7999                 0.4390                13.9206

                     10                     11                     12
                      A                      A                      A
 Frequencies --    546.2899               569.8031               603.0557
 Red. masses --      5.0043                 6.8137                 1.0648
 Frc consts  --      0.8799                 1.3034                 0.2281
 IR Inten    --      1.9260                 1.8041                17.2624

                     13                     14                     15
                      A                      A                      A
 Frequencies --    683.1947               703.7286               752.7463
 Red. masses --      6.7406                 4.2831                 2.4554
 Frc consts  --      1.8537                 1.2497                 0.8197
 IR Inten    --      8.6246                 2.7821                43.9571

                     16                     17                     18
                      A                      A                      A
 Frequencies --    784.0032               832.2847               853.0838
 Red. masses --      1.9699                 6.7282                 1.5050
 Frc consts  --      0.7134                 2.7459                 0.6453
 IR Inten    --     11.1002                 5.5585                 1.3935

                     19                     20                     21
                      A                      A                      A
 Frequencies --    883.5465               972.0045               987.2140
 Red. masses --      6.7632                 1.3237                 1.2715
 Frc consts  --      3.1107                 0.7369                 0.7301
 IR Inten    --     17.0022                 1.0042                 0.0047

                     22                     23                     24
                      A                      A                      A
 Frequencies --   1031.7394              1078.3041              1116.5890
 Red. masses --      1.9259                 1.7953                 3.3051
 Frc consts  --      1.2079                 1.2299                 2.4279
 IR Inten    --      8.8044                 2.2300                42.2111

                     25                     26                     27
                      A                      A                      A
 Frequencies --   1184.9109              1195.8880              1305.8018
 Red. masses --      1.4170                 1.1079                 2.0456
 Frc consts  --      1.1722                 0.9336                 2.0550
 IR Inten    --     19.0460                20.7515                60.4597

                     28                     29                     30
                      A                      A                      A
 Frequencies --   1314.9077              1394.6702              1403.6175
 Red. masses --      3.3768                 2.7617                 5.8770
 Frc consts  --      3.4399                 3.1650                 6.8219
 IR Inten    --    209.7535               170.3875                29.3366

                     31                     32                     33
                      A                      A                      A
 Frequencies --   1490.2497              1525.5499              1582.2985
 Red. masses --      2.6993                 2.1999                 3.8914
 Frc consts  --      3.5320                 3.0165                 5.7403
 IR Inten    --     55.9587                18.2526               222.7384

                     34                     35                     36
                      A                      A                      A
 Frequencies --   1622.0814              1631.0428              1684.9354
 Red. masses --      6.0760                 1.9369                 6.3054
 Frc consts  --      9.4192                 3.0359                10.5470
 IR Inten    --    137.1309                 8.6799               232.4462

                     37                     38                     39
                      A                      A                      A
 Frequencies --   3179.6251              3197.6931              3217.0482
 Red. masses --      1.0872                 1.0926                 1.0934
 Frc consts  --      6.4763                 6.5823                 6.6671
 IR Inten    --      6.6540                15.2239                 8.6605

                     40                     41                     42
                      A                      A                      A
 Frequencies --   3247.5678              3578.5385              3738.9344
 Red. masses --      1.0929                 1.0465                 1.1036
 Frc consts  --      6.7912                 7.8961                 9.0896
 IR Inten    --      3.0579                88.3292                73.7967

 - Thermochemistry -
 -------------------
 Temperature   298.150 Kelvin.  Pressure   1.00000 Atm.
 Atom     1 has atomic number  6 and mass  12.00000

 Molecular mass:   138.04293 amu.
 Principal axes and moments of inertia in atomic units:
                           1         2         3
     Eigenvalues --   775.730771422.861062198.52381
           X            0.99983   0.01840   0.00006
           Y           -0.01840   0.99983  -0.00082
           Z           -0.00008   0.00082   1.00000
 This molecule is an asymmetric top.
 Rotational symmetry number  1.
 Warning -- assumption of classical behavior for rotation
           may cause significant error
 Rotational temperatures (Kelvin)      0.11165     0.06087     0.03940
 Rotational constants (GHZ):           2.32650     1.26839     0.82089
 Zero-point vibrational energy     314401.5 (Joules/Mol)
                                   75.14375 (Kcal/Mol)
 Warning -- explicit consideration of  12 degrees of freedom as
           vibrations may cause significant error
 Vibrational temperatures:     94.46   142.42   271.86   355.32   434.54
          (Kelvin)            559.21   584.74   626.97   773.27   785.99
                              819.82   867.66   982.96  1012.51  1083.03
                             1128.00  1197.47  1227.40  1271.22  1398.50
                             1420.38  1484.44  1551.44  1606.52  1704.82
                             1720.61  1878.76  1891.86  2006.62  2019.49
                             2144.13  2194.92  2276.57  2333.81  2346.70
                             2424.24  4574.77  4600.76  4628.61  4672.52
                             5148.71  5379.49

 Zero-point correction=                           0.119749 (Hartree/Particle)
 Thermal correction to Energy=                    0.128087
 Thermal correction to Enthalpy=                  0.129031
 Thermal correction to Gibbs Free Energy=         0.086176
 Sum of electronic and zero-point Energies=           -492.003255
 Sum of electronic and thermal Energies=              -491.994918
 Sum of electronic and thermal Enthalpies=            -491.993973
 Sum of electronic and thermal Free Energies=         -492.036828

                     E (Thermal)             CV                S
                      KCal/Mol        Cal/Mol-Kelvin    Cal/Mol-Kelvin
 Total                   80.376             31.704             90.194
 Electronic               0.000              0.000              0.000
 Translational            0.889              2.981             40.679
 Rotational               0.889              2.981             29.274
 Vibrational             78.598             25.742             20.241
 Vibration     1          0.597              1.971              4.280
 Vibration     2          0.604              1.950              3.474
 Vibration     3          0.633              1.855              2.238
 Vibration     4          0.661              1.768              1.752
 Vibration     5          0.694              1.670              1.406
 Vibration     6          0.757              1.494              1.005
 Vibration     7          0.771              1.456              0.939
 Vibration     8          0.796              1.392              0.840
 Vibration     9          0.892              1.167              0.571
 Vibration    10          0.901              1.148              0.552
 Vibration    11          0.926              1.097              0.505
 Vibration    12          0.961              1.025              0.444

 Normal termination of Gaussian 09 at Fri Aug 20 15:46:49 2021.
