 Gaussian 09, Revision E.01,
 Gaussian 09:  ES64L-G09RevE.01 30-Nov-2015

 -------------------------
 #P OPT Freq B3LYP/6-31G**
 -------------------------

 ------
 WIGTOX
 ------
 Symbolic Z-matrix:
 Charge =  0 Multiplicity = 1

 SCF Done:  E(RB3LYP) =  -661.863370773     A.U. after   16 cycles
 SCF Done:  E(RB3LYP) =  -661.953203828     A.U. after   13 cycles
 SCF Done:  E(RB3LYP) =  -661.998804101     A.U. after   15 cycles
 SCF Done:  E(RB3LYP) =  -661.992380121     A.U. after   15 cycles
 SCF Done:  E(RB3LYP) =  -661.999557732     A.U. after   12 cycles
 SCF Done:  E(RB3LYP) =  -662.000246390     A.U. after   13 cycles
 SCF Done:  E(RB3LYP) =  -662.000650508     A.U. after   14 cycles
 SCF Done:  E(RB3LYP) =  -662.000971805     A.U. after   15 cycles
 SCF Done:  E(RB3LYP) =  -662.001360732     A.U. after   13 cycles
 SCF Done:  E(RB3LYP) =  -662.001474645     A.U. after   12 cycles
 SCF Done:  E(RB3LYP) =  -662.001500141     A.U. after   13 cycles
 SCF Done:  E(RB3LYP) =  -662.001517570     A.U. after   11 cycles
 SCF Done:  E(RB3LYP) =  -662.001536273     A.U. after   12 cycles
 SCF Done:  E(RB3LYP) =  -662.001542536     A.U. after   10 cycles
 SCF Done:  E(RB3LYP) =  -662.001543838     A.U. after   10 cycles
 SCF Done:  E(RB3LYP) =  -662.001543618     A.U. after    8 cycles
 SCF Done:  E(RB3LYP) =  -662.001543339     A.U. after    8 cycles
 Optimization completed.
    -- Stationary point found.
 Normal termination of Gaussian 09 at Fri Aug 20 15:46:11 2021.

 ----------------------------------------------------------------------
 #P Geom=AllCheck Guess=TCheck SCRF=Check GenChk RB3LYP/6-31G(d,p) Freq
 ----------------------------------------------------------------------

 Structure from the checkpoint file:  "/public/home/users/caep010/.cache/gau_scr/Gau-48661.chk"
 ------
 WIGTOX
 ------
 Charge =  0 Multiplicity = 1

                         Standard orientation:
 ---------------------------------------------------------------------
 Center     Atomic      Atomic             Coordinates (Angstroms)
 Number     Number       Type             X           Y           Z
 ---------------------------------------------------------------------
      1          8           0        1.820128   -2.631899    0.160398
      2          7           0        0.892368   -1.868483   -0.113647
      3          8           0       -0.252961   -2.239334   -0.428017
      4          6           0        1.161625   -0.479859   -0.053368
      5          6           0        2.308523    0.152035    0.380530
      6          7           0        2.140441    1.497290    0.329672
      7          7           0        0.263216    0.522632   -0.402169
      8          6           0       -1.108633    0.374476   -0.857007
      9          1           0       -1.168829   -0.421481   -1.597558
     10          1           0       -1.411898    1.310905   -1.336822
     11          6           0       -2.075029    0.103921    0.312172
     12          8           0       -1.782710    0.435963    1.440268
     13          1           0        3.217953   -0.317473    0.724442
     14          6           0        0.906539    1.696363   -0.130057
     15          6           0        0.289721    3.041666   -0.317384
     16          1           0        1.018768    3.790668   -0.007829
     17          1           0       -0.610999    3.153675    0.295149
     18          1           0        0.020405    3.233058   -1.362620
     19          6           0       -3.375121   -0.567915   -0.056690
     20          1           0       -3.817174   -0.122957   -0.955313
     21          1           0       -4.075375   -0.508398    0.776926
     22          1           0       -3.166433   -1.620031   -0.283734
 ---------------------------------------------------------------------

 SCF Done:  E(RB3LYP) =  -662.001543339     A.U. after    1 cycles

 The electronic state is 1-A.
 Alpha  occ. eigenvalues --  -19.18099 -19.18012 -19.16263 -14.57871 -14.42723
 Alpha  occ. eigenvalues --  -14.33709 -10.30236 -10.27864 -10.27478 -10.26322
 Alpha  occ. eigenvalues --  -10.23597 -10.21392 -10.20825  -1.22461  -1.06784
 Alpha  occ. eigenvalues --   -1.05149  -1.04571  -0.91724  -0.83680  -0.78954
 Alpha  occ. eigenvalues --   -0.76665  -0.73753  -0.68128  -0.61746  -0.60146
 Alpha  occ. eigenvalues --   -0.56684  -0.54982  -0.53535  -0.51499  -0.50500
 Alpha  occ. eigenvalues --   -0.50074  -0.48325  -0.46140  -0.45994  -0.43512
 Alpha  occ. eigenvalues --   -0.42862  -0.42841  -0.41960  -0.41124  -0.40430
 Alpha  occ. eigenvalues --   -0.37171  -0.31690  -0.31043  -0.30544  -0.29664
 Alpha  occ. eigenvalues --   -0.28600  -0.26965  -0.25506
 Alpha virt. eigenvalues --   -0.08760  -0.03423   0.01341   0.05975   0.06987
 Alpha virt. eigenvalues --    0.09600   0.10787   0.12429   0.13101   0.14070
 Alpha virt. eigenvalues --    0.14721   0.15400   0.16576   0.16811   0.18479

 Mulliken charges:
               1
     1  O   -0.399183
     2  N    0.339363
     3  O   -0.445176
     4  C    0.487133
     5  C    0.080515
     6  N   -0.478764
     7  N   -0.472710
     8  C   -0.139595
     9  H    0.164299
    10  H    0.140603
    11  C    0.443830
    12  O   -0.421609
    13  H    0.136864
    14  C    0.481727
    15  C   -0.396949
    16  H    0.160420
    17  H    0.148860
    18  H    0.130646
    19  C   -0.399617
    20  H    0.123090
    21  H    0.147738
    22  H    0.168516
 Sum of Mulliken charges =  -0.00000

 Dipole moment (field-independent basis, Debye):
    X=             -3.3281    Y=              3.0513    Z=             -3.1186  Tot=              5.4875
 Quadrupole moment (field-independent basis, Debye-Ang):
   XX=            -71.3155   YY=            -80.2000   ZZ=            -75.6433
   XY=             -0.4066   XZ=              4.0223   YZ=             -3.6744

  Exact polarizability: 114.380   2.244 124.590  12.833   0.171  67.528
 Approx polarizability: 184.492   8.128 204.897  33.052   6.711 115.182

                      1                      2                      3
                      A                      A                      A
 Frequencies --     30.7994                51.6342                64.6377
 Red. masses --      7.4057                 3.9728                 7.3234
 Frc consts  --      0.0041                 0.0062                 0.0180
 IR Inten    --      2.3181                 3.9238                 0.9650

                      4                      5                      6
                      A                      A                      A
 Frequencies --     97.8245               118.9117               147.7155
 Red. masses --      6.2518                 5.1091                 1.0406
 Frc consts  --      0.0352                 0.0426                 0.0134
 IR Inten    --      0.1289                 0.4495                 0.3213

                      7                      8                      9
                      A                      A                      A
 Frequencies --    158.3554               219.5436               276.8100
 Red. masses --      1.0360                 5.0630                 5.3172
 Frc consts  --      0.0153                 0.1438                 0.2400
 IR Inten    --      0.2522                 4.4199                 6.2591

                     10                     11                     12
                      A                      A                      A
 Frequencies --    286.2607               322.4080               352.3092
 Red. masses --      4.1295                 4.6497                 2.5518
 Frc consts  --      0.1994                 0.2848                 0.1866
 IR Inten    --      2.7941                 3.7554                 3.0086

                     13                     14                     15
                      A                      A                      A
 Frequencies --    388.2596               438.0684               466.6833
 Red. masses --      4.8732                 5.7016                 2.0576
 Frc consts  --      0.4328                 0.6447                 0.2640
 IR Inten    --      1.6727                 1.9647                 0.7582

                     16                     17                     18
                      A                      A                      A
 Frequencies --    560.4063               587.9363               612.3586
 Red. masses --      3.9768                 4.8843                 4.5715
 Frc consts  --      0.7358                 0.9948                 1.0100
 IR Inten    --     19.3405                 5.0415                 1.6516

                     19                     20                     21
                      A                      A                      A
 Frequencies --    684.3193               702.4118               750.2147
 Red. masses --      4.7447                 4.5017                10.6560
 Frc consts  --      1.3091                 1.3086                 3.5336
 IR Inten    --      6.2094                 3.0440                12.9015

                     22                     23                     24
                      A                      A                      A
 Frequencies --    799.1029               804.8029               835.9799
 Red. masses --      3.1880                 3.8860                10.0786
 Frc consts  --      1.1994                 1.4830                 4.1500
 IR Inten    --      2.8812                 3.4615                24.5197

                     25                     26                     27
                      A                      A                      A
 Frequencies --    863.2776               893.8462               981.2421
 Red. masses --      1.7795                 1.4049                 2.7866
 Frc consts  --      0.7813                 0.6614                 1.5808
 IR Inten    --      4.2179                 6.9128                 5.3991

                     28                     29                     30
                      A                      A                      A
 Frequencies --    994.4139              1015.1373              1065.3851
 Red. masses --      2.0116                 1.6077                 1.5219
 Frc consts  --      1.1720                 0.9761                 1.0178
 IR Inten    --     13.4461                 3.4336                 3.2687

                     31                     32                     33
                      A                      A                      A
 Frequencies --   1094.6957              1184.1524              1195.7579
 Red. masses --      2.4186                 1.8505                 2.3642
 Frc consts  --      1.7076                 1.5288                 1.9917
 IR Inten    --      0.3473                27.0501                86.6671

                     34                     35                     36
                      A                      A                      A
 Frequencies --   1232.5069              1257.5907              1313.6731
 Red. masses --      3.8047                 1.6339                 5.1848
 Frc consts  --      3.4053                 1.5225                 5.2718
 IR Inten    --     88.0966                12.2040               125.7056

                     37                     38                     39
                      A                      A                      A
 Frequencies --   1380.0462              1394.2864              1399.7711
 Red. masses --      1.3978                 2.4613                 1.4522
 Frc consts  --      1.5685                 2.8192                 1.6764
 IR Inten    --     21.8305                26.2687                49.0203

                     40                     41                     42
                      A                      A                      A
 Frequencies --   1407.9459              1427.6024              1467.3682
 Red. masses --      2.0822                 2.4246                 1.2489
 Frc consts  --      2.4318                 2.9114                 1.5844
 IR Inten    --    110.2506                90.5566                44.9198

                     43                     44                     45
                      A                      A                      A
 Frequencies --   1475.1373              1478.4999              1488.4294
 Red. masses --      1.7829                 1.0607                 1.0568
 Frc consts  --      2.2858                 1.3661                 1.3794
 IR Inten    --    128.1542                15.9658                 6.1287

                     46                     47                     48
                      A                      A                      A
 Frequencies --   1497.5833              1513.9669              1520.4807
 Red. masses --      1.0707                 2.3378                 4.3263
 Frc consts  --      1.4149                 3.1571                 5.8929
 IR Inten    --     16.4703                51.0561               170.2483

                     49                     50                     51
                      A                      A                      A
 Frequencies --   1565.0770              1607.9646              1835.2408
 Red. masses --      4.9402                10.9452                10.7896
 Frc consts  --      7.1296                16.6735                21.4113
 IR Inten    --     29.4021               201.9402               104.5966

                     52                     53                     54
                      A                      A                      A
 Frequencies --   3046.4414              3046.9720              3081.0777
 Red. masses --      1.0408                 1.0375                 1.0668
 Frc consts  --      5.6914                 5.6749                 5.9668
 IR Inten    --     11.4131                 1.8393                13.3633

                     55                     56                     57
                      A                      A                      A
 Frequencies --   3106.6442              3111.0506              3165.5313
 Red. masses --      1.1001                 1.0997                 1.0971
 Frc consts  --      6.2554                 6.2708                 6.4772
 IR Inten    --      7.4541                 6.4087                 1.3501

                     58                     59                     60
                      A                      A                      A
 Frequencies --   3169.2145              3170.7599              3284.6806
 Red. masses --      1.0988                 1.1025                 1.0982
 Frc consts  --      6.5025                 6.5304                 6.9807
 IR Inten    --      1.4893                 5.7720                 0.7035

 - Thermochemistry -
 -------------------
 Temperature   298.150 Kelvin.  Pressure   1.00000 Atm.
 Atom     1 has atomic number  8 and mass  15.99491

 Molecular mass:   183.06439 amu.
 Principal axes and moments of inertia in atomic units:
                           1         2         3
     Eigenvalues --  1904.138792122.255223584.15143
           X            0.99352   0.11257   0.01555
           Y           -0.11240   0.99360  -0.01135
           Z           -0.01673   0.00953   0.99981
 This molecule is an asymmetric top.
 Rotational symmetry number  1.
 Warning -- assumption of classical behavior for rotation
           may cause significant error
 Rotational temperatures (Kelvin)      0.04549     0.04081     0.02417
 Rotational constants (GHZ):           0.94780     0.85039     0.50353
 Zero-point vibrational energy     439575.0 (Joules/Mol)
                                  105.06095 (Kcal/Mol)
 Warning -- explicit consideration of  18 degrees of freedom as
           vibrations may cause significant error
 Vibrational temperatures:     44.31    74.29    93.00   140.75   171.09
          (Kelvin)            212.53   227.84   315.87   398.27   411.86
                              463.87   506.89   558.62   630.28   671.45
                              806.30   845.91   881.05   984.58  1010.61
                             1079.39  1149.73  1157.93  1202.79  1242.06
                             1286.04  1411.79  1430.74  1460.55  1532.85
                             1575.02  1703.73  1720.43  1773.30  1809.39
                             1890.08  1985.58  2006.06  2013.96  2025.72
                             2054.00  2111.21  2122.39  2127.23  2141.52
                             2154.69  2178.26  2187.63  2251.79  2313.50
                             2640.50  4383.14  4383.91  4432.98  4469.76
                             4476.10  4554.49  4559.79  4562.01  4725.92

 Zero-point correction=                           0.167425 (Hartree/Particle)
 Thermal correction to Energy=                    0.179988
 Thermal correction to Enthalpy=                  0.180933
 Thermal correction to Gibbs Free Energy=         0.127079
 Sum of electronic and zero-point Energies=           -661.834118
 Sum of electronic and thermal Energies=              -661.821555
 Sum of electronic and thermal Enthalpies=            -661.820611
 Sum of electronic and thermal Free Energies=         -661.874464

                     E (Thermal)             CV                S
                      KCal/Mol        Cal/Mol-Kelvin    Cal/Mol-Kelvin
 Total                  112.944             44.619            113.344
 Electronic               0.000              0.000              0.000
 Translational            0.889              2.981             41.520
 Rotational               0.889              2.981             31.050
 Vibrational            111.167             38.657             40.774
 Vibration     1          0.594              1.984              5.777
 Vibration     2          0.596              1.977              4.754
 Vibration     3          0.597              1.971              4.310
 Vibration     4          0.603              1.951              3.497
 Vibration     5          0.609              1.934              3.118
 Vibration     6          0.617              1.905              2.701
 Vibration     7          0.621              1.893              2.569
 Vibration     8          0.647              1.811              1.963
 Vibration     9          0.678              1.716              1.553
 Vibration    10          0.684              1.699              1.496
 Vibration    11          0.707              1.631              1.298
 Vibration    12          0.729              1.571              1.156
 Vibration    13          0.756              1.495              1.007
 Vibration    14          0.798              1.387              0.833
 Vibration    15          0.824              1.324              0.747
 Vibration    16          0.916              1.117              0.523
 Vibration    17          0.945              1.058              0.471
 Vibration    18          0.972              1.006              0.429

 Normal termination of Gaussian 09 at Fri Aug 20 15:46:48 2021.
