 Gaussian 09, Revision E.01,
 Gaussian 09:  ES64L-G09RevE.01 30-Nov-2015

 -------------------------
 #P OPT Freq B3LYP/6-31G**
 -------------------------

 ------
 LUHPAF
 ------
 Symbolic Z-matrix:
 Charge =  0 Multiplicity = 1

 SCF Done:  E(RB3LYP) =  -507.026043184     A.U. after   16 cycles
 SCF Done:  E(RB3LYP) =  -507.118688658     A.U. after   15 cycles
 SCF Done:  E(RB3LYP) =  -507.149679612     A.U. after   15 cycles
 SCF Done:  E(RB3LYP) =  -507.147941950     A.U. after   15 cycles
 SCF Done:  E(RB3LYP) =  -507.151259753     A.U. after   12 cycles
 SCF Done:  E(RB3LYP) =  -507.151746397     A.U. after   14 cycles
 SCF Done:  E(RB3LYP) =  -507.152870110     A.U. after   13 cycles
 SCF Done:  E(RB3LYP) =  -507.153009959     A.U. after   13 cycles
 SCF Done:  E(RB3LYP) =  -507.153073957     A.U. after   12 cycles
 SCF Done:  E(RB3LYP) =  -507.153112088     A.U. after   12 cycles
 SCF Done:  E(RB3LYP) =  -507.153124091     A.U. after   10 cycles
 SCF Done:  E(RB3LYP) =  -507.153127330     A.U. after   10 cycles
 SCF Done:  E(RB3LYP) =  -507.153128201     A.U. after    9 cycles
 SCF Done:  E(RB3LYP) =  -507.153128357     A.U. after    8 cycles
 Optimization completed.
    -- Stationary point found.
 Normal termination of Gaussian 09 at Fri Aug 20 16:02:21 2021.

 ----------------------------------------------------------------------
 #P Geom=AllCheck Guess=TCheck SCRF=Check GenChk RB3LYP/6-31G(d,p) Freq
 ----------------------------------------------------------------------

 Structure from the checkpoint file:  "/public/home/users/caep010/.cache/gau_scr/Gau-219341.chk"
 ------
 LUHPAF
 ------
 Charge =  0 Multiplicity = 1

                         Standard orientation:
 ---------------------------------------------------------------------
 Center     Atomic      Atomic             Coordinates (Angstroms)
 Number     Number       Type             X           Y           Z
 ---------------------------------------------------------------------
      1          7           0       -0.145790   -0.186656    0.243861
      2          6           0        0.708047    0.946555   -0.024858
      3          7           0        1.953259    0.389372   -0.210246
      4          6           0        2.014125   -1.020012    0.151420
      5          1           0        2.681431   -1.578997   -0.509041
      6          1           0        2.343487   -1.164494    1.189083
      7          8           0        0.400133    2.109873   -0.076956
      8          7           0       -1.530446   -0.142608    0.027830
      9          6           0        0.546396   -1.449113   -0.025809
     10          1           0        0.236851   -2.222982    0.676368
     11          1           0        0.337370   -1.792333   -1.044417
     12          1           0        2.748442    1.006223   -0.133290
     13          8           0       -2.045524   -1.230435   -0.229447
     14          8           0       -2.091878    0.928968    0.154735
 ---------------------------------------------------------------------

 SCF Done:  E(RB3LYP) =  -507.153128357     A.U. after    1 cycles

 The electronic state is 1-A.
 Alpha  occ. eigenvalues --  -19.18808 -19.18759 -19.14137 -14.61069 -14.43017
 Alpha  occ. eigenvalues --  -14.38781 -10.34386 -10.26577 -10.26389  -1.25152
 Alpha  occ. eigenvalues --   -1.07948  -1.07081  -1.00298  -0.93827  -0.79266
 Alpha  occ. eigenvalues --   -0.73385  -0.66899  -0.59009  -0.56814  -0.55408
 Alpha  occ. eigenvalues --   -0.53941  -0.52410  -0.50790  -0.47820  -0.44015
 Alpha  occ. eigenvalues --   -0.43306  -0.42559  -0.42336  -0.33681  -0.31675
 Alpha  occ. eigenvalues --   -0.30312  -0.29828  -0.28564  -0.27832
 Alpha virt. eigenvalues --   -0.06078   0.02897   0.05491   0.08551   0.09875
 Alpha virt. eigenvalues --    0.11794   0.12665   0.13430   0.16501   0.17538
 Alpha virt. eigenvalues --    0.21703   0.23259   0.27080   0.31754   0.35413

 Mulliken charges:
               1
     1  N   -0.395502
     2  C    0.771797
     3  N   -0.559738
     4  C   -0.053899
     5  H    0.134658
     6  H    0.131831
     7  O   -0.458771
     8  N    0.646729
     9  C   -0.033886
    10  H    0.151969
    11  H    0.151055
    12  H    0.282473
    13  O   -0.408388
    14  O   -0.360326
 Sum of Mulliken charges =  -0.00000

 Dipole moment (field-independent basis, Debye):
    X=              5.5691    Y=             -3.4657    Z=              0.3967  Tot=              6.5714
 Quadrupole moment (field-independent basis, Debye-Ang):
   XX=            -48.5398   YY=            -55.6539   ZZ=            -49.1782
   XY=             -1.3295   XZ=              0.4343   YZ=             -0.4087

  Exact polarizability:  73.257  -3.333  69.978   0.686   1.150  35.969
 Approx polarizability: 103.117  -7.504 128.911   0.760   5.380  54.740

                      1                      2                      3
                      A                      A                      A
 Frequencies --     71.4036               117.4050               193.6118
 Red. masses --     12.9588                 4.3872                 3.8068
 Frc consts  --      0.0389                 0.0356                 0.0841
 IR Inten    --      0.6766                 0.2453                 6.5894

                      4                      5                      6
                      A                      A                      A
 Frequencies --    233.1465               246.3537               399.5390
 Red. masses --      4.1811                 3.6568                 7.8396
 Frc consts  --      0.1339                 0.1308                 0.7373
 IR Inten    --      0.3857                 3.9168                 1.5100

                      7                      8                      9
                      A                      A                      A
 Frequencies --    451.2239               507.4548               618.1285
 Red. masses --      6.8430                 1.2886                 5.7200
 Frc consts  --      0.8209                 0.1955                 1.2877
 IR Inten    --     14.4362               122.4343                31.2457

                     10                     11                     12
                      A                      A                      A
 Frequencies --    697.1288               713.1514               737.3483
 Red. masses --      3.2403                 5.0566                11.8813
 Frc consts  --      0.9278                 1.5152                 3.8059
 IR Inten    --     18.8655                19.9564                16.5245

                     13                     14                     15
                      A                      A                      A
 Frequencies --    773.7576               843.6905               903.9333
 Red. masses --     12.5344                 9.3231                 1.5303
 Frc consts  --      4.4214                 3.9100                 0.7367
 IR Inten    --     22.8142                23.0055                12.6834

                     16                     17                     18
                      A                      A                      A
 Frequencies --    968.9073              1076.9545              1098.1334
 Red. masses --      2.3569                 2.0415                 5.6764
 Frc consts  --      1.3037                 1.3951                 4.0331
 IR Inten    --      2.9321                33.8334               127.0155

                     19                     20                     21
                      A                      A                      A
 Frequencies --   1129.5692              1204.1869              1232.8366
 Red. masses --      1.6909                 3.2706                 1.2686
 Frc consts  --      1.2712                 2.7943                 1.1361
 IR Inten    --     10.1692                77.3514                 9.7527

                     22                     23                     24
                      A                      A                      A
 Frequencies --   1239.9209              1258.0131              1324.3907
 Red. masses --      3.2630                 1.4723                 2.8985
 Frc consts  --      2.9557                 1.3729                 2.9954
 IR Inten    --    294.2745                12.2733               293.7150

                     25                     26                     27
                      A                      A                      A
 Frequencies --   1356.4554              1406.7946              1452.0423
 Red. masses --      1.6445                 2.1605                 1.7706
 Frc consts  --      1.7828                 2.5192                 2.1996
 IR Inten    --     34.2316                13.8253                22.1999

                     28                     29                     30
                      A                      A                      A
 Frequencies --   1529.3734              1545.8019              1682.6025
 Red. masses --      1.0988                 1.0932                14.2954
 Frc consts  --      1.5142                 1.5391                23.8457
 IR Inten    --      8.1975                 2.9093               169.6818

                     31                     32                     33
                      A                      A                      A
 Frequencies --   1893.8017              3031.2597              3073.3754
 Red. masses --     11.3852                 1.0695                 1.0668
 Frc consts  --     24.0580                 5.7901                 5.9369
 IR Inten    --    479.8554                48.1638                10.6771

                     34                     35                     36
                      A                      A                      A
 Frequencies --   3112.6348              3153.6569              3657.3712
 Red. masses --      1.0971                 1.1020                 1.0783
 Frc consts  --      6.2624                 6.4577                 8.4985
 IR Inten    --     23.3954                 9.1359                56.4204

 - Thermochemistry -
 -------------------
 Temperature   298.150 Kelvin.  Pressure   1.00000 Atm.
 Atom     1 has atomic number  7 and mass  14.00307

 Molecular mass:   131.03309 amu.
 Principal axes and moments of inertia in atomic units:
                           1         2         3
     Eigenvalues --   641.058971110.254921706.07764
           X            0.99907  -0.04297   0.00296
           Y            0.04297   0.99907  -0.00219
           Z           -0.00286   0.00232   0.99999
 This molecule is an asymmetric top.
 Rotational symmetry number  1.
 Warning -- assumption of classical behavior for rotation
           may cause significant error
 Rotational temperatures (Kelvin)      0.13511     0.07801     0.05077
 Rotational constants (GHZ):           2.81525     1.62552     1.05783
 Zero-point vibrational energy     268773.1 (Joules/Mol)
                                   64.23832 (Kcal/Mol)
 Warning -- explicit consideration of   9 degrees of freedom as
           vibrations may cause significant error
 Vibrational temperatures:    102.73   168.92   278.56   335.45   354.45
          (Kelvin)            574.85   649.21   730.11   889.35  1003.01
                             1026.06  1060.88  1113.26  1213.88  1300.56
                             1394.04  1549.50  1579.97  1625.20  1732.55
                             1773.77  1783.97  1810.00  1905.50  1951.63
                             2024.06  2089.16  2200.42  2224.06  2420.89
                             2724.75  4361.30  4421.90  4478.38  4537.40
                             5262.13

 Zero-point correction=                           0.102370 (Hartree/Particle)
 Thermal correction to Energy=                    0.109955
 Thermal correction to Enthalpy=                  0.110899
 Thermal correction to Gibbs Free Energy=         0.069593
 Sum of electronic and zero-point Energies=           -507.050758
 Sum of electronic and thermal Energies=              -507.043174
 Sum of electronic and thermal Enthalpies=            -507.042229
 Sum of electronic and thermal Free Energies=         -507.083536

                     E (Thermal)             CV                S
                      KCal/Mol        Cal/Mol-Kelvin    Cal/Mol-Kelvin
 Total                   68.998             27.124             86.937
 Electronic               0.000              0.000              0.000
 Translational            0.889              2.981             40.524
 Rotational               0.889              2.981             28.587
 Vibrational             67.220             21.163             17.826
 Vibration     1          0.598              1.968              4.114
 Vibration     2          0.608              1.935              3.143
 Vibration     3          0.635              1.849              2.193
 Vibration     4          0.654              1.790              1.855
 Vibration     5          0.661              1.769              1.757
 Vibration     6          0.766              1.471              0.964
 Vibration     7          0.810              1.358              0.792
 Vibration     8          0.863              1.233              0.640
 Vibration     9          0.978              0.994              0.420

 Optimization completed.
    -- Stationary point found.
 Normal termination of Gaussian 09 at Fri Aug 20 16:02:36 2021.
