 Gaussian 09, Revision E.01,
 Gaussian 09:  ES64L-G09RevE.01 30-Nov-2015

 -------------------------
 #P OPT Freq B3LYP/6-31G**
 -------------------------

 --------
 JABLUW01
 --------
 Symbolic Z-matrix:
 Charge =  0 Multiplicity = 1

 SCF Done:  E(RB3LYP) =  -687.664238490     A.U. after   16 cycles
 SCF Done:  E(RB3LYP) =  -687.717088994     A.U. after   14 cycles
 SCF Done:  E(RB3LYP) =  -687.724689856     A.U. after   14 cycles
 SCF Done:  E(RB3LYP) =  -687.724387829     A.U. after   13 cycles
 SCF Done:  E(RB3LYP) =  -687.724993452     A.U. after    9 cycles
 SCF Done:  E(RB3LYP) =  -687.722849052     A.U. after   14 cycles
 SCF Done:  E(RB3LYP) =  -687.725092247     A.U. after   10 cycles
 SCF Done:  E(RB3LYP) =  -687.725173384     A.U. after   12 cycles
 SCF Done:  E(RB3LYP) =  -687.725187324     A.U. after   10 cycles
 SCF Done:  E(RB3LYP) =  -687.725197920     A.U. after   10 cycles
 SCF Done:  E(RB3LYP) =  -687.725199707     A.U. after    9 cycles
 Optimization completed.
    -- Stationary point found.
 Normal termination of Gaussian 09 at Fri Aug 20 15:34:53 2021.

 ----------------------------------------------------------------------
 #P Geom=AllCheck Guess=TCheck SCRF=Check GenChk RB3LYP/6-31G(d,p) Freq
 ----------------------------------------------------------------------

 Structure from the checkpoint file:  "/public/home/users/caep010/.cache/gau_scr/Gau-181827.chk"
 --------
 JABLUW01
 --------
 Charge =  0 Multiplicity = 1

                         Standard orientation:
 ---------------------------------------------------------------------
 Center     Atomic      Atomic             Coordinates (Angstroms)
 Number     Number       Type             X           Y           Z
 ---------------------------------------------------------------------
      1          8           0       -3.896799    0.278068   -0.000979
      2          7           0       -2.947026   -0.487100   -0.000207
      3          8           0       -2.929398   -1.695439   -0.000769
      4          7           0       -1.669395    0.167201    0.001697
      5          6           0       -1.470484    1.525415    0.000036
      6          6           0       -0.110218    1.695203   -0.000046
      7          1           0        0.451425    2.615368   -0.000433
      8          6           0        0.401886    0.367239    0.000046
      9          7           0        1.749947   -0.008079   -0.000366
     10          7           0        2.744648    0.925110   -0.000463
     11          6           0        2.329085   -1.234197   -0.000311
     12          1           0        1.776672   -2.160300    0.000248
     13          7           0        3.852136    0.268697   -0.000389
     14          7           0        3.632858   -1.081802    0.000100
     15          1           0       -2.297936    2.214711    0.000132
     16          7           0       -0.537767   -0.562996    0.001869
 ---------------------------------------------------------------------

 SCF Done:  E(RB3LYP) =  -687.725199707     A.U. after    1 cycles

 The electronic state is 1-A.
 Alpha  occ. eigenvalues --  -19.23591 -19.23316 -14.65422 -14.50407 -14.47156
 Alpha  occ. eigenvalues --  -14.42735 -14.41509 -14.41050 -14.37791 -10.31671
 Alpha  occ. eigenvalues --  -10.28974 -10.28761 -10.24641  -1.29849  -1.15997
 Alpha  occ. eigenvalues --   -1.12257  -1.11972  -0.98827  -0.91658  -0.90038
 Alpha  occ. eigenvalues --   -0.85438  -0.76336  -0.70258  -0.68514  -0.63802
 Alpha  occ. eigenvalues --   -0.62096  -0.60866  -0.60333  -0.58237  -0.55338
 Alpha  occ. eigenvalues --   -0.52762  -0.51102  -0.49529  -0.48545  -0.47993
 Alpha  occ. eigenvalues --   -0.39621  -0.38098  -0.37165  -0.36662  -0.36006
 Alpha  occ. eigenvalues --   -0.34225  -0.32424  -0.31712  -0.31159  -0.30302
 Alpha  occ. eigenvalues --   -0.29360
 Alpha virt. eigenvalues --   -0.11584  -0.05593  -0.01790   0.00581   0.04562
 Alpha virt. eigenvalues --    0.05039   0.09356   0.10393   0.12190   0.13237
 Alpha virt. eigenvalues --    0.14198   0.18884   0.20429   0.21106   0.23358

 Mulliken charges:
               1
     1  O   -0.375090
     2  N    0.673777
     3  O   -0.343132
     4  N   -0.183610
     5  C    0.190307
     6  C   -0.198676
     7  H    0.152775
     8  C    0.593192
     9  N   -0.416599
    10  N   -0.061359
    11  C    0.332999
    12  H    0.184856
    13  N   -0.068691
    14  N   -0.320245
    15  H    0.178352
    16  N   -0.338856
 Sum of Mulliken charges =  -0.00000

 Dipole moment (field-independent basis, Debye):
    X=             -3.2264    Y=              1.9579    Z=              0.0001  Tot=              3.7740
 Quadrupole moment (field-independent basis, Debye-Ang):
   XX=            -99.7061   YY=            -68.1983   ZZ=            -70.1011
   XY=             -6.1137   XZ=             -0.0059   YZ=              0.0017

  Exact polarizability: 149.859   0.036  94.775   0.001  -0.010  35.876
 Approx polarizability: 235.334  -1.298 189.930  -0.003  -0.038  57.800

                      1                      2                      3
                      A                      A                      A
 Frequencies --     46.0761                70.9255               108.8685
 Red. masses --      6.5228                14.3515                 8.1467
 Frc consts  --      0.0082                 0.0425                 0.0569
 IR Inten    --     10.5191                 2.0648                 1.6860

                      4                      5                      6
                      A                      A                      A
 Frequencies --    109.0860               157.7860               252.9642
 Red. masses --      9.2917                 9.6539                 8.7834
 Frc consts  --      0.0651                 0.1416                 0.3312
 IR Inten    --      7.1375                 0.7616                 3.6721

                      7                      8                      9
                      A                      A                      A
 Frequencies --    327.7223               354.0543               463.2966
 Red. masses --     12.6577                 7.4285                 5.4819
 Frc consts  --      0.8010                 0.5486                 0.6933
 IR Inten    --      7.2893                 4.1091                 0.7101

                     10                     11                     12
                      A                      A                      A
 Frequencies --    498.4566               567.9670               616.5721
 Red. masses --     11.0193                 5.3437                 8.4799
 Frc consts  --      1.6131                 1.0156                 1.8994
 IR Inten    --      8.1689                 0.4898                 1.6609

                     13                     14                     15
                      A                      A                      A
 Frequencies --    659.9292               701.7340               719.4906
 Red. masses --      4.5524                 4.9994                12.8491
 Frc consts  --      1.1681                 1.4505                 3.9190
 IR Inten    --      4.2582                 1.2289                 1.8165

                     16                     17                     18
                      A                      A                      A
 Frequencies --    736.3802               783.2432               826.5919
 Red. masses --     11.1107                 1.3140                13.2733
 Frc consts  --      3.5497                 0.4750                 5.3433
 IR Inten    --      4.2400                59.3722               175.6880

                     19                     20                     21
                      A                      A                      A
 Frequencies --    869.3263               891.2798               949.6774
 Red. masses --      1.3659                 1.3198                 6.5954
 Frc consts  --      0.6082                 0.6177                 3.5047
 IR Inten    --     12.8764                 0.4709                 8.8967

                     22                     23                     24
                      A                      A                      A
 Frequencies --    971.9198               989.3296              1016.2733
 Red. masses --      7.2192                 6.5499                 6.5743
 Frc consts  --      4.0179                 3.7772                 4.0006
 IR Inten    --     16.0924                 0.5571               145.0557

                     25                     26                     27
                      A                      A                      A
 Frequencies --   1057.6768              1100.1853              1119.4344
 Red. masses --      1.3887                 6.3828                 2.0869
 Frc consts  --      0.9153                 4.5519                 1.5408
 IR Inten    --     85.0534                37.7895                85.6572

                     28                     29                     30
                      A                      A                      A
 Frequencies --   1172.9424              1200.1543              1263.4572
 Red. masses --      4.1493                 2.3677                 3.7883
 Frc consts  --      3.3634                 2.0093                 3.5630
 IR Inten    --     67.7057                12.2878               266.6568

                     31                     32                     33
                      A                      A                      A
 Frequencies --   1327.9081              1344.8479              1357.1871
 Red. masses --      8.9351                 6.5645                 7.8780
 Frc consts  --      9.2829                 6.9951                 8.5496
 IR Inten    --    232.2378               167.8019                29.5732

                     34                     35                     36
                      A                      A                      A
 Frequencies --   1419.1044              1458.6975              1507.1422
 Red. masses --      4.9114                 7.2470                 5.5259
 Frc consts  --      5.8276                 9.0853                 7.3954
 IR Inten    --      4.5190                12.6898                 6.0226

                     37                     38                     39
                      A                      A                      A
 Frequencies --   1556.1924              1611.0613              1744.5360
 Red. masses --      7.8042                 8.0121                14.4366
 Frc consts  --     11.1353                12.2523                25.8866
 IR Inten    --     98.3595               188.4494               237.8130

                     40                     41                     42
                      A                      A                      A
 Frequencies --   3302.5092              3313.2897              3325.1979
 Red. masses --      1.0950                 1.1007                 1.1043
 Frc consts  --      7.0363                 7.1196                 7.1942
 IR Inten    --      7.4699                 7.2734                13.8790

 - Thermochemistry -
 -------------------
 Temperature   298.150 Kelvin.  Pressure   1.00000 Atm.
 Atom     1 has atomic number  8 and mass  15.99491

 Molecular mass:   181.03482 amu.
 Principal axes and moments of inertia in atomic units:
                           1         2         3
     Eigenvalues --   655.284904241.332484896.61650
           X            0.99997  -0.00764   0.00000
           Y            0.00764   0.99997  -0.00001
           Z            0.00000   0.00001   1.00000
 This molecule is an asymmetric top.
 Rotational symmetry number  1.
 Warning -- assumption of classical behavior for rotation
           may cause significant error
 Rotational temperatures (Kelvin)      0.13218     0.02042     0.01769
 Rotational constants (GHZ):           2.75413     0.42551     0.36857
 Zero-point vibrational energy     262403.7 (Joules/Mol)
                                   62.71599 (Kcal/Mol)
 Warning -- explicit consideration of  12 degrees of freedom as
           vibrations may cause significant error
 Vibrational temperatures:     66.29   102.05   156.64   156.95   227.02
          (Kelvin)            363.96   471.52   509.40   666.58   717.17
                              817.18   887.11   949.49  1009.64  1035.19
                             1059.49  1126.91  1189.28  1250.77  1282.35
                             1366.37  1398.37  1423.42  1462.19  1521.76
                             1582.92  1610.61  1687.60  1726.75  1817.83
                             1910.56  1934.93  1952.69  2041.77  2098.74
                             2168.44  2239.01  2317.95  2510.00  4751.57
                             4767.08  4784.21

 Zero-point correction=                           0.099944 (Hartree/Particle)
 Thermal correction to Energy=                    0.109566
 Thermal correction to Enthalpy=                  0.110510
 Thermal correction to Gibbs Free Energy=         0.063006
 Sum of electronic and zero-point Energies=           -687.625255
 Sum of electronic and thermal Energies=              -687.615634
 Sum of electronic and thermal Enthalpies=            -687.614690
 Sum of electronic and thermal Free Energies=         -687.662194

                     E (Thermal)             CV                S
                      KCal/Mol        Cal/Mol-Kelvin    Cal/Mol-Kelvin
 Total                   68.753             34.780             99.980
 Electronic               0.000              0.000              0.000
 Translational            0.889              2.981             41.487
 Rotational               0.889              2.981             30.988
 Vibrational             66.976             28.818             27.505
 Vibration     1          0.595              1.979              4.979
 Vibration     2          0.598              1.968              4.128
 Vibration     3          0.606              1.942              3.289
 Vibration     4          0.606              1.942              3.285
 Vibration     5          0.621              1.894              2.576
 Vibration     6          0.664              1.758              1.710
 Vibration     7          0.711              1.620              1.271
 Vibration     8          0.730              1.567              1.148
 Vibration     9          0.821              1.331              0.757
 Vibration    10          0.854              1.253              0.662
 Vibration    11          0.924              1.101              0.508
 Vibration    12          0.976              0.997              0.422

 Normal termination of Gaussian 09 at Fri Aug 20 15:35:18 2021.
