 Gaussian 09, Revision E.01,
 Gaussian 09:  ES64L-G09RevE.01 30-Nov-2015

 -------------------------
 #P OPT Freq B3LYP/6-31G**
 -------------------------

 ------
 NIPHAZ
 ------
 Symbolic Z-matrix:
 Charge =  0 Multiplicity = 1

 SCF Done:  E(RB3LYP) =  -600.321179751     A.U. after   17 cycles
 SCF Done:  E(RB3LYP) =  -600.344626633     A.U. after   15 cycles
 SCF Done:  E(RB3LYP) =  -600.342235355     A.U. after   15 cycles
 SCF Done:  E(RB3LYP) =  -600.345160887     A.U. after   12 cycles
 SCF Done:  E(RB3LYP) =  -600.345151431     A.U. after   15 cycles
 SCF Done:  E(RB3LYP) =  -600.345742887     A.U. after   10 cycles
 SCF Done:  E(RB3LYP) =  -600.345830346     A.U. after   14 cycles
 SCF Done:  E(RB3LYP) =  -600.345860838     A.U. after   12 cycles
 SCF Done:  E(RB3LYP) =  -600.345875876     A.U. after   11 cycles
 SCF Done:  E(RB3LYP) =  -600.345876489     A.U. after   10 cycles
 SCF Done:  E(RB3LYP) =  -600.345876572     A.U. after    9 cycles
 Optimization completed.
    -- Stationary point found.
 Normal termination of Gaussian 09 at Fri Aug 20 16:00:19 2021.

 ----------------------------------------------------------------------
 #P Geom=AllCheck Guess=TCheck SCRF=Check GenChk RB3LYP/6-31G(d,p) Freq
 ----------------------------------------------------------------------

 Structure from the checkpoint file:  "/public/home/users/caep010/.cache/gau_scr/Gau-153956.chk"
 ------
 NIPHAZ
 ------
 Charge =  0 Multiplicity = 1

                         Standard orientation:
 ---------------------------------------------------------------------
 Center     Atomic      Atomic             Coordinates (Angstroms)
 Number     Number       Type             X           Y           Z
 ---------------------------------------------------------------------
      1          6           0       -1.378717    0.001796    0.000057
      2          6           0       -0.902569    1.313306   -0.000283
      3          6           0       -0.514381   -1.092270    0.000408
      4          6           0        0.856475   -0.871444    0.000493
      5          6           0        0.467245    1.532265   -0.000325
      6          6           0        1.352408    0.443084    0.000069
      7          7           0        2.725901    0.769002    0.000130
      8          1           0       -1.607741    2.134606   -0.000501
      9          1           0        0.872155    2.537813   -0.000719
     10          7           0        3.551837   -0.157290    0.000093
     11          7           0        4.418330   -0.896494   -0.000370
     12          1           0        1.538560   -1.715749    0.000866
     13          1           0       -0.925026   -2.093994    0.000630
     14          7           0       -2.826145   -0.233202   -0.000053
     15          8           0       -3.565164    0.751891    0.000640
     16          8           0       -3.216106   -1.401541   -0.000814
 ---------------------------------------------------------------------

 SCF Done:  E(RB3LYP) =  -600.345876572     A.U. after    1 cycles

 The electronic state is 1-A.
 Alpha  occ. eigenvalues --  -19.18361 -19.18354 -14.57557 -14.54908 -14.44944
 Alpha  occ. eigenvalues --  -14.42334 -10.28110 -10.26017 -10.23397 -10.23201
 Alpha  occ. eigenvalues --  -10.23166 -10.22718  -1.22668  -1.17826  -1.05376
 Alpha  occ. eigenvalues --   -1.02443  -0.90356  -0.82754  -0.78954  -0.73841
 Alpha  occ. eigenvalues --   -0.65838  -0.63696  -0.59210  -0.55901  -0.54822
 Alpha  occ. eigenvalues --   -0.54571  -0.53484  -0.51441  -0.48976  -0.48470
 Alpha  occ. eigenvalues --   -0.47424  -0.46096  -0.44134  -0.41506  -0.38972
 Alpha  occ. eigenvalues --   -0.34317  -0.34113  -0.31289  -0.31105  -0.29390
 Alpha  occ. eigenvalues --   -0.29130  -0.25740
 Alpha virt. eigenvalues --   -0.09699  -0.06172  -0.04375  -0.03244   0.02506
 Alpha virt. eigenvalues --    0.07583   0.11662   0.13774   0.13863   0.14389
 Alpha virt. eigenvalues --    0.17284   0.18879   0.22753   0.25530   0.26095

 Mulliken charges:
               1
     1  C    0.248811
     2  C   -0.095037
     3  C   -0.101085
     4  C   -0.103192
     5  C   -0.102733
     6  C    0.284354
     7  N   -0.459641
     8  H    0.145109
     9  H    0.121606
    10  N    0.440138
    11  N   -0.223852
    12  H    0.111163
    13  H    0.146343
    14  N    0.384628
    15  O   -0.397485
    16  O   -0.399129
 Sum of Mulliken charges =  -0.00000

 Dipole moment (field-independent basis, Debye):
    X=              3.3336    Y=              0.4901    Z=              0.0004  Tot=              3.3694
 Quadrupole moment (field-independent basis, Debye-Ang):
   XX=            -86.0367   YY=            -63.6402   ZZ=            -66.3235
   XY=             -1.5863   XZ=              0.0016   YZ=             -0.0066

  Exact polarizability: 175.250 -13.553  99.956  -0.004  -0.001  33.434
 Approx polarizability: 295.094 -45.096 217.020  -0.014   0.017  52.040

                      1                      2                      3
                      A                      A                      A
 Frequencies --     54.2217                72.3439               117.8325
 Red. masses --     12.1408                 6.5318                11.6236
 Frc consts  --      0.0210                 0.0201                 0.0951
 IR Inten    --      0.7300                 0.4766                 1.4515

                      4                      5                      6
                      A                      A                      A
 Frequencies --    131.7070               234.8766               306.4673
 Red. masses --      9.8659                 9.6052                 7.3940
 Frc consts  --      0.1008                 0.3122                 0.4092
 IR Inten    --      3.2687                 2.1732                 0.1200

                      7                      8                      9
                      A                      A                      A
 Frequencies --    337.3573               402.3575               425.7086
 Red. masses --     11.2270                 7.4627                 3.1355
 Frc consts  --      0.7528                 0.7118                 0.3348
 IR Inten    --      0.0131                 1.5063                 0.0030

                     10                     11                     12
                      A                      A                      A
 Frequencies --    501.1266               537.1746               542.5711
 Red. masses --      3.0464                 7.2365                13.2306
 Frc consts  --      0.4507                 1.2303                 2.2948
 IR Inten    --      2.0826                 1.4537                10.5957

                     13                     14                     15
                      A                      A                      A
 Frequencies --    566.6978               642.3425               695.6498
 Red. masses --      8.5715                 7.1986                 4.0319
 Frc consts  --      1.6219                 1.7500                 1.1496
 IR Inten    --     15.5935                 0.5241                 8.2636

                     16                     17                     18
                      A                      A                      A
 Frequencies --    705.8191               756.5084               819.9390
 Red. masses --      9.0589                 5.8846                 8.3136
 Frc consts  --      2.6590                 1.9843                 3.2931
 IR Inten    --      6.3135                24.1106                15.1198

                     19                     20                     21
                      A                      A                      A
 Frequencies --    840.3697               871.4622               874.5996
 Red. masses --      1.2629                 1.6771                 9.5380
 Frc consts  --      0.5255                 0.7504                 4.2986
 IR Inten    --      1.0417                37.7731                41.7343

                     22                     23                     24
                      A                      A                      A
 Frequencies --    982.7438               991.5418              1027.4037
 Red. masses --      1.3220                 1.3075                 2.7738
 Frc consts  --      0.7523                 0.7574                 1.7250
 IR Inten    --      0.3955                 0.2444                 0.5516

                     25                     26                     27
                      A                      A                      A
 Frequencies --   1131.7519              1133.6974              1165.1778
 Red. masses --      2.6706                 1.2729                 4.3553
 Frc consts  --      2.0154                 0.9639                 3.4838
 IR Inten    --     80.2881                15.7761                15.2409

                     28                     29                     30
                      A                      A                      A
 Frequencies --   1205.3162              1323.8445              1365.0077
 Red. masses --      1.3844                 1.3462                 7.6119
 Frc consts  --      1.1850                 1.3901                 8.3563
 IR Inten    --     11.6787                 3.5587               356.5472

                     31                     32                     33
                      A                      A                      A
 Frequencies --   1378.0005              1397.8789              1460.8220
 Red. masses --     10.0425                11.8408                 3.4317
 Frc consts  --     11.2354                13.6323                 4.3147
 IR Inten    --    235.1749               198.6595                 0.6816

                     34                     35                     36
                      A                      A                      A
 Frequencies --   1532.6481              1611.5792              1649.6883
 Red. masses --      2.4567                10.1684                 5.9571
 Frc consts  --      3.4001                15.5598                 9.5518
 IR Inten    --     86.8857                81.0746               131.9201

                     37                     38                     39
                      A                      A                      A
 Frequencies --   1665.8627              2268.9128              3202.7680
 Red. masses --      9.6519                13.9829                 1.0906
 Frc consts  --     15.7813                42.4115                 6.5912
 IR Inten    --    138.9120               792.9278                 2.5150

                     40                     41                     42
                      A                      A                      A
 Frequencies --   3223.0483              3247.4270              3249.2259
 Red. masses --      1.0910                 1.0929                 1.0936
 Frc consts  --      6.6771                 6.7904                 6.8027
 IR Inten    --      1.1263                 2.0775                 2.0504

 - Thermochemistry -
 -------------------
 Temperature   298.150 Kelvin.  Pressure   1.00000 Atm.
 Atom     1 has atomic number  6 and mass  12.00000

 Molecular mass:   164.03343 amu.
 Principal axes and moments of inertia in atomic units:
                           1         2         3
     Eigenvalues --   550.738783965.349224516.08780
           X            1.00000  -0.00198   0.00000
           Y            0.00198   1.00000  -0.00004
           Z           -0.00000   0.00004   1.00000
 This molecule is an asymmetric top.
 Rotational symmetry number  1.
 Warning -- assumption of classical behavior for rotation
           may cause significant error
 Rotational temperatures (Kelvin)      0.15727     0.02184     0.01918
 Rotational constants (GHZ):           3.27695     0.45513     0.39962
 Zero-point vibrational energy     279037.8 (Joules/Mol)
                                   66.69164 (Kcal/Mol)
 Warning -- explicit consideration of  13 degrees of freedom as
           vibrations may cause significant error
 Vibrational temperatures:     78.01   104.09   169.53   189.50   337.93
          (Kelvin)            440.94   485.38   578.90   612.50   721.01
                              772.87   780.64   815.35   924.19  1000.88
                             1015.52  1088.45  1179.71  1209.10  1253.84
                             1258.35  1413.95  1426.61  1478.20  1628.34
                             1631.14  1676.43  1734.18  1904.71  1963.94
                             1982.63  2011.23  2101.79  2205.14  2318.70
                             2373.53  2396.80  3264.46  4608.06  4637.24
                             4672.32  4674.91

 Zero-point correction=                           0.106280 (Hartree/Particle)
 Thermal correction to Energy=                    0.115745
 Thermal correction to Enthalpy=                  0.116689
 Thermal correction to Gibbs Free Energy=         0.070241
 Sum of electronic and zero-point Energies=           -600.239597
 Sum of electronic and thermal Energies=              -600.230132
 Sum of electronic and thermal Enthalpies=            -600.229188
 Sum of electronic and thermal Free Energies=         -600.275636

                     E (Thermal)             CV                S
                      KCal/Mol        Cal/Mol-Kelvin    Cal/Mol-Kelvin
 Total                   72.631             34.807             97.758
 Electronic               0.000              0.000              0.000
 Translational            0.889              2.981             41.193
 Rotational               0.889              2.981             30.668
 Vibrational             70.853             28.845             25.897
 Vibration     1          0.596              1.976              4.657
 Vibration     2          0.598              1.967              4.089
 Vibration     3          0.608              1.935              3.136
 Vibration     4          0.612              1.922              2.921
 Vibration     5          0.655              1.787              1.841
 Vibration     6          0.697              1.661              1.381
 Vibration     7          0.718              1.601              1.225
 Vibration     8          0.768              1.465              0.954
 Vibration     9          0.788              1.414              0.873
 Vibration    10          0.857              1.248              0.655
 Vibration    11          0.892              1.168              0.571
 Vibration    12          0.898              1.156              0.560
 Vibration    13          0.923              1.103              0.511

 Normal termination of Gaussian 09 at Fri Aug 20 16:00:40 2021.
