 Gaussian 09, Revision E.01,
 Gaussian 09:  ES64L-G09RevE.01 30-Nov-2015

 -------------------------
 #P OPT Freq B3LYP/6-31G**
 -------------------------

 --------
 JABMAD01
 --------
 Symbolic Z-matrix:
 Charge =  0 Multiplicity = 1

 SCF Done:  E(RB3LYP) =  -687.673042053     A.U. after   16 cycles
 SCF Done:  E(RB3LYP) =  -687.713745596     A.U. after   14 cycles
 SCF Done:  E(RB3LYP) =  -687.717861093     A.U. after   16 cycles
 SCF Done:  E(RB3LYP) =  -687.717872414     A.U. after   13 cycles
 SCF Done:  E(RB3LYP) =  -687.717550923     A.U. after   13 cycles
 SCF Done:  E(RB3LYP) =  -687.717930709     A.U. after    9 cycles
 SCF Done:  E(RB3LYP) =  -687.718032921     A.U. after   12 cycles
 SCF Done:  E(RB3LYP) =  -687.718037169     A.U. after   10 cycles
 SCF Done:  E(RB3LYP) =  -687.718045042     A.U. after   10 cycles
 SCF Done:  E(RB3LYP) =  -687.718045616     A.U. after    9 cycles
 SCF Done:  E(RB3LYP) =  -687.718046286     A.U. after    9 cycles
 SCF Done:  E(RB3LYP) =  -687.718046554     A.U. after    9 cycles
 SCF Done:  E(RB3LYP) =  -687.718046890     A.U. after   10 cycles
 SCF Done:  E(RB3LYP) =  -687.718047663     A.U. after   11 cycles
 SCF Done:  E(RB3LYP) =  -687.718049317     A.U. after   12 cycles
 SCF Done:  E(RB3LYP) =  -687.718050680     A.U. after   12 cycles
 SCF Done:  E(RB3LYP) =  -687.718050875     A.U. after   10 cycles
 SCF Done:  E(RB3LYP) =  -687.718050907     A.U. after    8 cycles
 SCF Done:  E(RB3LYP) =  -687.718050912     A.U. after    8 cycles
 Optimization completed.
    -- Stationary point found.
 Normal termination of Gaussian 09 at Fri Aug 20 15:48:58 2021.

 ----------------------------------------------------------------------
 #P Geom=AllCheck Guess=TCheck SCRF=Check GenChk RB3LYP/6-31G(d,p) Freq
 ----------------------------------------------------------------------

 Structure from the checkpoint file:  "/public/home/users/caep010/.cache/gau_scr/Gau-164796.chk"
 --------
 JABMAD01
 --------
 Charge =  0 Multiplicity = 1

                         Standard orientation:
 ---------------------------------------------------------------------
 Center     Atomic      Atomic             Coordinates (Angstroms)
 Number     Number       Type             X           Y           Z
 ---------------------------------------------------------------------
      1          8           0        3.940283    0.403247   -0.000042
      2          7           0        3.041787   -0.402480   -0.000045
      3          8           0        3.083240   -1.619645   -0.000070
      4          7           0        1.702175    0.138294   -0.000033
      5          6           0        0.556818   -0.611294   -0.000074
      6          6           0       -0.449076    0.326491    0.000042
      7          7           0       -1.825250    0.061388    0.000011
      8          6           0        0.195971    1.597531    0.000181
      9          7           0       -2.298468   -1.217740    0.000244
     10          7           0       -3.584481   -1.128672    0.000128
     11          7           0       -3.994210    0.172363   -0.000176
     12          6           0       -2.894649    0.892347   -0.000250
     13          7           0        1.513393    1.467509    0.000135
     14          1           0       -0.245937    2.584139    0.000334
     15          1           0        0.553642   -1.687447   -0.000214
     16          1           0       -2.834904    1.969411   -0.000470
 ---------------------------------------------------------------------

 SCF Done:  E(RB3LYP) =  -687.718050912     A.U. after    1 cycles

 The electronic state is 1-A.
 Alpha  occ. eigenvalues --  -19.23688 -19.23435 -14.65406 -14.50308 -14.47754
 Alpha  occ. eigenvalues --  -14.42867 -14.41578 -14.41312 -14.38171 -10.29577
 Alpha  occ. eigenvalues --  -10.29274 -10.28644 -10.27545  -1.29897  -1.16212
 Alpha  occ. eigenvalues --   -1.12393  -1.11817  -0.98842  -0.91584  -0.90877
 Alpha  occ. eigenvalues --   -0.85191  -0.75899  -0.70975  -0.69018  -0.64413
 Alpha  occ. eigenvalues --   -0.61899  -0.61163  -0.60281  -0.57837  -0.55467
 Alpha  occ. eigenvalues --   -0.52770  -0.52254  -0.51695  -0.48771  -0.47166
 Alpha  occ. eigenvalues --   -0.39839  -0.38449  -0.37173  -0.36064  -0.35921
 Alpha  occ. eigenvalues --   -0.34196  -0.32755  -0.32068  -0.32019  -0.30531
 Alpha  occ. eigenvalues --   -0.28675
 Alpha virt. eigenvalues --   -0.11519  -0.05689  -0.02206  -0.00005   0.03762
 Alpha virt. eigenvalues --    0.04965   0.07149   0.09755   0.12129   0.12937
 Alpha virt. eigenvalues --    0.14124   0.18735   0.19299   0.19876   0.22833

 Mulliken charges:
               1
     1  O   -0.336375
     2  N    0.682335
     3  O   -0.367897
     4  N   -0.204052
     5  C    0.198807
     6  C    0.192260
     7  N   -0.432371
     8  C    0.146002
     9  N   -0.061712
    10  N   -0.067294
    11  N   -0.317043
    12  C    0.318884
    13  N   -0.253513
    14  H    0.139316
    15  H    0.199722
    16  H    0.162931
 Sum of Mulliken charges =  -0.00000

 Dipole moment (field-independent basis, Debye):
    X=              0.8041    Y=              2.7109    Z=             -0.0005  Tot=              2.8276
 Quadrupole moment (field-independent basis, Debye-Ang):
   XX=           -100.5248   YY=            -70.9859   ZZ=            -70.1436
   XY=            -10.9886   XZ=              0.0006   YZ=              0.0007

  Exact polarizability: 147.839  -3.266  95.160   0.000  -0.001  36.142
 Approx polarizability: 229.722   1.212 193.856   0.001  -0.002  58.259

                      1                      2                      3
                      A                      A                      A
 Frequencies --     11.1349                66.8144               107.7414
 Red. masses --      6.1744                13.3106                10.2038
 Frc consts  --      0.0005                 0.0350                 0.0698
 IR Inten    --      3.8695                 2.3067                 5.3482

                      4                      5                      6
                      A                      A                      A
 Frequencies --    107.8885               162.3081               250.2822
 Red. masses --      6.7515                10.5969                 8.6239
 Frc consts  --      0.0463                 0.1645                 0.3183
 IR Inten    --      5.7280                 1.0353                 1.3479

                      7                      8                      9
                      A                      A                      A
 Frequencies --    319.3275               360.1145               453.9691
 Red. masses --     11.9647                 8.3455                 7.3415
 Frc consts  --      0.7188                 0.6377                 0.8914
 IR Inten    --      6.4369                 0.0426                 0.3431

                     10                     11                     12
                      A                      A                      A
 Frequencies --    504.6397               592.2781               602.3852
 Red. masses --      8.7163                 5.4119                 6.7414
 Frc consts  --      1.3078                 1.1185                 1.4413
 IR Inten    --     11.7453                 1.6268                 0.4175

                     13                     14                     15
                      A                      A                      A
 Frequencies --    655.8176               664.8898               720.4162
 Red. masses --      3.5049                 4.1650                12.8400
 Frc consts  --      0.8882                 1.0848                 3.9263
 IR Inten    --     13.0030                 1.9049                 0.6823

                     16                     17                     18
                      A                      A                      A
 Frequencies --    740.9469               824.1013               825.7690
 Red. masses --     14.1392                 1.3539                13.7866
 Frc consts  --      4.5735                 0.5418                 5.5389
 IR Inten    --     14.2529                18.5362               201.5719

                     19                     20                     21
                      A                      A                      A
 Frequencies --    840.2547               870.7554               952.5304
 Red. masses --      1.4107                 1.3872                 7.7189
 Frc consts  --      0.5868                 0.6197                 4.1263
 IR Inten    --      4.1124                28.5008                45.7724

                     22                     23                     24
                      A                      A                      A
 Frequencies --    974.1751               986.6419              1026.3160
 Red. masses --      5.4282                 5.1232                 8.1826
 Frc consts  --      3.0351                 2.9384                 5.0781
 IR Inten    --     26.8098                10.5217                38.7219

                     25                     26                     27
                      A                      A                      A
 Frequencies --   1054.8741              1097.2195              1126.5228
 Red. masses --      2.1756                 5.1632                 5.5407
 Frc consts  --      1.4264                 3.6623                 4.1428
 IR Inten    --    145.7941                 7.5864               160.8689

                     28                     29                     30
                      A                      A                      A
 Frequencies --   1200.2066              1237.6496              1254.0164
 Red. masses --      1.9286                 2.2282                 2.3935
 Frc consts  --      1.6368                 2.0110                 2.2176
 IR Inten    --      0.6301                81.3882               113.4222

                     31                     32                     33
                      A                      A                      A
 Frequencies --   1320.9586              1347.9413              1389.2591
 Red. masses --      7.4715                 6.5887                 7.2858
 Frc consts  --      7.6813                 7.0532                 8.2851
 IR Inten    --     85.6628               299.1298                35.3440

                     34                     35                     36
                      A                      A                      A
 Frequencies --   1416.3146              1446.7244              1479.9680
 Red. masses --      6.1250                 7.1550                 6.5869
 Frc consts  --      7.2390                 8.8233                 8.5003
 IR Inten    --      4.1873                 2.7030                15.9277

                     37                     38                     39
                      A                      A                      A
 Frequencies --   1518.4110              1655.0586              1754.0543
 Red. masses --      5.5692                 7.5163                14.4270
 Frc consts  --      7.5652                12.1306                26.1524
 IR Inten    --     76.0134                32.9085               251.6100

                     40                     41                     42
                      A                      A                      A
 Frequencies --   3266.7017              3303.0226              3334.1763
 Red. masses --      1.0971                 1.0999                 1.0999
 Frc consts  --      6.8982                 7.0701                 7.2038
 IR Inten    --      0.1820                 2.1446                29.2941

 - Thermochemistry -
 -------------------
 Temperature   298.150 Kelvin.  Pressure   1.00000 Atm.
 Atom     1 has atomic number  8 and mass  15.99491

 Molecular mass:   181.03482 amu.
 Principal axes and moments of inertia in atomic units:
                           1         2         3
     Eigenvalues --   627.381434435.898795063.28020
           X            0.99998  -0.00673   0.00000
           Y            0.00673   0.99998   0.00000
           Z           -0.00000  -0.00000   1.00000
 This molecule is an asymmetric top.
 Rotational symmetry number  1.
 Warning -- assumption of classical behavior for rotation
           may cause significant error
 Rotational temperatures (Kelvin)      0.13806     0.01953     0.01711
 Rotational constants (GHZ):           2.87663     0.40685     0.35644
 Zero-point vibrational energy     262129.2 (Joules/Mol)
                                   62.65038 (Kcal/Mol)
 Warning -- explicit consideration of  12 degrees of freedom as
           vibrations may cause significant error
 Vibrational temperatures:     16.02    96.13   155.02   155.23   233.52
          (Kelvin)            360.10   459.44   518.12   653.16   726.06
                              852.16   866.70   943.57   956.63  1036.52
                             1066.06  1185.70  1188.10  1208.94  1252.82
                             1370.48  1401.62  1419.56  1476.64  1517.73
                             1578.65  1620.81  1726.83  1780.70  1804.25
                             1900.56  1939.38  1998.83  2037.76  2081.51
                             2129.34  2184.65  2381.26  2523.69  4700.05
                             4752.31  4797.13

 Zero-point correction=                           0.099840 (Hartree/Particle)
 Thermal correction to Energy=                    0.109556
 Thermal correction to Enthalpy=                  0.110500
 Thermal correction to Gibbs Free Energy=         0.061564
 Sum of electronic and zero-point Energies=           -687.618211
 Sum of electronic and thermal Energies=              -687.608495
 Sum of electronic and thermal Enthalpies=            -687.607551
 Sum of electronic and thermal Free Energies=         -687.656487

                     E (Thermal)             CV                S
                      KCal/Mol        Cal/Mol-Kelvin    Cal/Mol-Kelvin
 Total                   68.747             34.807            102.995
 Electronic               0.000              0.000              0.000
 Translational            0.889              2.981             41.487
 Rotational               0.889              2.981             31.022
 Vibrational             66.970             28.846             30.486
 Vibration     1          0.593              1.987              7.797
 Vibration     2          0.598              1.970              4.245
 Vibration     3          0.606              1.943              3.309
 Vibration     4          0.606              1.943              3.307
 Vibration     5          0.622              1.889              2.523
 Vibration     6          0.663              1.762              1.729
 Vibration     7          0.705              1.637              1.314
 Vibration     8          0.735              1.554              1.122
 Vibration     9          0.812              1.352              0.784
 Vibration    10          0.860              1.240              0.647
 Vibration    11          0.950              1.048              0.463
 Vibration    12          0.961              1.027              0.446

 Optimization completed.
    -- Stationary point found.
 Normal termination of Gaussian 09 at Fri Aug 20 15:49:22 2021.
