 Gaussian 09, Revision E.01,
 Gaussian 09:  ES64L-G09RevE.01 30-Nov-2015

 -------------------------
 #P OPT Freq B3LYP/6-31G**
 -------------------------

 ------
 DNPIMZ
 ------
 Symbolic Z-matrix:
 Charge =  0 Multiplicity = 1

 SCF Done:  E(RB3LYP) =  -752.857315750     A.U. after   17 cycles
 SCF Done:  E(RB3LYP) =  -753.013111196     A.U. after   14 cycles
 SCF Done:  E(RB3LYP) =  -753.127868364     A.U. after   15 cycles
 SCF Done:  E(RB3LYP) =  -753.134493328     A.U. after   15 cycles
 SCF Done:  E(RB3LYP) =  -753.121698738     A.U. after   16 cycles
 SCF Done:  E(RB3LYP) =  -753.134869549     A.U. after   12 cycles
 SCF Done:  E(RB3LYP) =  -753.135257455     A.U. after   14 cycles
 SCF Done:  E(RB3LYP) =  -753.135068713     A.U. after   14 cycles
 SCF Done:  E(RB3LYP) =  -753.135105902     A.U. after   14 cycles
 SCF Done:  E(RB3LYP) =  -753.135351926     A.U. after   10 cycles
 SCF Done:  E(RB3LYP) =  -753.135450207     A.U. after   13 cycles
 SCF Done:  E(RB3LYP) =  -753.135458524     A.U. after   12 cycles
 SCF Done:  E(RB3LYP) =  -753.135462257     A.U. after   10 cycles
 SCF Done:  E(RB3LYP) =  -753.135462757     A.U. after    9 cycles
 Optimization completed.
    -- Stationary point found.
 Normal termination of Gaussian 09 at Fri Aug 20 15:43:17 2021.

 ----------------------------------------------------------------------
 #P Geom=AllCheck Guess=TCheck SCRF=Check GenChk RB3LYP/6-31G(d,p) Freq
 ----------------------------------------------------------------------

 Structure from the checkpoint file:  "/public/home/users/caep010/.cache/gau_scr/Gau-61759.chk"
 ------
 DNPIMZ
 ------
 Charge =  0 Multiplicity = 1

                         Standard orientation:
 ---------------------------------------------------------------------
 Center     Atomic      Atomic             Coordinates (Angstroms)
 Number     Number       Type             X           Y           Z
 ---------------------------------------------------------------------
      1          6           0       -0.562615   -0.550964   -0.130207
      2          7           0        0.637362   -1.065797   -0.081940
      3          6           0        1.513425   -0.016642    0.006794
      4          6           0        0.894884    1.196057    0.015001
      5          7           0       -0.444530    0.859662   -0.066381
      6          6           0       -1.842939   -1.340664   -0.190660
      7          6           0       -1.565923   -2.744226   -0.749313
      8          1           0       -0.873734   -3.294334   -0.107658
      9          6           0       -2.502970   -1.411408    1.204260
     10          1           0       -1.846261   -1.925515    1.912964
     11          1           0       -3.440365   -1.971269    1.138491
     12          1           0        1.247723    2.210377    0.063915
     13          1           0       -2.529595   -0.817424   -0.862349
     14          1           0       -2.505070   -3.301564   -0.809286
     15          1           0       -1.127233   -2.697944   -1.749482
     16          1           0       -2.733228   -0.417858    1.596258
     17          7           0       -1.468024    1.859419   -0.129661
     18          8           0       -1.071334    3.008967   -0.115268
     19          8           0       -2.615342    1.459432   -0.188707
     20          7           0        2.947055   -0.213865    0.078602
     21          8           0        3.628687    0.812316    0.154712
     22          8           0        3.370683   -1.362380    0.058958
 ---------------------------------------------------------------------

 SCF Done:  E(RB3LYP) =  -753.135462757     A.U. after    1 cycles

 The electronic state is 1-A.
 Alpha  occ. eigenvalues --  -19.24258 -19.24217 -19.19013 -19.18664 -14.66241
 Alpha  occ. eigenvalues --  -14.58302 -14.48716 -14.37146 -10.30773 -10.29089
 Alpha  occ. eigenvalues --  -10.28092 -10.23234 -10.20078 -10.19268  -1.30458
 Alpha  occ. eigenvalues --   -1.23379  -1.12796  -1.08286  -1.06103  -0.95915
 Alpha  occ. eigenvalues --   -0.85528  -0.80607  -0.78898  -0.71999  -0.70441
 Alpha  occ. eigenvalues --   -0.64282  -0.62894  -0.61063  -0.60689  -0.58288
 Alpha  occ. eigenvalues --   -0.56002  -0.54957  -0.54474  -0.51640  -0.50115
 Alpha  occ. eigenvalues --   -0.49106  -0.47614  -0.45846  -0.42266  -0.40384
 Alpha  occ. eigenvalues --   -0.38784  -0.38324  -0.37300  -0.36677  -0.36177
 Alpha  occ. eigenvalues --   -0.34834  -0.34581  -0.32117  -0.31551  -0.31459
 Alpha  occ. eigenvalues --   -0.29894  -0.28388
 Alpha virt. eigenvalues --   -0.12372  -0.08402  -0.01402   0.04089   0.04717
 Alpha virt. eigenvalues --    0.08148   0.10375   0.12512   0.13057   0.13670
 Alpha virt. eigenvalues --    0.14510   0.15212   0.15926   0.17558   0.18055

 Mulliken charges:
               1
     1  C    0.545064
     2  N   -0.485334
     3  C    0.373590
     4  C    0.162608
     5  N   -0.443345
     6  C   -0.120009
     7  C   -0.306929
     8  H    0.137403
     9  C   -0.314620
    10  H    0.122595
    11  H    0.120494
    12  H    0.196894
    13  H    0.130840
    14  H    0.105822
    15  H    0.117987
    16  H    0.115121
    17  N    0.672085
    18  O   -0.354919
    19  O   -0.364208
    20  N    0.360803
    21  O   -0.402343
    22  O   -0.369599
 Sum of Mulliken charges =   0.00000

 Dipole moment (field-independent basis, Debye):
    X=             -4.0923    Y=              0.1781    Z=             -0.0561  Tot=              4.0965
 Quadrupole moment (field-independent basis, Debye-Ang):
   XX=            -95.6077   YY=            -83.9800   ZZ=            -76.3024
   XY=              8.6232   XZ=             -0.8184   YZ=              0.1587

  Exact polarizability: 136.150   0.490 122.385   0.629   1.416  58.613
 Approx polarizability: 211.000  -0.800 228.436   4.834   2.848  87.522

                      1                      2                      3
                      A                      A                      A
 Frequencies --     44.7563                56.5311                85.8660
 Red. masses --      5.4705                13.5901                 3.7858
 Frc consts  --      0.0065                 0.0256                 0.0164
 IR Inten    --      0.1812                 0.0799                 0.3355

                      4                      5                      6
                      A                      A                      A
 Frequencies --    110.1919               133.5421               147.7407
 Red. masses --      6.9142                 5.4930                 5.7556
 Frc consts  --      0.0495                 0.0577                 0.0740
 IR Inten    --      2.6316                 1.9397                 4.8494

                      7                      8                      9
                      A                      A                      A
 Frequencies --    176.1999               229.3481               240.1075
 Red. masses --      5.4023                 1.0514                 3.5726
 Frc consts  --      0.0988                 0.0326                 0.1214
 IR Inten    --      2.1217                 0.0372                 0.0055

                     10                     11                     12
                      A                      A                      A
 Frequencies --    258.5620               288.5672               324.4650
 Red. masses --      1.3369                 3.3043                 4.9686
 Frc consts  --      0.0527                 0.1621                 0.3082
 IR Inten    --      0.9032                 1.4616                 1.0550

                     13                     14                     15
                      A                      A                      A
 Frequencies --    345.2122               397.4440               437.5321
 Red. masses --      9.2798                 5.4217                 3.0722
 Frc consts  --      0.6516                 0.5046                 0.3465
 IR Inten    --      3.5589                 3.3228                 0.8411

                     16                     17                     18
                      A                      A                      A
 Frequencies --    477.5502               544.5235               603.6775
 Red. masses --      5.5786                 8.8199                 4.4886
 Frc consts  --      0.7496                 1.5408                 0.9638
 IR Inten    --      3.0210                 2.0433                 0.1992

                     19                     20                     21
                      A                      A                      A
 Frequencies --    659.8963               687.8205               720.9427
 Red. masses --      5.3901                 4.2976                 5.0401
 Frc consts  --      1.3829                 1.1979                 1.5434
 IR Inten    --     11.2293                 4.7808                17.3395

                     22                     23                     24
                      A                      A                      A
 Frequencies --    748.5038               760.4046               820.5367
 Red. masses --      7.9302                 4.4842                 1.9425
 Frc consts  --      2.6177                 1.5276                 0.7706
 IR Inten    --      0.1919                24.5487                 9.5424

                     25                     26                     27
                      A                      A                      A
 Frequencies --    828.0664               839.1223               891.7448
 Red. masses --     13.6112                 7.3610                 2.7473
 Frc consts  --      5.4989                 3.0538                 1.2872
 IR Inten    --     16.3111               115.0552                 5.9091

                     28                     29                     30
                      A                      A                      A
 Frequencies --    945.6290               976.0090               996.2050
 Red. masses --      1.1704                 1.5333                 8.1698
 Frc consts  --      0.6167                 0.8606                 4.7771
 IR Inten    --      2.0419                 6.5140                34.2219

                     31                     32                     33
                      A                      A                      A
 Frequencies --   1053.1310              1099.9488              1131.9260
 Red. masses --      2.1627                 2.4179                 1.9024
 Frc consts  --      1.4132                 1.7236                 1.4361
 IR Inten    --    192.6230                57.3491                 0.8745

                     34                     35                     36
                      A                      A                      A
 Frequencies --   1135.6037              1201.7238              1227.4674
 Red. masses --      2.3352                 1.9694                 3.0820
 Frc consts  --      1.7743                 1.6757                 2.7359
 IR Inten    --     10.9797                 6.3745               179.5777

                     37                     38                     39
                      A                      A                      A
 Frequencies --   1309.5384              1330.2688              1352.9782
 Red. masses --      7.0327                 1.4119                 6.8921
 Frc consts  --      7.1058                 1.4721                 7.4333
 IR Inten    --     67.3701                 4.2791               311.5608

                     40                     41                     42
                      A                      A                      A
 Frequencies --   1374.2161              1395.2856              1413.3310
 Red. masses --      4.4583                 1.9136                 1.2693
 Frc consts  --      4.9606                 2.1949                 1.4938
 IR Inten    --     16.9921                10.3206                 6.5946

                     43                     44                     45
                      A                      A                      A
 Frequencies --   1414.7744              1435.1171              1501.4695
 Red. masses --     12.3011                 1.2275                 1.0415
 Frc consts  --     14.5067                 1.4896                 1.3833
 IR Inten    --    156.0231                 6.6681                 2.3441

                     46                     47                     48
                      A                      A                      A
 Frequencies --   1503.0493              1516.4735              1523.6875
 Red. masses --      1.0488                 1.0533                 1.0723
 Frc consts  --      1.3960                 1.4272                 1.4668
 IR Inten    --      3.1087                 6.2380                 3.8538

                     49                     50                     51
                      A                      A                      A
 Frequencies --   1582.1813              1599.4489              1656.4758
 Red. masses --      7.7468                 8.5538                13.7717
 Frc consts  --     11.4257                12.8930                22.2642
 IR Inten    --     50.5182                19.6961               174.0252

                     52                     53                     54
                      A                      A                      A
 Frequencies --   1726.8493              3054.3081              3061.8344
 Red. masses --     13.8789                 1.0350                 1.0356
 Frc consts  --     24.3845                 5.6885                 5.7200
 IR Inten    --    315.7998                18.0353                18.1535

                     55                     56                     57
                      A                      A                      A
 Frequencies --   3087.0953              3130.1496              3135.2321
 Red. masses --      1.0838                 1.1033                 1.1032
 Frc consts  --      6.0858                 6.3692                 6.3893
 IR Inten    --      2.8709                10.3205                24.3717

                     58                     59                     60
                      A                      A                      A
 Frequencies --   3140.4327              3147.6640              3346.1421
 Red. masses --      1.1027                 1.1024                 1.1005
 Frc consts  --      6.4075                 6.4351                 7.2595
 IR Inten    --     20.1331                17.2021                35.5526

 - Thermochemistry -
 -------------------
 Temperature   298.150 Kelvin.  Pressure   1.00000 Atm.
 Atom     1 has atomic number  6 and mass  12.00000

 Molecular mass:   200.05455 amu.
 Principal axes and moments of inertia in atomic units:
                           1         2         3
     Eigenvalues --  1889.907053377.607964992.50116
           X            0.99718   0.07480  -0.00620
           Y           -0.07478   0.99719   0.00378
           Z            0.00646  -0.00330   0.99997
 This molecule is an asymmetric top.
 Rotational symmetry number  1.
 Warning -- assumption of classical behavior for rotation
           may cause significant error
 Rotational temperatures (Kelvin)      0.04583     0.02564     0.01735
 Rotational constants (GHZ):           0.95494     0.53433     0.36149
 Zero-point vibrational energy     420873.2 (Joules/Mol)
                                  100.59110 (Kcal/Mol)
 Warning -- explicit consideration of  18 degrees of freedom as
           vibrations may cause significant error
 Vibrational temperatures:     64.39    81.34   123.54   158.54   192.14
          (Kelvin)            212.57   253.51   329.98   345.46   372.01
                              415.18   466.83   496.68   571.83   629.51
                              687.09   783.45   868.56   949.44   989.62
                             1037.27  1076.93  1094.05  1180.57  1191.40
                             1207.31  1283.02  1360.55  1404.26  1433.32
                             1515.22  1582.58  1628.59  1633.88  1729.01
                             1766.05  1884.13  1913.96  1946.63  1977.19
                             2007.50  2033.47  2035.54  2064.81  2160.28
                             2162.55  2181.86  2192.24  2276.40  2301.25
                             2383.30  2484.55  4394.46  4405.29  4441.64
                             4503.58  4510.89  4518.38  4528.78  4814.35

 Zero-point correction=                           0.160302 (Hartree/Particle)
 Thermal correction to Energy=                    0.173213
 Thermal correction to Enthalpy=                  0.174157
 Thermal correction to Gibbs Free Energy=         0.119957
 Sum of electronic and zero-point Energies=           -752.975161
 Sum of electronic and thermal Energies=              -752.962250
 Sum of electronic and thermal Enthalpies=            -752.961305
 Sum of electronic and thermal Free Energies=         -753.015505

                     E (Thermal)             CV                S
                      KCal/Mol        Cal/Mol-Kelvin    Cal/Mol-Kelvin
 Total                  108.693             46.532            114.074
 Electronic               0.000              0.000              0.000
 Translational            0.889              2.981             41.785
 Rotational               0.889              2.981             31.833
 Vibrational            106.915             40.570             40.456
 Vibration     1          0.595              1.979              5.037
 Vibration     2          0.596              1.975              4.575
 Vibration     3          0.601              1.959              3.752
 Vibration     4          0.606              1.941              3.266
 Vibration     5          0.613              1.920              2.894
 Vibration     6          0.617              1.905              2.701
 Vibration     7          0.628              1.872              2.368
 Vibration     8          0.652              1.796              1.884
 Vibration     9          0.657              1.779              1.802
 Vibration    10          0.667              1.748              1.671
 Vibration    11          0.685              1.695              1.482
 Vibration    12          0.709              1.627              1.288
 Vibration    13          0.724              1.585              1.188
 Vibration    14          0.764              1.476              0.972
 Vibration    15          0.798              1.388              0.834
 Vibration    16          0.834              1.300              0.717
 Vibration    17          0.900              1.152              0.556
 Vibration    18          0.962              1.024              0.443

 Normal termination of Gaussian 09 at Fri Aug 20 15:43:56 2021.
