 Gaussian 09, Revision E.01,
 Gaussian 09:  ES64L-G09RevE.01 30-Nov-2015

 -------------------------
 #P OPT Freq B3LYP/6-31G**
 -------------------------

 --------
 QOYJOD06
 --------
 Symbolic Z-matrix:
 Charge =  0 Multiplicity = 1

 SCF Done:  E(RB3LYP) =  -521.925177460     A.U. after   16 cycles
 SCF Done:  E(RB3LYP) =  -521.978122035     A.U. after   14 cycles
 SCF Done:  E(RB3LYP) =  -521.980709674     A.U. after   15 cycles
 SCF Done:  E(RB3LYP) =  -521.967062109     A.U. after   17 cycles
 SCF Done:  E(RB3LYP) =  -521.981710879     A.U. after   13 cycles
 SCF Done:  E(RB3LYP) =  -521.982160519     A.U. after   13 cycles
 SCF Done:  E(RB3LYP) =  -521.982194381     A.U. after   10 cycles
 SCF Done:  E(RB3LYP) =  -521.982199065     A.U. after    9 cycles
 SCF Done:  E(RB3LYP) =  -521.982200372     A.U. after    9 cycles
 Optimization completed.
    -- Stationary point found.
 Normal termination of Gaussian 09 at Fri Aug 20 15:44:00 2021.

 ----------------------------------------------------------------------
 #P Geom=AllCheck Guess=TCheck SCRF=Check GenChk RB3LYP/6-31G(d,p) Freq
 ----------------------------------------------------------------------

 Structure from the checkpoint file:  "/public/home/users/caep010/.cache/gau_scr/Gau-106395.chk"
 --------
 QOYJOD06
 --------
 Charge =  0 Multiplicity = 1

                         Standard orientation:
 ---------------------------------------------------------------------
 Center     Atomic      Atomic             Coordinates (Angstroms)
 Number     Number       Type             X           Y           Z
 ---------------------------------------------------------------------
      1          7           0        0.126606    1.351924   -0.000140
      2          6           0       -0.376286    0.157271    0.000120
      3          7           0        0.561545   -0.835738    0.000207
      4          1           0        0.373697   -1.826920   -0.000463
      5          7           0       -1.791667   -0.134151    0.000056
      6          7           0        1.467307    1.120867   -0.000171
      7          8           0       -2.070629   -1.337918   -0.000292
      8          8           0       -2.576999    0.802175    0.000180
      9          6           0        1.828323   -0.230977    0.000340
     10          8           0        2.929357   -0.732576   -0.000057
     11          1           0        2.113720    1.895394   -0.000617
 ---------------------------------------------------------------------

 SCF Done:  E(RB3LYP) =  -521.982200372     A.U. after    1 cycles

 The electronic state is 1-A.
 Alpha  occ. eigenvalues --  -19.21200 -19.21137 -19.14995 -14.60773 -14.44732
 Alpha  occ. eigenvalues --  -14.43199 -14.42383 -10.35767 -10.33887  -1.25829
 Alpha  occ. eigenvalues --   -1.13498  -1.08653  -1.05738  -0.97220  -0.88518
 Alpha  occ. eigenvalues --   -0.78767  -0.70598  -0.63939  -0.60304  -0.57209
 Alpha  occ. eigenvalues --   -0.56406  -0.54827  -0.52936  -0.51198  -0.45885
 Alpha  occ. eigenvalues --   -0.39841  -0.37820  -0.36922  -0.33958  -0.33678
 Alpha  occ. eigenvalues --   -0.32446  -0.30119  -0.26753
 Alpha virt. eigenvalues --   -0.11635   0.01166   0.02814   0.04917   0.08233
 Alpha virt. eigenvalues --    0.11322   0.14009   0.21968   0.22263   0.23449
 Alpha virt. eigenvalues --    0.29719   0.30536   0.35098   0.46453   0.46954

 Mulliken charges:
               1
     1  N   -0.276670
     2  C    0.749942
     3  N   -0.605603
     4  H    0.312006
     5  N    0.380671
     6  N   -0.388570
     7  O   -0.398221
     8  O   -0.360133
     9  C    0.770056
    10  O   -0.491798
    11  H    0.308319
 Sum of Mulliken charges =   0.00000

 Dipole moment (field-independent basis, Debye):
    X=              1.4866    Y=              0.4622    Z=             -0.0006  Tot=              1.5568
 Quadrupole moment (field-independent basis, Debye-Ang):
   XX=            -63.4268   YY=            -46.9326   ZZ=            -47.5028
   XY=              7.2504   XZ=             -0.0016   YZ=             -0.0005

  Exact polarizability:  85.076   1.779  60.745  -0.002   0.001  23.120
 Approx polarizability: 137.755   1.404 131.661  -0.008   0.004  35.343

                      1                      2                      3
                      A                      A                      A
 Frequencies --     85.4824               143.6333               202.2368
 Red. masses --     11.7035                 8.9005                11.7141
 Frc consts  --      0.0504                 0.1082                 0.2823
 IR Inten    --      0.1853                 1.6037                 4.8778

                      4                      5                      6
                      A                      A                      A
 Frequencies --    300.5431               407.1223               462.7653
 Red. masses --     12.4569                13.5418                 9.2966
 Frc consts  --      0.6629                 1.3224                 1.1730
 IR Inten    --     10.5715                 0.1063                 3.3206

                      7                      8                      9
                      A                      A                      A
 Frequencies --    480.0232               541.0230               578.6881
 Red. masses --      1.5435                 1.1019                 6.2425
 Frc consts  --      0.2096                 0.1900                 1.2317
 IR Inten    --      7.2773               229.9062                 6.0513

                     10                     11                     12
                      A                      A                      A
 Frequencies --    649.0624               730.2504               750.1638
 Red. masses --      3.5965                 9.2468                 8.5741
 Frc consts  --      0.8927                 2.9053                 2.8428
 IR Inten    --     16.4144                10.3600                 3.4503

                     13                     14                     15
                      A                      A                      A
 Frequencies --    751.1745               832.6784               986.9451
 Red. masses --      8.0835                12.0562                 3.0730
 Frc consts  --      2.6874                 4.9251                 1.7636
 IR Inten    --     21.9199                40.8635                14.8187

                     16                     17                     18
                      A                      A                      A
 Frequencies --   1012.3877              1098.7560              1204.7749
 Red. masses --      8.6719                 4.3081                 2.1583
 Frc consts  --      5.2367                 3.0643                 1.8458
 IR Inten    --     16.3619                47.1305                 7.7483

                     19                     20                     21
                      A                      A                      A
 Frequencies --   1274.5452              1388.8366              1395.4279
 Red. masses --      6.5917                 4.3730                 1.8644
 Frc consts  --      6.3089                 4.9697                 2.1390
 IR Inten    --     57.0461               331.4734                 7.8687

                     22                     23                     24
                      A                      A                      A
 Frequencies --   1481.7847              1625.6889              1664.4206
 Red. masses --      5.4064                 9.7880                13.3727
 Frc consts  --      6.9940                15.2412                21.8271
 IR Inten    --     72.5976               146.4999               130.2589

                     25                     26                     27
                      A                      A                      A
 Frequencies --   1886.6453              3677.8319              3683.7948
 Red. masses --     10.3883                 1.0822                 1.0818
 Frc consts  --     21.7860                 8.6243                 8.6491
 IR Inten    --    675.8130               132.4122               133.6871

 - Thermochemistry -
 -------------------
 Temperature   298.150 Kelvin.  Pressure   1.00000 Atm.
 Atom     1 has atomic number  7 and mass  14.00307

 Molecular mass:   130.01269 amu.
 Principal axes and moments of inertia in atomic units:
                           1         2         3
     Eigenvalues --   387.871001564.966611952.83757
           X            0.99995   0.00997  -0.00000
           Y           -0.00997   0.99995  -0.00000
           Z            0.00000   0.00000   1.00000
 This molecule is an asymmetric top.
 Rotational symmetry number  1.
 Rotational temperatures (Kelvin)      0.22331     0.05535     0.04435
 Rotational constants (GHZ):           4.65294     1.15321     0.92416
 Zero-point vibrational energy     175233.1 (Joules/Mol)
                                   41.88172 (Kcal/Mol)
 Warning -- explicit consideration of   9 degrees of freedom as
           vibrations may cause significant error
 Vibrational temperatures:    122.99   206.66   290.97   432.41   585.76
          (Kelvin)            665.82   690.65   778.41   832.60   933.85
                             1050.67  1079.32  1080.77  1198.04  1419.99
                             1456.60  1580.86  1733.40  1833.78  1998.22
                             2007.71  2131.96  2339.00  2394.73  2714.46
                             5291.57  5300.15

 Zero-point correction=                           0.066743 (Hartree/Particle)
 Thermal correction to Energy=                    0.073780
 Thermal correction to Enthalpy=                  0.074724
 Thermal correction to Gibbs Free Energy=         0.034681
 Sum of electronic and zero-point Energies=           -521.915458
 Sum of electronic and thermal Energies=              -521.908421
 Sum of electronic and thermal Enthalpies=            -521.907476
 Sum of electronic and thermal Free Energies=         -521.947519

                     E (Thermal)             CV                S
                      KCal/Mol        Cal/Mol-Kelvin    Cal/Mol-Kelvin
 Total                   46.298             25.234             84.277
 Electronic               0.000              0.000              0.000
 Translational            0.889              2.981             40.500
 Rotational               0.889              2.981             28.563
 Vibrational             44.520             19.273             15.214
 Vibration     1          0.601              1.959              3.761
 Vibration     2          0.616              1.910              2.755
 Vibration     3          0.639              1.837              2.113
 Vibration     4          0.693              1.673              1.414
 Vibration     5          0.772              1.455              0.937
 Vibration     6          0.820              1.333              0.758
 Vibration     7          0.836              1.294              0.710
 Vibration     8          0.896              1.159              0.563
 Vibration     9          0.935              1.077              0.488

 Optimization completed.
    -- Stationary point found.
 Normal termination of Gaussian 09 at Fri Aug 20 15:44:11 2021.
