 Gaussian 09, Revision E.01,
 Gaussian 09:  ES64L-G09RevE.01 30-Nov-2015

 -------------------------
 #P OPT Freq B3LYP/6-31G**
 -------------------------

 ------
 VUBZUN
 ------
 Symbolic Z-matrix:
 Charge =  0 Multiplicity = 1

 SCF Done:  E(RB3LYP) =  -657.373188147     A.U. after   16 cycles
 SCF Done:  E(RB3LYP) =  -657.412671416     A.U. after   14 cycles
 SCF Done:  E(RB3LYP) =  -657.417911847     A.U. after   15 cycles
 SCF Done:  E(RB3LYP) =  -657.418183029     A.U. after   14 cycles
 SCF Done:  E(RB3LYP) =  -657.417731403     A.U. after   13 cycles
 SCF Done:  E(RB3LYP) =  -657.418252507     A.U. after    9 cycles
 SCF Done:  E(RB3LYP) =  -657.418314249     A.U. after   13 cycles
 SCF Done:  E(RB3LYP) =  -657.418342990     A.U. after   11 cycles
 SCF Done:  E(RB3LYP) =  -657.418347431     A.U. after   10 cycles
 SCF Done:  E(RB3LYP) =  -657.418348671     A.U. after    9 cycles
 SCF Done:  E(RB3LYP) =  -657.418349001     A.U. after    9 cycles
 Optimization completed.
    -- Stationary point found.
 Normal termination of Gaussian 09 at Fri Aug 20 15:42:18 2021.

 ----------------------------------------------------------------------
 #P Geom=AllCheck Guess=TCheck SCRF=Check GenChk RB3LYP/6-31G(d,p) Freq
 ----------------------------------------------------------------------

 Structure from the checkpoint file:  "/public/home/users/caep010/.cache/gau_scr/Gau-24308.chk"
 ------
 VUBZUN
 ------
 Charge =  0 Multiplicity = 1

                         Standard orientation:
 ---------------------------------------------------------------------
 Center     Atomic      Atomic             Coordinates (Angstroms)
 Number     Number       Type             X           Y           Z
 ---------------------------------------------------------------------
      1          7           0        1.316973   -0.122205   -0.370681
      2          6           0        0.684462   -1.241711    0.358441
      3          7           0        2.662867    0.144883   -0.183121
      4          8           0        3.383653   -0.826397    0.032263
      5          8           0        3.003097    1.319931   -0.289844
      6          6           0       -0.522119   -0.312085    0.631260
      7          8           0       -1.614382   -0.748423   -0.185965
      8          1           0       -0.842468   -0.211015    1.667550
      9          7           0       -2.765171    0.096969   -0.085028
     10          8           0       -3.683962   -0.291207   -0.756086
     11          8           0       -2.673773    1.066969    0.639893
     12          6           0        0.300489    0.866355    0.052929
     13          1           0        0.676261    1.565612    0.804638
     14          1           0        1.240088   -1.532786    1.253992
     15          1           0        0.482734   -2.118266   -0.259494
     16          1           0       -0.153356    1.416588   -0.772745
 ---------------------------------------------------------------------

 SCF Done:  E(RB3LYP) =  -657.418349001     A.U. after    1 cycles

 The electronic state is 1-A.
 Alpha  occ. eigenvalues --  -19.26066 -19.23548 -19.23282 -19.19005 -19.19001
 Alpha  occ. eigenvalues --  -14.65605 -14.60729 -14.42544 -10.30256 -10.27149
 Alpha  occ. eigenvalues --  -10.26733  -1.30389  -1.25078  -1.12440  -1.10224
 Alpha  occ. eigenvalues --   -1.07031  -1.01103  -0.83997  -0.74659  -0.73032
 Alpha  occ. eigenvalues --   -0.64791  -0.61118  -0.59960  -0.58467  -0.57670
 Alpha  occ. eigenvalues --   -0.56617  -0.56058  -0.53087  -0.50172  -0.47859
 Alpha  occ. eigenvalues --   -0.46618  -0.45757  -0.43494  -0.40538  -0.36761
 Alpha  occ. eigenvalues --   -0.36068  -0.35280  -0.33922  -0.32830  -0.31947
 Alpha  occ. eigenvalues --   -0.30114  -0.29703
 Alpha virt. eigenvalues --   -0.08714  -0.06019   0.01647   0.05815   0.06431
 Alpha virt. eigenvalues --    0.07745   0.10935   0.12775   0.13633   0.15125
 Alpha virt. eigenvalues --    0.16582   0.17921   0.20147   0.23622   0.26038

 Mulliken charges:
               1
     1  N   -0.293667
     2  C   -0.025254
     3  N    0.614017
     4  O   -0.404444
     5  O   -0.401927
     6  C    0.090783
     7  O   -0.392226
     8  H    0.149696
     9  N    0.749963
    10  O   -0.337723
    11  O   -0.361526
    12  C   -0.008448
    13  H    0.151093
    14  H    0.152390
    15  H    0.163672
    16  H    0.153601
 Sum of Mulliken charges =  -0.00000

 Dipole moment (field-independent basis, Debye):
    X=             -1.5987    Y=             -0.8532    Z=              1.8635  Tot=              2.5993
 Quadrupole moment (field-independent basis, Debye-Ang):
   XX=            -84.9502   YY=            -61.8303   ZZ=            -58.6556
   XY=             -0.9434   XZ=             -0.3411   YZ=             -1.9478

  Exact polarizability:  96.959  -1.191  68.861   6.259   1.742  48.339
 Approx polarizability: 132.925  -1.353 132.223  17.007  10.239  82.204

                      1                      2                      3
                      A                      A                      A
 Frequencies --     48.4914                69.4946                89.0054
 Red. masses --      7.1641                10.8589                10.6919
 Frc consts  --      0.0099                 0.0309                 0.0499
 IR Inten    --      5.7114                 1.5178                 1.9827

                      4                      5                      6
                      A                      A                      A
 Frequencies --    134.0312               182.4449               230.1119
 Red. masses --      5.2505                 6.4008                 6.5942
 Frc consts  --      0.0556                 0.1255                 0.2057
 IR Inten    --      1.2837                 2.5164                 2.8782

                      7                      8                      9
                      A                      A                      A
 Frequencies --    239.0693               346.8867               411.8582
 Red. masses --      5.9526                 3.0356                 3.7921
 Frc consts  --      0.2004                 0.2152                 0.3790
 IR Inten    --      7.3616                 8.2535                 1.6990

                     10                     11                     12
                      A                      A                      A
 Frequencies --    508.7516               566.4194               606.7543
 Red. masses --      5.4927                 4.0285                 6.0848
 Frc consts  --      0.8376                 0.7615                 1.3198
 IR Inten    --      5.0588                 0.2867                 6.1209

                     13                     14                     15
                      A                      A                      A
 Frequencies --    691.1801               759.3828               770.9437
 Red. masses --      8.3705                13.7942                11.7149
 Frc consts  --      2.3561                 4.6867                 4.1024
 IR Inten    --     36.7993                17.1565                25.1113

                     16                     17                     18
                      A                      A                      A
 Frequencies --    811.8340               855.0725               874.7123
 Red. masses --      7.6124                 7.6497                 1.9809
 Frc consts  --      2.9560                 3.2954                 0.8930
 IR Inten    --     15.6969               207.2036                32.6105

                     19                     20                     21
                      A                      A                      A
 Frequencies --    887.3968               930.8175              1015.1433
 Red. masses --      2.2642                 4.8197                 3.0820
 Frc consts  --      1.0505                 2.4603                 1.8713
 IR Inten    --     23.8060                48.3379                 7.3445

                     22                     23                     24
                      A                      A                      A
 Frequencies --   1036.7406              1130.3597              1133.5113
 Red. masses --      2.2200                 1.2388                 2.0558
 Frc consts  --      1.4059                 0.9326                 1.5563
 IR Inten    --      1.5515                 6.4416                20.2643

                     25                     26                     27
                      A                      A                      A
 Frequencies --   1165.0744              1171.9266              1204.2154
 Red. masses --      3.3979                 4.1603                 1.5259
 Frc consts  --      2.7175                 3.3665                 1.3037
 IR Inten    --      6.7684                30.3299               137.3235

                     28                     29                     30
                      A                      A                      A
 Frequencies --   1260.1857              1286.1849              1304.5779
 Red. masses --      1.6955                 1.5090                 1.7755
 Frc consts  --      1.5864                 1.4708                 1.7804
 IR Inten    --      2.1440                 2.1184               221.8376

                     31                     32                     33
                      A                      A                      A
 Frequencies --   1340.5874              1383.1006              1406.5497
 Red. masses --      3.3062                 4.1381                 1.9010
 Frc consts  --      3.5009                 4.6640                 2.2158
 IR Inten    --    120.0546               317.7052                23.2176

                     34                     35                     36
                      A                      A                      A
 Frequencies --   1501.8404              1522.3203              1663.7265
 Red. masses --      1.0772                 1.1191                14.3039
 Frc consts  --      1.4314                 1.5280                23.3275
 IR Inten    --      6.4869                 0.2364               255.6942

                     37                     38                     39
                      A                      A                      A
 Frequencies --   1770.8792              3087.9000              3093.4438
 Red. masses --     14.5026                 1.0573                 1.0605
 Frc consts  --     26.7963                 5.9400                 5.9791
 IR Inten    --    375.4810                11.6684                 5.7891

                     40                     41                     42
                      A                      A                      A
 Frequencies --   3145.4193              3154.1678              3156.6229
 Red. masses --      1.0933                 1.1090                 1.1076
 Frc consts  --      6.3729                 6.5007                 6.5027
 IR Inten    --      4.1215                 1.8878                12.2335

 - Thermochemistry -
 -------------------
 Temperature   298.150 Kelvin.  Pressure   1.00000 Atm.
 Atom     1 has atomic number  7 and mass  14.00307

 Molecular mass:   163.02292 amu.
 Principal axes and moments of inertia in atomic units:
                           1         2         3
     Eigenvalues --   500.555453486.029233757.38065
           X            1.00000  -0.00225   0.00082
           Y            0.00226   0.99979  -0.02053
           Z           -0.00077   0.02053   0.99979
 This molecule is an asymmetric top.
 Rotational symmetry number  1.
 Warning -- assumption of classical behavior for rotation
           may cause significant error
 Rotational temperatures (Kelvin)      0.17304     0.02485     0.02305
 Rotational constants (GHZ):           3.60548     0.51771     0.48032
 Zero-point vibrational energy     286799.5 (Joules/Mol)
                                   68.54673 (Kcal/Mol)
 Warning -- explicit consideration of  12 degrees of freedom as
           vibrations may cause significant error
 Vibrational temperatures:     69.77    99.99   128.06   192.84   262.50
          (Kelvin)            331.08   343.97   499.09   592.57   731.98
                              814.95   872.98   994.45  1092.58  1109.21
                             1168.05  1230.26  1258.51  1276.76  1339.24
                             1460.56  1491.64  1626.33  1630.87  1676.28
                             1686.14  1732.60  1813.12  1850.53  1876.99
                             1928.80  1989.97  2023.71  2160.81  2190.28
                             2393.73  2547.90  4442.79  4450.77  4525.55
                             4538.14  4541.67

 Zero-point correction=                           0.109236 (Hartree/Particle)
 Thermal correction to Energy=                    0.118788
 Thermal correction to Enthalpy=                  0.119732
 Thermal correction to Gibbs Free Energy=         0.072740
 Sum of electronic and zero-point Energies=           -657.309113
 Sum of electronic and thermal Energies=              -657.299561
 Sum of electronic and thermal Enthalpies=            -657.298617
 Sum of electronic and thermal Free Energies=         -657.345609

                     E (Thermal)             CV                S
                      KCal/Mol        Cal/Mol-Kelvin    Cal/Mol-Kelvin
 Total                   74.540             33.467             98.903
 Electronic               0.000              0.000              0.000
 Translational            0.889              2.981             41.175
 Rotational               0.889              2.981             30.262
 Vibrational             72.763             27.505             27.466
 Vibration     1          0.595              1.978              4.878
 Vibration     2          0.598              1.969              4.168
 Vibration     3          0.602              1.957              3.682
 Vibration     4          0.613              1.919              2.887
 Vibration     5          0.630              1.864              2.303
 Vibration     6          0.652              1.795              1.878
 Vibration     7          0.657              1.781              1.810
 Vibration     8          0.725              1.582              1.180
 Vibration     9          0.776              1.444              0.920
 Vibration    10          0.864              1.231              0.637
 Vibration    11          0.922              1.104              0.511
 Vibration    12          0.965              1.017              0.438

 Optimization completed.
    -- Stationary point found.
 Normal termination of Gaussian 09 at Fri Aug 20 15:42:39 2021.
