 Gaussian 09, Revision E.01,
 Gaussian 09:  ES64L-G09RevE.01 30-Nov-2015

 -------------------------
 #P OPT Freq B3LYP/6-31G**
 -------------------------

 ------
 NBARBA
 ------
 Symbolic Z-matrix:
 Charge =  0 Multiplicity = 1

 SCF Done:  E(RB3LYP) =  -694.456491273     A.U. after   16 cycles
 SCF Done:  E(RB3LYP) =  -694.537205067     A.U. after   15 cycles
 SCF Done:  E(RB3LYP) =  -694.545489132     A.U. after   16 cycles
 SCF Done:  E(RB3LYP) =  -694.551929852     A.U. after   16 cycles
 SCF Done:  E(RB3LYP) =  -694.553096574     A.U. after   15 cycles
 SCF Done:  E(RB3LYP) =  -694.555896607     A.U. after   14 cycles
 SCF Done:  E(RB3LYP) =  -694.555979769     A.U. after   14 cycles
 SCF Done:  E(RB3LYP) =  -694.556263604     A.U. after   13 cycles
 SCF Done:  E(RB3LYP) =  -694.556319711     A.U. after   12 cycles
 SCF Done:  E(RB3LYP) =  -694.556348804     A.U. after   12 cycles
 SCF Done:  E(RB3LYP) =  -694.556358244     A.U. after   10 cycles
 SCF Done:  E(RB3LYP) =  -694.556361839     A.U. after   10 cycles
 SCF Done:  E(RB3LYP) =  -694.556362519     A.U. after    9 cycles
 SCF Done:  E(RB3LYP) =  -694.556362956     A.U. after    9 cycles
 Optimization completed.
    -- Stationary point found.
 Normal termination of Gaussian 09 at Fri Aug 20 16:00:39 2021.

 ----------------------------------------------------------------------
 #P Geom=AllCheck Guess=TCheck SCRF=Check GenChk RB3LYP/6-31G(d,p) Freq
 ----------------------------------------------------------------------

 Structure from the checkpoint file:  "/public/home/users/caep010/.cache/gau_scr/Gau-177804.chk"
 ------
 NBARBA
 ------
 Charge =  0 Multiplicity = 1

                         Standard orientation:
 ---------------------------------------------------------------------
 Center     Atomic      Atomic             Coordinates (Angstroms)
 Number     Number       Type             X           Y           Z
 ---------------------------------------------------------------------
      1          6           0        2.262329   -0.064388   -0.000213
      2          7           0        1.566946    1.122833    0.000239
      3          1           0        2.128914    1.965862    0.000596
      4          6           0        0.165879    1.339975    0.000285
      5          6           0       -0.597195    0.086841   -0.000232
      6          6           0        0.064029   -1.151369    0.000103
      7          7           0        1.419514   -1.190647   -0.000222
      8          1           0        1.876094   -2.094573    0.000627
      9          7           0       -2.015936    0.092881   -0.000233
     10          8           0        3.469100   -0.171487   -0.000469
     11          8           0       -0.534994   -2.306100    0.000294
     12          1           0       -1.541786   -2.042808    0.000631
     13          8           0       -0.260318    2.474912    0.000758
     14          8           0       -2.610599   -1.041039    0.000496
     15          8           0       -2.641582    1.134927   -0.001078
 ---------------------------------------------------------------------

 SCF Done:  E(RB3LYP) =  -694.556362956     A.U. after    1 cycles

 The electronic state is 1-A.
 Alpha  occ. eigenvalues --  -19.23652 -19.20584 -19.20427 -19.16605 -19.15471
 Alpha  occ. eigenvalues --  -14.60053 -14.44273 -14.41680 -10.37811 -10.37574
 Alpha  occ. eigenvalues --  -10.34329 -10.27821  -1.24690  -1.15052  -1.10844
 Alpha  occ. eigenvalues --   -1.07605  -1.06576  -1.00974  -0.95767  -0.87572
 Alpha  occ. eigenvalues --   -0.75037  -0.71746  -0.69713  -0.63089  -0.61206
 Alpha  occ. eigenvalues --   -0.58498  -0.56095  -0.55340  -0.53093  -0.51944
 Alpha  occ. eigenvalues --   -0.51822  -0.47181  -0.46622  -0.46563  -0.43760
 Alpha  occ. eigenvalues --   -0.43154  -0.35552  -0.34361  -0.33330  -0.32637
 Alpha  occ. eigenvalues --   -0.32094  -0.31289  -0.28677  -0.28452
 Alpha virt. eigenvalues --   -0.10297  -0.04680  -0.01044   0.04536   0.08330
 Alpha virt. eigenvalues --    0.09588   0.10441   0.12924   0.16803   0.18553
 Alpha virt. eigenvalues --    0.20630   0.23199   0.24499   0.27908   0.31900

 Mulliken charges:
               1
     1  C    0.757066
     2  N   -0.619133
     3  H    0.304686
     4  C    0.615372
     5  C    0.144195
     6  C    0.604349
     7  N   -0.616693
     8  H    0.312392
     9  N    0.353832
    10  O   -0.465538
    11  O   -0.517413
    12  H    0.402626
    13  O   -0.451809
    14  O   -0.482479
    15  O   -0.341451
 Sum of Mulliken charges =  -0.00000

 Dipole moment (field-independent basis, Debye):
    X=              2.3449    Y=             -2.9404    Z=              0.0022  Tot=              3.7609
 Quadrupole moment (field-independent basis, Debye-Ang):
   XX=            -81.4070   YY=            -67.9392   ZZ=            -63.5689
   XY=              3.8646   XZ=              0.0049   YZ=             -0.0033

  Exact polarizability: 111.950  -6.398  90.703   0.000  -0.006  30.846
 Approx polarizability: 182.779 -24.612 178.756  -0.002  -0.023  47.942

                      1                      2                      3
                      A                      A                      A
 Frequencies --     62.9165               101.7742               136.9854
 Red. masses --     14.6747                13.1086                10.5630
 Frc consts  --      0.0342                 0.0800                 0.1168
 IR Inten    --      0.3149                 0.9366                 1.8344

                      4                      5                      6
                      A                      A                      A
 Frequencies --    189.1053               241.6653               268.2810
 Red. masses --      8.6920                10.1522                13.1118
 Frc consts  --      0.1831                 0.3493                 0.5560
 IR Inten    --      0.0365                 0.4914                 7.0564

                      7                      8                      9
                      A                      A                      A
 Frequencies --    357.0164               373.5907               408.8413
 Red. masses --      6.4268                12.7829                 8.8379
 Frc consts  --      0.4826                 1.0512                 0.8704
 IR Inten    --     12.2481                12.6725                 8.0583

                     10                     11                     12
                      A                      A                      A
 Frequencies --    471.5302               516.4391               600.6690
 Red. masses --     13.1994                 9.1472                 1.1648
 Frc consts  --      1.7291                 1.4374                 0.2476
 IR Inten    --      8.0014                25.4007                32.9071

                     13                     14                     15
                      A                      A                      A
 Frequencies --    606.7999               655.1767               677.6421
 Red. masses --      9.5715                 1.3204                 4.9014
 Frc consts  --      2.0765                 0.3339                 1.3261
 IR Inten    --     18.9956               118.2506                 3.5057

                     16                     17                     18
                      A                      A                      A
 Frequencies --    688.8377               692.1325               722.2269
 Red. masses --      9.0234                 5.1804                 6.1013
 Frc consts  --      2.5226                 1.4622                 1.8751
 IR Inten    --     14.8051                 1.3422                12.0663

                     19                     20                     21
                      A                      A                      A
 Frequencies --    738.5819               757.6336               850.8242
 Red. masses --      8.4936                12.6677                10.2585
 Frc consts  --      2.7299                 4.2842                 4.3754
 IR Inten    --     83.9257                14.3817                13.4127

                     22                     23                     24
                      A                      A                      A
 Frequencies --   1004.2674              1025.0605              1108.4486
 Red. masses --      3.3337                 1.0622                 4.7303
 Frc consts  --      1.9809                 0.6576                 3.4243
 IR Inten    --     14.4081                89.8749                40.3267

                     25                     26                     27
                      A                      A                      A
 Frequencies --   1146.5391              1236.1907              1251.9674
 Red. masses --      3.8712                 5.8044                 7.9938
 Frc consts  --      2.9983                 5.2261                 7.3823
 IR Inten    --     91.5995               109.2814                22.4189

                     28                     29                     30
                      A                      A                      A
 Frequencies --   1354.3812              1396.2425              1400.2573
 Red. masses --      1.7411                 1.7475                10.6344
 Frc consts  --      1.8817                 2.0072                12.2851
 IR Inten    --     70.1469                23.7298               162.9028

                     31                     32                     33
                      A                      A                      A
 Frequencies --   1447.5286              1575.3062              1649.4141
 Red. masses --      2.6265                 8.3293                 7.8572
 Frc consts  --      3.2425                12.1783                12.5945
 IR Inten    --     79.2725               674.3288               448.7887

                     34                     35                     36
                      A                      A                      A
 Frequencies --   1683.8212              1823.8713              1861.7688
 Red. masses --      2.7443                 9.9989                 9.3700
 Frc consts  --      4.5843                19.5971                19.1356
 IR Inten    --    303.5451               475.6908               599.3556

                     37                     38                     39
                      A                      A                      A
 Frequencies --   2574.8262              3618.7136              3624.2924
 Red. masses --      1.0827                 1.0777                 1.0787
 Frc consts  --      4.2290                 8.3146                 8.3481
 IR Inten    --    503.6447                99.3715               131.2208

 - Thermochemistry -
 -------------------
 Temperature   298.150 Kelvin.  Pressure   1.00000 Atm.
 Atom     1 has atomic number  6 and mass  12.00000

 Molecular mass:   173.00727 amu.
 Principal axes and moments of inertia in atomic units:
                           1         2         3
     Eigenvalues --  1103.893002195.751313299.64401
           X            0.99994   0.01095   0.00000
           Y           -0.01095   0.99994  -0.00000
           Z           -0.00000   0.00000   1.00000
 This molecule is an asymmetric top.
 Rotational symmetry number  1.
 Warning -- assumption of classical behavior for rotation
           may cause significant error
 Rotational temperatures (Kelvin)      0.07846     0.03945     0.02625
 Rotational constants (GHZ):           1.63489     0.82192     0.54695
 Zero-point vibrational energy     244645.7 (Joules/Mol)
                                   58.47173 (Kcal/Mol)
 Warning -- explicit consideration of  13 degrees of freedom as
           vibrations may cause significant error
 Vibrational temperatures:     90.52   146.43   197.09   272.08   347.70
          (Kelvin)            386.00   513.67   537.51   588.23   678.43
                              743.04   864.23   873.05   942.65   974.97
                              991.08   995.82  1039.12  1062.65  1090.06
                             1224.14  1444.92  1474.83  1594.81  1649.61
                             1778.60  1801.30  1948.65  2008.88  2014.66
                             2082.67  2266.51  2373.14  2422.64  2624.14
                             2678.67  3704.60  5206.52  5214.54

 Zero-point correction=                           0.093181 (Hartree/Particle)
 Thermal correction to Energy=                    0.102550
 Thermal correction to Enthalpy=                  0.103494
 Thermal correction to Gibbs Free Energy=         0.057791
 Sum of electronic and zero-point Energies=           -694.463182
 Sum of electronic and thermal Energies=              -694.453813
 Sum of electronic and thermal Enthalpies=            -694.452869
 Sum of electronic and thermal Free Energies=         -694.498572

                     E (Thermal)             CV                S
                      KCal/Mol        Cal/Mol-Kelvin    Cal/Mol-Kelvin
 Total                   64.351             34.802             96.191
 Electronic               0.000              0.000              0.000
 Translational            0.889              2.981             41.352
 Rotational               0.889              2.981             30.459
 Vibrational             62.574             28.840             24.380
 Vibration     1          0.597              1.972              4.364
 Vibration     2          0.604              1.948              3.420
 Vibration     3          0.614              1.916              2.846
 Vibration     4          0.633              1.855              2.237
 Vibration     5          0.658              1.777              1.791
 Vibration     6          0.673              1.731              1.607
 Vibration     7          0.732              1.561              1.135
 Vibration     8          0.745              1.526              1.065
 Vibration     9          0.773              1.451              0.931
 Vibration    10          0.828              1.313              0.733
 Vibration    11          0.871              1.214              0.618
 Vibration    12          0.959              1.030              0.449
 Vibration    13          0.966              1.017              0.438

 Normal termination of Gaussian 09 at Fri Aug 20 16:01:00 2021.
