 Gaussian 09, Revision E.01,
 Gaussian 09:  ES64L-G09RevE.01 30-Nov-2015

 -------------------------
 #P OPT Freq B3LYP/6-31G**
 -------------------------

 ------
 NAPHAP
 ------
 Symbolic Z-matrix:
 Charge =  0 Multiplicity = 1

 SCF Done:  E(RB3LYP) =  -665.616192950     A.U. after   18 cycles
 SCF Done:  E(RB3LYP) =  -665.671353486     A.U. after   15 cycles
 SCF Done:  E(RB3LYP) =  -665.672698247     A.U. after   16 cycles
 SCF Done:  E(RB3LYP) =  -665.676875997     A.U. after   16 cycles
 SCF Done:  E(RB3LYP) =  -665.677678837     A.U. after   14 cycles
 SCF Done:  E(RB3LYP) =  -665.677728648     A.U. after   13 cycles
 SCF Done:  E(RB3LYP) =  -665.677747676     A.U. after   12 cycles
 SCF Done:  E(RB3LYP) =  -665.677756026     A.U. after   10 cycles
 SCF Done:  E(RB3LYP) =  -665.677757411     A.U. after    9 cycles
 SCF Done:  E(RB3LYP) =  -665.677757820     A.U. after    9 cycles
 SCF Done:  E(RB3LYP) =  -665.677758038     A.U. after    8 cycles
 Optimization completed.
    -- Stationary point found.
 Normal termination of Gaussian 09 at Fri Aug 20 15:54:27 2021.

 ----------------------------------------------------------------------
 #P Geom=AllCheck Guess=TCheck SCRF=Check GenChk RB3LYP/6-31G(d,p) Freq
 ----------------------------------------------------------------------

 Structure from the checkpoint file:  "/public/home/users/caep010/.cache/gau_scr/Gau-78917.chk"
 ------
 NAPHAP
 ------
 Charge =  0 Multiplicity = 1

                         Standard orientation:
 ---------------------------------------------------------------------
 Center     Atomic      Atomic             Coordinates (Angstroms)
 Number     Number       Type             X           Y           Z
 ---------------------------------------------------------------------
      1          7           0       -1.127922    0.974098    0.000143
      2          6           0       -1.466736   -0.284149    0.000336
      3          7           0        0.251145    0.933857   -0.000379
      4          1           0        0.836586    1.757678   -0.000239
      5          7           0       -2.736023   -0.839263    0.001004
      6          6           0        0.752607   -0.325000   -0.000381
      7          7           0        1.956555   -0.866603   -0.000826
      8          7           0        3.006099    0.029825   -0.000011
      9          8           0        4.123701   -0.464230    0.000050
     10          7           0       -0.374589   -1.116179   -0.000047
     11          1           0       -0.362888   -2.125307    0.000558
     12          7           0       -3.687421   -0.030215    0.000011
     13          7           0       -4.645340    0.574459   -0.000679
     14          8           0        2.790494    1.264564    0.000631
 ---------------------------------------------------------------------

 SCF Done:  E(RB3LYP) =  -665.677758038     A.U. after    1 cycles

 The electronic state is 1-A.
 Alpha  occ. eigenvalues --  -19.16460 -19.16301 -14.58224 -14.57342 -14.47690
 Alpha  occ. eigenvalues --  -14.45004 -14.44685 -14.44465 -14.40638 -14.36778
 Alpha  occ. eigenvalues --  -10.35166 -10.34781  -1.22024  -1.20432  -1.13447
 Alpha  occ. eigenvalues --   -1.05088  -1.03617  -0.98585  -0.95524  -0.87435
 Alpha  occ. eigenvalues --   -0.76216  -0.72037  -0.69126  -0.60302  -0.59360
 Alpha  occ. eigenvalues --   -0.57239  -0.55917  -0.54381  -0.53922  -0.53787
 Alpha  occ. eigenvalues --   -0.51121  -0.50489  -0.49296  -0.39571  -0.38304
 Alpha  occ. eigenvalues --   -0.37615  -0.37552  -0.34468  -0.31350  -0.29962
 Alpha  occ. eigenvalues --   -0.29644  -0.26796  -0.25014
 Alpha virt. eigenvalues --   -0.08234  -0.07008  -0.05781   0.03209   0.03788
 Alpha virt. eigenvalues --    0.05182   0.08471   0.11108   0.12554   0.14950
 Alpha virt. eigenvalues --    0.20228   0.22307   0.26282   0.32355   0.32809

 Mulliken charges:
               1
     1  N   -0.327398
     2  C    0.768828
     3  N   -0.408386
     4  H    0.327673
     5  N   -0.457303
     6  C    0.869543
     7  N   -0.457299
     8  N    0.600577
     9  O   -0.398672
    10  N   -0.625028
    11  H    0.310687
    12  N    0.449372
    13  N   -0.180002
    14  O   -0.472592
 Sum of Mulliken charges =   0.00000

 Dipole moment (field-independent basis, Debye):
    X=             -6.0182    Y=             -1.3034    Z=              0.0002  Tot=              6.1577
 Quadrupole moment (field-independent basis, Debye-Ang):
   XX=            -86.9438   YY=            -63.8269   ZZ=            -63.9806
   XY=              4.6760   XZ=             -0.0013   YZ=             -0.0047

  Exact polarizability: 163.212 -12.130  69.925   0.010  -0.004  30.803
 Approx polarizability: 253.622 -43.695 150.601   0.031  -0.014  47.529

                      1                      2                      3
                      A                      A                      A
 Frequencies --     49.7608                93.6577               103.2384
 Red. masses --     13.2906                11.9149                12.9439
 Frc consts  --      0.0194                 0.0616                 0.0813
 IR Inten    --      0.3232                 0.3292                 1.6615

                      4                      5                      6
                      A                      A                      A
 Frequencies --    113.8839               218.3943               254.0255
 Red. masses --     13.6370                10.0647                10.3635
 Frc consts  --      0.1042                 0.2828                 0.3940
 IR Inten    --      0.9113                 2.6425                 0.3583

                      7                      8                      9
                      A                      A                      A
 Frequencies --    306.0833               355.3691               447.0883
 Red. masses --     13.5243                11.9100                11.8270
 Frc consts  --      0.7465                 0.8862                 1.3929
 IR Inten    --      0.0351                 3.8717                 3.5908

                     10                     11                     12
                      A                      A                      A
 Frequencies --    465.8491               511.7743               533.5629
 Red. masses --      7.1794                 1.2722                10.7814
 Frc consts  --      0.9180                 0.1963                 1.8084
 IR Inten    --      6.8129                75.5985                 4.9617

                     13                     14                     15
                      A                      A                      A
 Frequencies --    583.6181               605.5670               683.4832
 Red. masses --      8.8841                 1.3268                 3.2878
 Frc consts  --      1.7829                 0.2867                 0.9049
 IR Inten    --      7.6944               156.6461                17.7737

                     16                     17                     18
                      A                      A                      A
 Frequencies --    723.6958               760.4621               777.9241
 Red. masses --      7.2627                10.7164                13.7058
 Frc consts  --      2.2411                 3.6513                 4.8868
 IR Inten    --      1.0527                 0.5902                15.0946

                     19                     20                     21
                      A                      A                      A
 Frequencies --    797.4120               847.7570               978.9711
 Red. masses --     12.1782                 9.5750                 7.8563
 Frc consts  --      4.5625                 4.0544                 4.4362
 IR Inten    --     11.6456                 7.2343               110.1398

                     22                     23                     24
                      A                      A                      A
 Frequencies --   1022.4503              1078.2774              1128.3162
 Red. masses --      4.9315                 2.8050                 3.7305
 Frc consts  --      3.0375                 1.9215                 2.7982
 IR Inten    --     39.5355                 6.1471                35.0221

                     25                     26                     27
                      A                      A                      A
 Frequencies --   1210.5044              1250.6635              1351.1372
 Red. masses --      2.5596                 4.7752                 4.3190
 Frc consts  --      2.2098                 4.4007                 4.6455
 IR Inten    --      2.0290               257.6951               341.9255

                     28                     29                     30
                      A                      A                      A
 Frequencies --   1357.8576              1401.5303              1514.8738
 Red. masses --      3.6658                 7.7427                 7.3597
 Frc consts  --      3.9823                 8.9609                 9.9509
 IR Inten    --    240.6381                 6.7624                90.9065

                     31                     32                     33
                      A                      A                      A
 Frequencies --   1621.3084              1638.0009              1678.0681
 Red. masses --      9.7780                12.4325                 6.1416
 Frc consts  --     15.1437                19.6533                10.1894
 IR Inten    --    803.4258               218.5556               562.7455

                     34                     35                     36
                      A                      A                      A
 Frequencies --   2311.0085              3650.7568              3675.2167
 Red. masses --     13.9923                 1.0826                 1.0823
 Frc consts  --     44.0293                 8.5013                 8.6135
 IR Inten    --    634.4377               161.8600               131.8432

 - Thermochemistry -
 -------------------
 Temperature   298.150 Kelvin.  Pressure   1.00000 Atm.
 Atom     1 has atomic number  7 and mass  14.00307

 Molecular mass:   170.03007 amu.
 Principal axes and moments of inertia in atomic units:
                           1         2         3
     Eigenvalues --   381.720484385.999784767.71996
           X            1.00000   0.00200  -0.00000
           Y           -0.00200   1.00000  -0.00001
           Z            0.00000   0.00001   1.00000
 This molecule is an asymmetric top.
 Rotational symmetry number  1.
 Rotational temperatures (Kelvin)      0.22690     0.01975     0.01817
 Rotational constants (GHZ):           4.72791     0.41148     0.37853
 Zero-point vibrational energy     215935.2 (Joules/Mol)
                                   51.60975 (Kcal/Mol)
 Warning -- explicit consideration of  14 degrees of freedom as
           vibrations may cause significant error
 Vibrational temperatures:     71.59   134.75   148.54   163.85   314.22
          (Kelvin)            365.49   440.39   511.30   643.26   670.25
                              736.33   767.68   839.70   871.27   983.38
                             1041.24  1094.13  1119.26  1147.30  1219.73
                             1408.52  1471.08  1551.40  1623.39  1741.64
                             1799.42  1943.98  1953.65  2016.49  2179.56
                             2332.70  2356.72  2414.36  3325.02  5252.62
                             5287.81

 Zero-point correction=                           0.082245 (Hartree/Particle)
 Thermal correction to Energy=                    0.091872
 Thermal correction to Enthalpy=                  0.092816
 Thermal correction to Gibbs Free Energy=         0.045981
 Sum of electronic and zero-point Energies=           -665.595513
 Sum of electronic and thermal Energies=              -665.585886
 Sum of electronic and thermal Enthalpies=            -665.584942
 Sum of electronic and thermal Free Energies=         -665.631777

                     E (Thermal)             CV                S
                      KCal/Mol        Cal/Mol-Kelvin    Cal/Mol-Kelvin
 Total                   57.650             34.278             98.573
 Electronic               0.000              0.000              0.000
 Translational            0.889              2.981             41.300
 Rotational               0.889              2.981             30.458
 Vibrational             55.873             28.316             26.815
 Vibration     1          0.595              1.978              4.827
 Vibration     2          0.603              1.954              3.582
 Vibration     3          0.605              1.947              3.392
 Vibration     4          0.607              1.938              3.202
 Vibration     5          0.646              1.813              1.972
 Vibration     6          0.665              1.756              1.702
 Vibration     7          0.696              1.662              1.383
 Vibration     8          0.731              1.564              1.142
 Vibration     9          0.806              1.367              0.805
 Vibration    10          0.823              1.326              0.749
 Vibration    11          0.867              1.224              0.629
 Vibration    12          0.889              1.176              0.579
 Vibration    13          0.941              1.067              0.479
 Vibration    14          0.964              1.020              0.440

 Optimization completed.
    -- Stationary point found.
 Normal termination of Gaussian 09 at Fri Aug 20 15:54:45 2021.
