 Gaussian 09, Revision E.01,
 Gaussian 09:  ES64L-G09RevE.01 30-Nov-2015

 -------------------------
 #P OPT Freq B3LYP/6-31G**
 -------------------------

 ------
 WOQXOR
 ------
 Symbolic Z-matrix:
 Charge =  0 Multiplicity = 1

 SCF Done:  E(RB3LYP) =  -680.493109253     A.U. after   16 cycles
 SCF Done:  E(RB3LYP) =  -680.582816226     A.U. after   13 cycles
 SCF Done:  E(RB3LYP) =  -680.614550469     A.U. after   15 cycles
 SCF Done:  E(RB3LYP) =  -680.605971681     A.U. after   16 cycles
 SCF Done:  E(RB3LYP) =  -680.615550534     A.U. after   11 cycles
 SCF Done:  E(RB3LYP) =  -680.615845117     A.U. after   14 cycles
 SCF Done:  E(RB3LYP) =  -680.616455779     A.U. after   14 cycles
 SCF Done:  E(RB3LYP) =  -680.616733804     A.U. after   12 cycles
 SCF Done:  E(RB3LYP) =  -680.616765120     A.U. after   12 cycles
 SCF Done:  E(RB3LYP) =  -680.616770254     A.U. after   11 cycles
 SCF Done:  E(RB3LYP) =  -680.616771149     A.U. after    9 cycles
 SCF Done:  E(RB3LYP) =  -680.616771910     A.U. after    9 cycles
 SCF Done:  E(RB3LYP) =  -680.616772075     A.U. after    8 cycles
 SCF Done:  E(RB3LYP) =  -680.616772102     A.U. after    8 cycles
 Optimization completed.
    -- Stationary point found.
 Normal termination of Gaussian 09 at Fri Aug 20 15:49:35 2021.

 ----------------------------------------------------------------------
 #P Geom=AllCheck Guess=TCheck SCRF=Check GenChk RB3LYP/6-31G(d,p) Freq
 ----------------------------------------------------------------------

 Structure from the checkpoint file:  "/public/home/users/caep010/.cache/gau_scr/Gau-26517.chk"
 ------
 WOQXOR
 ------
 Charge =  0 Multiplicity = 1

                         Standard orientation:
 ---------------------------------------------------------------------
 Center     Atomic      Atomic             Coordinates (Angstroms)
 Number     Number       Type             X           Y           Z
 ---------------------------------------------------------------------
      1          6           0       -2.541356   -0.582153    0.000059
      2          1           0       -2.611424   -1.672342    0.000178
      3          6           0       -1.211650    0.029820    0.000055
      4          7           0       -3.600605    0.139852   -0.000053
      5          8           0       -4.749023   -0.656360   -0.000065
      6          1           0       -5.460760   -0.001592   -0.000067
      7          6           0       -1.029472    1.435871    0.000052
      8          1           0       -1.908008    2.071863    0.000081
      9          6           0        0.229586    1.996885    0.000029
     10          1           0        0.371483    3.071912    0.000033
     11          6           0        1.385131    1.188254   -0.000006
     12          6           0        1.199397   -0.216014    0.000015
     13          8           0        2.575063    1.788313   -0.000067
     14          6           0       -0.083726   -0.780573    0.000035
     15          1           0       -0.164585   -1.861093    0.000059
     16          7           0        2.336377   -1.108413   -0.000006
     17          1           0        3.249571    1.065221   -0.000100
     18          8           0        3.484943   -0.603329    0.000010
     19          8           0        2.149749   -2.319447   -0.000029
 ---------------------------------------------------------------------

 SCF Done:  E(RB3LYP) =  -680.616772102     A.U. after    1 cycles

 The electronic state is 1-A.
 Alpha  occ. eigenvalues --  -19.20226 -19.19946 -19.19945 -19.19852 -14.58946
 Alpha  occ. eigenvalues --  -14.39856 -10.29718 -10.26402 -10.23891 -10.23033
 Alpha  occ. eigenvalues --  -10.22739 -10.22662 -10.21763  -1.23926  -1.09451
 Alpha  occ. eigenvalues --   -1.09431  -1.06099  -0.90424  -0.87498  -0.82208
 Alpha  occ. eigenvalues --   -0.78025  -0.71482  -0.66295  -0.63901  -0.60212
 Alpha  occ. eigenvalues --   -0.56928  -0.55022  -0.54771  -0.53720  -0.52686
 Alpha  occ. eigenvalues --   -0.50347  -0.47432  -0.46292  -0.45669  -0.43994
 Alpha  occ. eigenvalues --   -0.42373  -0.41279  -0.40840  -0.37799  -0.37216
 Alpha  occ. eigenvalues --   -0.32726  -0.32387  -0.30994  -0.29757  -0.29338
 Alpha  occ. eigenvalues --   -0.28849  -0.23438
 Alpha virt. eigenvalues --   -0.10362  -0.05377  -0.01579   0.04224   0.06086
 Alpha virt. eigenvalues --    0.08491   0.10493   0.13015   0.13341   0.15125
 Alpha virt. eigenvalues --    0.16150   0.16937   0.19700   0.22217   0.24085

 Mulliken charges:
               1
     1  C    0.136457
     2  H    0.107549
     3  C    0.081522
     4  N   -0.217448
     5  O   -0.405476
     6  H    0.337075
     7  C   -0.087474
     8  H    0.126067
     9  C   -0.109446
    10  H    0.119504
    11  C    0.330358
    12  C    0.225367
    13  O   -0.542658
    14  C   -0.150897
    15  H    0.140158
    16  N    0.389959
    17  H    0.359993
    18  O   -0.454468
    19  O   -0.386140
 Sum of Mulliken charges =  -0.00000

 Dipole moment (field-independent basis, Debye):
    X=             -2.8763    Y=              1.7846    Z=              0.0002  Tot=              3.3849
 Quadrupole moment (field-independent basis, Debye-Ang):
   XX=            -71.7396   YY=            -74.7092   ZZ=            -73.2155
   XY=              0.6647   XZ=             -0.0008   YZ=             -0.0002

  Exact polarizability: 184.532  -1.818 114.592   0.000  -0.001  36.184
 Approx polarizability: 305.444   0.806 220.127   0.001  -0.001  56.739

                      1                      2                      3
                      A                      A                      A
 Frequencies --     64.2032                91.5194               116.4686
 Red. masses --      6.8559                 6.2367                 7.0300
 Frc consts  --      0.0167                 0.0308                 0.0562
 IR Inten    --      0.0191                 0.3631                 2.2061

                      4                      5                      6
                      A                      A                      A
 Frequencies --    135.3032               164.2828               243.6756
 Red. masses --      5.3681                 4.7128                 8.7807
 Frc consts  --      0.0579                 0.0749                 0.3072
 IR Inten    --      0.0100                 0.9887                 0.6232

                      7                      8                      9
                      A                      A                      A
 Frequencies --    265.5880               340.9508               365.0787
 Red. masses --      8.2330                 9.6112                 7.4811
 Frc consts  --      0.3422                 0.6583                 0.5875
 IR Inten    --      1.6263                 0.8988                 9.3764

                     10                     11                     12
                      A                      A                      A
 Frequencies --    391.0999               428.7672               441.4310
 Red. masses --      3.9684                 1.1557                 7.6452
 Frc consts  --      0.3576                 0.1252                 0.8777
 IR Inten    --      8.9477               130.3734                 1.5585

                     13                     14                     15
                      A                      A                      A
 Frequencies --    444.0232               445.8015               571.7425
 Red. masses --      4.0797                 6.7329                 5.7490
 Frc consts  --      0.4739                 0.7884                 1.1072
 IR Inten    --      0.0012                 1.6761                12.3460

                     16                     17                     18
                      A                      A                      A
 Frequencies --    575.2383               632.8419               706.2363
 Red. masses --      3.1661                 7.1389                 4.9486
 Frc consts  --      0.6173                 1.6845                 1.4542
 IR Inten    --     12.2030                29.6005                 0.0337

                     19                     20                     21
                      A                      A                      A
 Frequencies --    720.5839               757.3222               792.0106
 Red. masses --      8.0777                 9.5129                 1.0932
 Frc consts  --      2.4712                 3.2146                 0.4040
 IR Inten    --     43.7199                10.6748               109.9497

                     22                     23                     24
                      A                      A                      A
 Frequencies --    834.8307               844.8007               859.6113
 Red. masses --      5.5264                 7.3234                 1.4446
 Frc consts  --      2.2693                 3.0794                 0.6289
 IR Inten    --      1.9187                10.2709                13.5617

                     25                     26                     27
                      A                      A                      A
 Frequencies --    917.0170               951.7584               981.1513
 Red. masses --      1.3703                 3.8936                 1.4781
 Frc consts  --      0.6789                 2.0780                 0.8383
 IR Inten    --      5.3587                 3.2823                15.1805

                     28                     29                     30
                      A                      A                      A
 Frequencies --   1001.7418              1022.9567              1104.4676
 Red. masses --      1.3133                10.6686                 2.5833
 Frc consts  --      0.7765                 6.5777                 1.8567
 IR Inten    --      0.1002               244.5077                24.9410

                     31                     32                     33
                      A                      A                      A
 Frequencies --   1164.6129              1223.3832              1272.7575
 Red. masses --      1.3214                 1.5420                 1.9656
 Frc consts  --      1.0560                 1.3598                 1.8760
 IR Inten    --     25.0097               131.1588                17.6388

                     34                     35                     36
                      A                      A                      A
 Frequencies --   1296.1531              1311.5051              1338.6018
 Red. masses --      1.4585                 5.1241                 2.2278
 Frc consts  --      1.4437                 5.1929                 2.3519
 IR Inten    --    118.1175               182.6451               147.0414

                     37                     38                     39
                      A                      A                      A
 Frequencies --   1369.6210              1438.5615              1453.3571
 Red. masses --      3.2797                 2.4958                 2.0889
 Frc consts  --      3.6248                 3.0431                 2.5996
 IR Inten    --    159.0610                54.5028                 2.9168

                     40                     41                     42
                      A                      A                      A
 Frequencies --   1478.1935              1548.2344              1610.3666
 Red. masses --      2.7387                 3.9093                 9.2236
 Frc consts  --      3.5259                 5.5211                14.0930
 IR Inten    --     96.6731               160.0133               230.4909

                     43                     44                     45
                      A                      A                      A
 Frequencies --   1632.8030              1688.7349              1704.2827
 Red. masses --      3.6729                 6.8019                 6.8623
 Frc consts  --      5.7694                11.4288                11.7436
 IR Inten    --      4.0662               140.8264                 5.9401

                     46                     47                     48
                      A                      A                      A
 Frequencies --   3123.3275              3214.2586              3227.2675
 Red. masses --      1.0896                 1.0882                 1.0956
 Frc consts  --      6.2626                 6.6239                 6.7231
 IR Inten    --     13.4056                 0.4221                 1.6803

                     49                     50                     51
                      A                      A                      A
 Frequencies --   3232.2229              3384.1906              3812.1042
 Red. masses --      1.0910                 1.0659                 1.0677
 Frc consts  --      6.7153                 7.1922                 9.1420
 IR Inten    --      3.4769               274.4479               121.8068

 - Thermochemistry -
 -------------------
 Temperature   298.150 Kelvin.  Pressure   1.00000 Atm.
 Atom     1 has atomic number  6 and mass  12.00000

 Molecular mass:   182.03276 amu.
 Principal axes and moments of inertia in atomic units:
                           1         2         3
     Eigenvalues --  1035.959744260.266955296.22669
           X            0.99998   0.00577  -0.00000
           Y           -0.00577   0.99998  -0.00000
           Z            0.00000   0.00000   1.00000
 This molecule is an asymmetric top.
 Rotational symmetry number  1.
 Warning -- assumption of classical behavior for rotation
           may cause significant error
 Rotational temperatures (Kelvin)      0.08361     0.02033     0.01635
 Rotational constants (GHZ):           1.74210     0.42362     0.34076
 Zero-point vibrational energy     351325.5 (Joules/Mol)
                                   83.96882 (Kcal/Mol)
 Warning -- explicit consideration of  16 degrees of freedom as
           vibrations may cause significant error
 Vibrational temperatures:     92.37   131.68   167.57   194.67   236.37
          (Kelvin)            350.59   382.12   490.55   525.27   562.70
                              616.90   635.12   638.85   641.41   822.61
                              827.64   910.52  1016.12  1036.76  1089.62
                             1139.53  1201.13  1215.48  1236.79  1319.38
                             1369.37  1411.66  1441.28  1471.80  1589.08
                             1675.62  1760.17  1831.21  1864.87  1886.96
                             1925.95  1970.58  2069.77  2091.05  2126.79
                             2227.56  2316.96  2349.24  2429.71  2452.08
                             4493.77  4624.60  4643.31  4650.44  4869.09
                             5484.76

 Zero-point correction=                           0.133813 (Hartree/Particle)
 Thermal correction to Energy=                    0.144705
 Thermal correction to Enthalpy=                  0.145649
 Thermal correction to Gibbs Free Energy=         0.096548
 Sum of electronic and zero-point Energies=           -680.482959
 Sum of electronic and thermal Energies=              -680.472067
 Sum of electronic and thermal Enthalpies=            -680.471123
 Sum of electronic and thermal Free Energies=         -680.520225

                     E (Thermal)             CV                S
                      KCal/Mol        Cal/Mol-Kelvin    Cal/Mol-Kelvin
 Total                   90.804             41.095            103.344
 Electronic               0.000              0.000              0.000
 Translational            0.889              2.981             41.504
 Rotational               0.889              2.981             31.525
 Vibrational             89.026             35.133             30.315
 Vibration     1          0.597              1.971              4.324
 Vibration     2          0.602              1.955              3.627
 Vibration     3          0.608              1.936              3.158
 Vibration     4          0.613              1.918              2.869
 Vibration     5          0.623              1.886              2.500
 Vibration     6          0.659              1.773              1.776
 Vibration     7          0.671              1.736              1.625
 Vibration     8          0.720              1.594              1.208
 Vibration     9          0.738              1.544              1.100
 Vibration    10          0.759              1.489              0.996
 Vibration    11          0.790              1.408              0.863
 Vibration    12          0.801              1.380              0.822
 Vibration    13          0.804              1.374              0.814
 Vibration    14          0.805              1.370              0.809
 Vibration    15          0.928              1.092              0.501
 Vibration    16          0.932              1.085              0.494

 Optimization completed.
    -- Stationary point found.
 Normal termination of Gaussian 09 at Fri Aug 20 15:50:04 2021.
