 Gaussian 09, Revision E.01,
 Gaussian 09:  ES64L-G09RevE.01 30-Nov-2015

 -------------------------
 #P OPT Freq B3LYP/6-31G**
 -------------------------

 ------
 AFOVUP
 ------
 Symbolic Z-matrix:
 Charge =  0 Multiplicity = 1

 SCF Done:  E(RB3LYP) =  -570.563117257     A.U. after   16 cycles
 SCF Done:  E(RB3LYP) =  -570.670772432     A.U. after   13 cycles
 SCF Done:  E(RB3LYP) =  -570.736203436     A.U. after   14 cycles
 SCF Done:  E(RB3LYP) =  -570.737564108     A.U. after   13 cycles
 SCF Done:  E(RB3LYP) =  -570.737800539     A.U. after   13 cycles
 SCF Done:  E(RB3LYP) =  -570.737834076     A.U. after   12 cycles
 SCF Done:  E(RB3LYP) =  -570.737709907     A.U. after   12 cycles
 SCF Done:  E(RB3LYP) =  -570.737870898     A.U. after   13 cycles
 SCF Done:  E(RB3LYP) =  -570.737884777     A.U. after   10 cycles
 SCF Done:  E(RB3LYP) =  -570.737898237     A.U. after   11 cycles
 SCF Done:  E(RB3LYP) =  -570.737903725     A.U. after   10 cycles
 SCF Done:  E(RB3LYP) =  -570.737906106     A.U. after   10 cycles
 SCF Done:  E(RB3LYP) =  -570.737906621     A.U. after    8 cycles
 SCF Done:  E(RB3LYP) =  -570.737907116     A.U. after    8 cycles
 SCF Done:  E(RB3LYP) =  -570.737907908     A.U. after    8 cycles
 SCF Done:  E(RB3LYP) =  -570.737909861     A.U. after   10 cycles
 SCF Done:  E(RB3LYP) =  -570.737910920     A.U. after   10 cycles
 SCF Done:  E(RB3LYP) =  -570.737910972     A.U. after    8 cycles
 Optimization completed.
    -- Stationary point found.
 Normal termination of Gaussian 09 at Fri Aug 20 15:47:00 2021.

 ----------------------------------------------------------------------
 #P Geom=AllCheck Guess=TCheck SCRF=Check GenChk RB3LYP/6-31G(d,p) Freq
 ----------------------------------------------------------------------

 Structure from the checkpoint file:  "/public/home/users/caep010/.cache/gau_scr/Gau-119026.chk"
 ------
 AFOVUP
 ------
 Charge =  0 Multiplicity = 1

                         Standard orientation:
 ---------------------------------------------------------------------
 Center     Atomic      Atomic             Coordinates (Angstroms)
 Number     Number       Type             X           Y           Z
 ---------------------------------------------------------------------
      1          6           0       -3.419262   -1.257059    0.000064
      2          1           0       -4.488829   -1.047683    0.000037
      3          1           0       -3.193276   -1.860711    0.888653
      4          7           0       -2.686488   -0.000000    0.000052
      5          6           0       -1.312179   -0.000003    0.000024
      6          6           0       -0.577397   -1.215215    0.000107
      7          6           0       -3.419241    1.257068   -0.000059
      8          1           0       -1.093859   -2.166164    0.000179
      9          1           0       -3.193063    1.860900    0.888353
     10          1           0       -3.193410    1.860591   -0.888778
     11          6           0       -0.577396    1.215213   -0.000151
     12          1           0       -1.093863    2.166160   -0.000335
     13          1           0       -4.488810    1.047693    0.000187
     14          6           0        0.806725   -1.212380    0.000082
     15          1           0       -3.193246   -1.860773   -0.888478
     16          6           0        1.499085    0.000000   -0.000009
     17          7           0        2.952127   -0.000004    0.000014
     18          8           0        3.531423   -1.091090   -0.000377
     19          8           0        3.531432    1.091088    0.000415
     20          1           0        1.366848   -2.139155    0.000128
     21          6           0        0.806723    1.212382   -0.000138
     22          1           0        1.366850    2.139156   -0.000227
 ---------------------------------------------------------------------

 SCF Done:  E(RB3LYP) =  -570.737910972     A.U. after    1 cycles

 The electronic state is 1-A.
 Alpha  occ. eigenvalues --  -19.15787 -19.15785 -14.55060 -14.38102 -10.25305
 Alpha  occ. eigenvalues --  -10.23888 -10.23887 -10.22950 -10.20854 -10.20853
 Alpha  occ. eigenvalues --  -10.20154 -10.20154  -1.20003  -1.02631  -0.97225
 Alpha  occ. eigenvalues --   -0.87155  -0.79306  -0.76948  -0.74277  -0.71721
 Alpha  occ. eigenvalues --   -0.64568  -0.62272  -0.57811  -0.55016  -0.52413
 Alpha  occ. eigenvalues --   -0.51012  -0.50830  -0.48500  -0.48247  -0.46559
 Alpha  occ. eigenvalues --   -0.44052  -0.43729  -0.42915  -0.42913  -0.40425
 Alpha  occ. eigenvalues --   -0.40265  -0.38217  -0.35425  -0.30751  -0.28887
 Alpha  occ. eigenvalues --   -0.28805  -0.26930  -0.26738  -0.21403
 Alpha virt. eigenvalues --   -0.06722  -0.01469   0.02613   0.06864   0.08782
 Alpha virt. eigenvalues --    0.10789   0.10873   0.14431   0.14493   0.14936
 Alpha virt. eigenvalues --    0.15502   0.15789   0.16275   0.17655   0.20961

 Mulliken charges:
               1
     1  C   -0.173281
     2  H    0.116758
     3  H    0.128412
     4  N   -0.510428
     5  C    0.370643
     6  C   -0.142459
     7  C   -0.173280
     8  H    0.091997
     9  H    0.128416
    10  H    0.128407
    11  C   -0.142460
    12  H    0.091997
    13  H    0.116756
    14  C   -0.103559
    15  H    0.128410
    16  C    0.246147
    17  N    0.370825
    18  O   -0.416364
    19  O   -0.416368
    20  H    0.131494
    21  C   -0.103558
    22  H    0.131494
 Sum of Mulliken charges =  -0.00000

 Dipole moment (field-independent basis, Debye):
    X=             -8.0715    Y=             -0.0000    Z=             -0.0001  Tot=              8.0715
 Quadrupole moment (field-independent basis, Debye-Ang):
   XX=            -76.5283   YY=            -65.2786   ZZ=            -70.9709
   XY=             -0.0001   XZ=             -0.0001   YZ=             -0.0026

  Exact polarizability: 185.722   0.000 110.432   0.000  -0.000  48.815
 Approx polarizability: 289.952   0.000 204.036  -0.000   0.008  73.760

                      1                      2                      3
                      A                      A                      A
 Frequencies --     46.8937                64.2984                84.0825
 Red. masses --      2.2844                 4.8753                 2.7924
 Frc consts  --      0.0030                 0.0119                 0.0116
 IR Inten    --      1.5895                 0.0000                 0.0000

                      4                      5                      6
                      A                      A                      A
 Frequencies --     85.1669               176.5490               200.1927
 Red. masses --      2.5892                 5.0508                 1.1360
 Frc consts  --      0.0111                 0.0928                 0.0268
 IR Inten    --      1.2945                 0.5695                 0.0004

                      7                      8                      9
                      A                      A                      A
 Frequencies --    200.8422               291.2885               306.2647
 Red. masses --      2.0626                 4.2708                 5.9225
 Frc consts  --      0.0490                 0.2135                 0.3273
 IR Inten    --      5.2676                 0.1984                 0.1646

                     10                     11                     12
                      A                      A                      A
 Frequencies --    319.9731               436.3247               475.6166
 Red. masses --      3.8359                 3.2486                 3.2882
 Frc consts  --      0.2314                 0.3644                 0.4383
 IR Inten    --      0.3704                 0.0000                 0.1934

                     13                     14                     15
                      A                      A                      A
 Frequencies --    476.8186               510.5476               548.9654
 Red. masses --      4.3765                 2.7340                 5.7784
 Frc consts  --      0.5862                 0.4199                 1.0260
 IR Inten    --      2.1096                 3.9046                 4.8190

                     16                     17                     18
                      A                      A                      A
 Frequencies --    621.2772               645.3993               704.8597
 Red. masses --      4.8549                 7.1971                 3.3908
 Frc consts  --      1.1041                 1.7663                 0.9926
 IR Inten    --      5.3948                 0.5585                 9.1619

                     19                     20                     21
                      A                      A                      A
 Frequencies --    759.0635               763.6184               812.8705
 Red. masses --      6.9769                 5.8172                 1.2495
 Frc consts  --      2.3685                 1.9986                 0.4864
 IR Inten    --     24.2167                10.6458                 0.0000

                     22                     23                     24
                      A                      A                      A
 Frequencies --    842.0360               865.4340               966.7246
 Red. masses --      1.9210                10.2254                 3.0457
 Frc consts  --      0.8025                 4.5123                 1.6770
 IR Inten    --     39.4682                17.1433                20.6347

                     25                     26                     27
                      A                      A                      A
 Frequencies --    973.5484               983.6730              1017.7752
 Red. masses --      1.3016                 1.3040                 3.0279
 Frc consts  --      0.7268                 0.7434                 1.8480
 IR Inten    --      0.0000                 1.4517                 4.6692

                     28                     29                     30
                      A                      A                      A
 Frequencies --   1086.7365              1140.8385              1141.9184
 Red. masses --      1.5214                 2.3421                 1.3089
 Frc consts  --      1.0586                 1.7960                 1.0056
 IR Inten    --     27.7369               147.8149                 0.0800

                     31                     32                     33
                      A                      A                      A
 Frequencies --   1148.9253              1149.5990              1203.2206
 Red. masses --      1.2896                 1.2348                 1.6947
 Frc consts  --      1.0030                 0.9615                 1.4455
 IR Inten    --      5.2196                 0.0000                 7.1693

                     34                     35                     36
                      A                      A                      A
 Frequencies --   1227.9500              1280.4889              1343.8766
 Red. masses --      1.4067                 2.9204                 1.4611
 Frc consts  --      1.2497                 2.8213                 1.5547
 IR Inten    --     30.2587                29.3347                 3.6404

                     37                     38                     39
                      A                      A                      A
 Frequencies --   1377.7130              1391.7580              1409.9182
 Red. masses --      7.6758                 8.2948                 3.6137
 Frc consts  --      8.5840                 9.4664                 4.2324
 IR Inten    --   1025.7128                 4.1546                 0.6803

                     40                     41                     42
                      A                      A                      A
 Frequencies --   1458.1960              1483.5207              1494.6023
 Red. masses --      1.2491                 2.5893                 1.0380
 Frc consts  --      1.5648                 3.3575                 1.3661
 IR Inten    --      0.0932                 4.0693                 0.0000

                     43                     44                     45
                      A                      A                      A
 Frequencies --   1500.9864              1503.4015              1528.8308
 Red. masses --      1.2481                 1.0439                 1.1040
 Frc consts  --      1.6567                 1.3902                 1.5203
 IR Inten    --     17.6295                10.5715                 0.5179

                     46                     47                     48
                      A                      A                      A
 Frequencies --   1540.5816              1564.2297              1591.2791
 Red. masses --      1.1473                 2.3111                 9.6792
 Frc consts  --      1.6044                 3.3317                14.4405
 IR Inten    --     17.6549               150.5538                79.3469

                     49                     50                     51
                      A                      A                      A
 Frequencies --   1649.1689              1661.9201              3012.7870
 Red. masses --      9.3445                 5.6294                 1.0376
 Frc consts  --     14.9740                 9.1608                 5.5492
 IR Inten    --    131.3873               306.8146                77.1804

                     52                     53                     54
                      A                      A                      A
 Frequencies --   3020.1075              3063.8070              3065.0667
 Red. masses --      1.0410                 1.1031                 1.1064
 Frc consts  --      5.5940                 6.1010                 6.1241
 IR Inten    --     56.2891                 0.0019                65.5822

                     55                     56                     57
                      A                      A                      A
 Frequencies --   3147.7051              3159.9801              3229.7925
 Red. masses --      1.0979                 1.0954                 1.0874
 Frc consts  --      6.4094                 6.4443                 6.6835
 IR Inten    --      1.8801                31.3793                 3.9343

                     58                     59                     60
                      A                      A                      A
 Frequencies --   3230.8905              3244.4010              3245.3857
 Red. masses --      1.0876                 1.0938                 1.0945
 Frc consts  --      6.6893                 6.7838                 6.7921
 IR Inten    --      6.5160                 1.0435                 5.3827

 - Thermochemistry -
 -------------------
 Temperature   298.150 Kelvin.  Pressure   1.00000 Atm.
 Atom     1 has atomic number  6 and mass  12.00000

 Molecular mass:   166.07423 amu.
 Principal axes and moments of inertia in atomic units:
                           1         2         3
     Eigenvalues --   659.795713793.579854430.64278
           X            1.00000   0.00000   0.00000
           Y           -0.00000   1.00000  -0.00001
           Z           -0.00000   0.00001   1.00000
 This molecule is an asymmetric top.
 Rotational symmetry number  1.
 Warning -- assumption of classical behavior for rotation
           may cause significant error
 Rotational temperatures (Kelvin)      0.13127     0.02283     0.01955
 Rotational constants (GHZ):           2.73530     0.47574     0.40733
 Zero-point vibrational energy     463431.4 (Joules/Mol)
                                  110.76277 (Kcal/Mol)
 Warning -- explicit consideration of  15 degrees of freedom as
           vibrations may cause significant error
 Vibrational temperatures:     67.47    92.51   120.98   122.54   254.01
          (Kelvin)            288.03   288.97   419.10   440.65   460.37
                              627.77   684.31   686.03   734.56   789.84
                              893.88   928.58  1014.13  1092.12  1098.68
                             1169.54  1211.50  1245.16  1390.90  1400.72
                             1415.28  1464.35  1563.57  1641.41  1642.96
                             1653.05  1654.01  1731.16  1766.74  1842.34
                             1933.54  1982.22  2002.43  2028.56  2098.02
                             2134.45  2150.40  2159.58  2163.06  2199.64
                             2216.55  2250.57  2289.49  2372.78  2391.13
                             4334.72  4345.26  4408.13  4409.94  4528.84
                             4546.50  4646.95  4648.52  4667.96  4669.38

 Zero-point correction=                           0.176512 (Hartree/Particle)
 Thermal correction to Energy=                    0.187813
 Thermal correction to Enthalpy=                  0.188757
 Thermal correction to Gibbs Free Energy=         0.138320
 Sum of electronic and zero-point Energies=           -570.561399
 Sum of electronic and thermal Energies=              -570.550098
 Sum of electronic and thermal Enthalpies=            -570.549154
 Sum of electronic and thermal Free Energies=         -570.599591

                     E (Thermal)             CV                S
                      KCal/Mol        Cal/Mol-Kelvin    Cal/Mol-Kelvin
 Total                  117.854             41.240            106.155
 Electronic               0.000              0.000              0.000
 Translational            0.889              2.981             41.230
 Rotational               0.889              2.981             30.784
 Vibrational            116.077             35.279             34.140
 Vibration     1          0.595              1.979              4.944
 Vibration     2          0.597              1.971              4.321
 Vibration     3          0.601              1.960              3.793
 Vibration     4          0.601              1.959              3.768
 Vibration     5          0.628              1.871              2.365
 Vibration     6          0.638              1.840              2.131
 Vibration     7          0.638              1.839              2.125
 Vibration     8          0.687              1.690              1.466
 Vibration     9          0.697              1.662              1.382
 Vibration    10          0.706              1.635              1.310
 Vibration    11          0.797              1.391              0.838
 Vibration    12          0.832              1.304              0.722
 Vibration    13          0.833              1.301              0.719
 Vibration    14          0.866              1.227              0.632
 Vibration    15          0.904              1.142              0.546

 Optimization completed.
    -- Stationary point found.
 Normal termination of Gaussian 09 at Fri Aug 20 15:47:34 2021.
