 Gaussian 09, Revision E.01,
 Gaussian 09:  ES64L-G09RevE.01 30-Nov-2015

 -----
 #P G4
 -----

 -
 O
 -
 Symbolic Z-matrix:
 Charge =  0 Multiplicity = 3

 SCF Done:  E(UB3LYP) =  -75.0645794394     A.U. after   10 cycles
 Optimization completed.
    -- Stationary point found.
 Normal termination of Gaussian 09 at Fri Aug 19 08:48:50 2022.

 ----------------------------------------------------------
 #P Geom=AllCheck Guess=TCheck SCRF=Check B3LYP/GTBas3 Freq
 ----------------------------------------------------------

 Structure from the checkpoint file:  "/public/home/users/caep010/.cache/gau_scr/Gau-214536.chk"
 -
 O
 -
 Charge =  0 Multiplicity = 3

 SCF Done:  E(UB3LYP) =  -75.0645794394     A.U. after    1 cycles

  Exact polarizability:   3.419  -0.000   3.030   0.000   0.000   3.419
 Approx polarizability:   4.152  -0.000   3.298  -0.000  -0.000   4.152

 - Thermochemistry -
 -------------------
 Temperature   298.150 Kelvin.  Pressure   1.00000 Atm.
 Atom     1 has atomic number  8 and mass  15.99491
 Molecular mass:    15.99491 amu.
 Zero-point vibrational energy          0.0 (Joules/Mol)
                                    0.00000 (Kcal/Mol)
 Vibrational temperatures:
          (Kelvin)

 Zero-point correction=                           0.000000 (Hartree/Particle)
 Thermal correction to Energy=                    0.001416
 Thermal correction to Enthalpy=                  0.002360
 Thermal correction to Gibbs Free Energy=        -0.014952
 Sum of electronic and zero-point Energies=            -75.064579
 Sum of electronic and thermal Energies=               -75.063163
 Sum of electronic and thermal Enthalpies=             -75.062219
 Sum of electronic and thermal Free Energies=          -75.079532

                     E (Thermal)             CV                S
                      KCal/Mol        Cal/Mol-Kelvin    Cal/Mol-Kelvin
 Total                    0.889              2.981             36.438
 Electronic               0.000              0.000              2.183
 Translational            0.889              2.981             34.255
 Rotational               0.000              0.000              0.000
 Vibrational              0.000              0.000              0.000

 Optimization completed.
    -- Stationary point found.
 Normal termination of Gaussian 09 at Fri Aug 19 08:48:56 2022.

 -----------------------------------------------------------------
 #P Geom=AllCheck Guess=TCheck SCRF=Check CCSD(T,E4T,FrzG4)/GTBas1
 -----------------------------------------------------------------

 Structure from the checkpoint file:  "/public/home/users/caep010/.cache/gau_scr/Gau-214536.chk"
 -
 O
 -
 Charge =  0 Multiplicity = 3

 SCF Done:  E(UHF) =  -74.7839336097     A.U. after    9 cycles
 E2 =    -0.9610312286D-01 EUMP2 =    -0.74880036732525D+02
 CCSD(T)
 CCSD(T)= -0.74896637282D+02
 =-74.8957808\CCSD(T)=-74.8966373\S2=2.005733\S2-1=2.000401\S2A=2.00000
 Normal termination of Gaussian 09 at Fri Aug 19 08:49:02 2022.

 ---------------------------------------------------------
 #P Geom=AllCheck Guess=TCheck SCRF=Check MP4=FrzG4/GTBas2
 ---------------------------------------------------------

 Structure from the checkpoint file:  "/public/home/users/caep010/.cache/gau_scr/Gau-214536.chk"
 -
 O
 -
 Charge =  0 Multiplicity = 3

 SCF Done:  E(UHF) =  -74.7867639145     A.U. after   10 cycles
 E2 =    -0.9852710205D-01 EUMP2 =    -0.74885291016537D+02
 Normal termination of Gaussian 09 at Fri Aug 19 08:49:05 2022.

 ---------------------------------------------------------
 #P Geom=AllCheck Guess=TCheck SCRF=Check MP4=FrzG4/GTBas3
 ---------------------------------------------------------

 Structure from the checkpoint file:  "/public/home/users/caep010/.cache/gau_scr/Gau-214536.chk"
 -
 O
 -
 Charge =  0 Multiplicity = 3

 SCF Done:  E(UHF) =  -74.7870335892     A.U. after    9 cycles
 E2 =    -0.1289807195D+00 EUMP2 =    -0.74916014308709D+02
 Normal termination of Gaussian 09 at Fri Aug 19 08:49:10 2022.

 -----------------------------------------------------------
 #P Geom=AllCheck Guess=TCheck SCRF=Check MP2=Full/GTLargeXP
 -----------------------------------------------------------

 Structure from the checkpoint file:  "/public/home/users/caep010/.cache/gau_scr/Gau-214536.chk"
 -
 O
 -
 Charge =  0 Multiplicity = 3

 SCF Done:  E(UHF) =  -74.8093839865     A.U. after   10 cycles
 E2 =    -0.1891671816D+00 EUMP2 =    -0.74998551168097D+02
 Normal termination of Gaussian 09 at Fri Aug 19 08:49:13 2022.
 SCF Done:  E(UHF) =  -74.8175407740     A.U. after    8 cycles
 Normal termination of Gaussian 09 at Fri Aug 19 08:49:16 2022.

                         Standard orientation:
 ---------------------------------------------------------------------
 Center     Atomic      Atomic             Coordinates (Angstroms)
 Number     Number       Type             X           Y           Z
 ---------------------------------------------------------------------
      1          8           0        0.000000    0.000000    0.000000
 ---------------------------------------------------------------------

 SCF Done:  E(UHF) =  -74.8188117191     A.U. after    8 cycles

 Unable to determine electronic state:  an orbital has unidentified symmetry.
 Alpha  occ. eigenvalues --  -20.70751  -1.41827  -0.71102  -0.71102  -0.61157
 Alpha virt. eigenvalues --    0.10429   0.10429   0.10976   0.12144   0.47069
 Alpha virt. eigenvalues --    0.47069   0.49324   0.72192   0.93454   0.93454
 Alpha virt. eigenvalues --    0.96270   0.96270   0.97329   1.59726   1.59726

  Beta  occ. eigenvalues --  -20.62916  -1.07553  -0.52162
  Beta virt. eigenvalues --    0.05777   0.05777   0.11170   0.13029   0.15902
  Beta virt. eigenvalues --    0.15902   0.50627   0.56603   0.56603   0.76413
  Beta virt. eigenvalues --    0.99601   0.99795   0.99795   1.00710   1.00710

 Mulliken charges and spin densities:
               1          2
     1  O   -0.000000   2.000000
 Sum of Mulliken charges =  -0.00000   2.00000

 Dipole moment (field-independent basis, Debye):
    X=              0.0000    Y=              0.0000    Z=              0.0000  Tot=              0.0000
 Quadrupole moment (field-independent basis, Debye-Ang):
   XX=             -4.5978   YY=             -5.8849   ZZ=             -4.5978
   XY=              0.0000   XZ=             -0.0000   YZ=             -0.0000

 Normal termination of Gaussian 09 at Fri Aug 19 08:49:23 2022.
