 Gaussian 09, Revision E.01,
 Gaussian 09:  ES64L-G09RevE.01 30-Nov-2015

 ----------------
 #P G4 OPT=calcfc
 ----------------

 ------
 ACOWIY
 ------
 Symbolic Z-matrix:
 Charge =  0 Multiplicity = 1

 SCF Done:  E(RB3LYP) =  -582.194151210     A.U. after   15 cycles
 SCF Done:  E(RB3LYP) =  -582.255324699     A.U. after   13 cycles
 SCF Done:  E(RB3LYP) =  -582.266945096     A.U. after   15 cycles
 SCF Done:  E(RB3LYP) =  -582.268203386     A.U. after   14 cycles
 SCF Done:  E(RB3LYP) =  -582.268356751     A.U. after   12 cycles
 SCF Done:  E(RB3LYP) =  -582.268450612     A.U. after   14 cycles
 SCF Done:  E(RB3LYP) =  -582.268444494     A.U. after   12 cycles
 SCF Done:  E(RB3LYP) =  -582.268470635     A.U. after   12 cycles
 SCF Done:  E(RB3LYP) =  -582.268479051     A.U. after   11 cycles
 SCF Done:  E(RB3LYP) =  -582.268485754     A.U. after   11 cycles
 SCF Done:  E(RB3LYP) =  -582.268488551     A.U. after   10 cycles
 SCF Done:  E(RB3LYP) =  -582.268488508     A.U. after    7 cycles
 SCF Done:  E(RB3LYP) =  -582.268487876     A.U. after    8 cycles
 Optimization completed on the basis of negligible forces.
    -- Stationary point found.
 Normal termination of Gaussian 09 at Thu Aug 26 06:47:12 2021.

 ----------------------------------------------------------
 #P Geom=AllCheck Guess=TCheck SCRF=Check B3LYP/GTBas3 Freq
 ----------------------------------------------------------

 Structure from the checkpoint file:  "/public/home/users/caep010/.cache/gau_scr/Gau-164358.chk"
 ------
 ACOWIY
 ------
 Charge =  0 Multiplicity = 1

 SCF Done:  E(RB3LYP) =  -582.268487876     A.U. after    1 cycles

  Exact polarizability:  72.792   0.727  59.882  -0.000  -0.001  62.846
 Approx polarizability: 127.517   6.150  88.568  -0.002  -0.003 118.917

                      1                      2                      3
                      A                      A                      A
 Frequencies --     30.5171                58.3805                87.6164
 Red. masses --     12.4319                 3.1240                14.5360
 Frc consts  --      0.0068                 0.0063                 0.0657
 IR Inten    --      0.3583                 4.3384                 0.0008

                      4                      5                      6
                      A                      A                      A
 Frequencies --    199.2414               249.8069               268.1699
 Red. masses --     12.4845                 2.6728                 6.1006
 Frc consts  --      0.2920                 0.0983                 0.2585
 IR Inten    --      3.6197                 0.8119                 7.2676

                      7                      8                      9
                      A                      A                      A
 Frequencies --    326.9682               394.8528               434.4891
 Red. masses --      2.7670                10.6322                10.5261
 Frc consts  --      0.1743                 0.9767                 1.1708
 IR Inten    --      2.3422                 3.3923                 0.4916

                     10                     11                     12
                      A                      A                      A
 Frequencies --    520.1185               659.1252               681.2056
 Red. masses --      5.9757                 5.9977                 1.9399
 Frc consts  --      0.9524                 1.5352                 0.5304
 IR Inten    --      4.3383                32.3101                66.9493

                     13                     14                     15
                      A                      A                      A
 Frequencies --    722.6297               735.5743               855.6289
 Red. masses --      6.7620                 3.7553                10.4621
 Frc consts  --      2.0805                 1.1972                 4.5127
 IR Inten    --      1.1087                34.8922                11.4346

                     16                     17                     18
                      A                      A                      A
 Frequencies --    875.8296               909.3849               924.5409
 Red. masses --      5.5340                 2.8456                 1.4470
 Frc consts  --      2.5011                 1.3865                 0.7287
 IR Inten    --     38.3738                24.8482                 0.0679

                     19                     20                     21
                      A                      A                      A
 Frequencies --    988.7836              1037.8482              1122.5287
 Red. masses --      2.1761                 3.9174                 1.3024
 Frc consts  --      1.2535                 2.4861                 0.9669
 IR Inten    --      2.9402                10.7414                 8.2230

                     22                     23                     24
                      A                      A                      A
 Frequencies --   1130.6393              1140.4493              1170.0787
 Red. masses --      3.0786                 3.6608                 2.4997
 Frc consts  --      2.3187                 2.8053                 2.0164
 IR Inten    --      1.7409                 0.1170                 1.5750

                     25                     26                     27
                      A                      A                      A
 Frequencies --   1240.1255              1279.4955              1344.1980
 Red. masses --      1.5615                 1.2470                 1.6765
 Frc consts  --      1.4149                 1.2028                 1.7848
 IR Inten    --      4.8991                15.0783                 9.9763

                     28                     29                     30
                      A                      A                      A
 Frequencies --   1383.1500              1385.0533              1431.3753
 Red. masses --      1.2563                11.6556                 7.1040
 Frc consts  --      1.4160                13.1740                 8.5756
 IR Inten    --     13.1456               128.9191                52.2817

                     31                     32                     33
                      A                      A                      A
 Frequencies --   1484.3557              1506.9337              1673.1788
 Red. masses --      1.0769                 1.1278                13.8092
 Frc consts  --      1.3979                 1.5089                22.7773
 IR Inten    --      6.3033                17.6896               228.3120

                     34                     35                     36
                      A                      A                      A
 Frequencies --   1676.2025              3059.4538              3064.9194
 Red. masses --     13.9989                 1.0564                 1.0602
 Frc consts  --     23.1737                 5.8262                 5.8675
 IR Inten    --    224.7836                27.5723                 3.5923

                     37                     38                     39
                      A                      A                      A
 Frequencies --   3124.7609              3125.4652              3552.1406
 Red. masses --      1.1091                 1.1070                 1.0762
 Frc consts  --      6.3802                 6.3714                 8.0010
 IR Inten    --      6.0916                 1.8153                 5.2923

 - Thermochemistry -
 -------------------
 Temperature   298.150 Kelvin.  Pressure   1.00000 Atm.
 Atom     1 has atomic number  7 and mass  14.00307

 Molecular mass:   147.02801 amu.
 Principal axes and moments of inertia in atomic units:
                           1         2         3
     Eigenvalues --  1077.282871157.758661686.88294
           X            0.98079  -0.19509   0.00000
           Y            0.19509   0.98079  -0.00000
           Z            0.00000   0.00000   1.00000
 This molecule is an asymmetric top.
 Rotational symmetry number  1.
 Warning -- assumption of classical behavior for rotation
           may cause significant error
 Rotational temperatures (Kelvin)      0.08040     0.07481     0.05135
 Rotational constants (GHZ):           1.67527     1.55882     1.06987
 Zero-point vibrational energy     274275.1 (Joules/Mol)
                                   65.55332 (Kcal/Mol)
 Warning -- explicit consideration of  10 degrees of freedom as
           vibrations may cause significant error
 Vibrational temperatures:     43.91    84.00   126.06   286.66   359.42
          (Kelvin)            385.84   470.43   568.10   625.13   748.33
                              948.33   980.10  1039.70  1058.33  1231.06
                             1260.12  1308.40  1330.21  1422.64  1493.23
                             1615.07  1626.74  1640.85  1683.48  1784.26
                             1840.91  1934.00  1990.04  1992.78  2059.43
                             2135.65  2168.14  2407.33  2411.68  4401.87
                             4409.73  4495.83  4496.84  5110.73

 Zero-point correction=                           0.104466 (Hartree/Particle)
 Thermal correction to Energy=                    0.113356
 Thermal correction to Enthalpy=                  0.114300
 Thermal correction to Gibbs Free Energy=         0.068881
 Sum of electronic and zero-point Energies=           -582.164022
 Sum of electronic and thermal Energies=              -582.155132
 Sum of electronic and thermal Enthalpies=            -582.154188
 Sum of electronic and thermal Free Energies=         -582.199607

                     E (Thermal)             CV                S
                      KCal/Mol        Cal/Mol-Kelvin    Cal/Mol-Kelvin
 Total                   71.132             31.026             95.592
 Electronic               0.000              0.000              0.000
 Translational            0.889              2.981             40.867
 Rotational               0.889              2.981             29.133
 Vibrational             69.355             25.064             25.592
 Vibration     1          0.594              1.984              5.796
 Vibration     2          0.596              1.974              4.511
 Vibration     3          0.601              1.958              3.713
 Vibration     4          0.637              1.841              2.140
 Vibration     5          0.663              1.763              1.732
 Vibration     6          0.673              1.732              1.608
 Vibration     7          0.711              1.622              1.275
 Vibration     8          0.762              1.481              0.982
 Vibration     9          0.795              1.395              0.844
 Vibration    10          0.875              1.205              0.610

 Optimization completed on the basis of negligible forces.
    -- Stationary point found.
 Normal termination of Gaussian 09 at Thu Aug 26 06:48:43 2021.

 -----------------------------------------------------------------
 #P Geom=AllCheck Guess=TCheck SCRF=Check CCSD(T,E4T,FrzG4)/GTBas1
 -----------------------------------------------------------------

 Structure from the checkpoint file:  "/public/home/users/caep010/.cache/gau_scr/Gau-164358.chk"
 ------
 ACOWIY
 ------
 Charge =  0 Multiplicity = 1

 SCF Done:  E(RHF) =  -578.993609691     A.U. after   15 cycles
 E2 =    -0.1640730444D+01 EUMP2 =    -0.58063434013446D+03
 CCSD(T)
 CCSD(T)= -0.58071271373D+03
 Q=-580.7338978\MP4SDQ=-580.6520571\CCSD=-580.6437998\CCSD(T)=-580.7127
 Normal termination of Gaussian 09 at Thu Aug 26 07:07:57 2021.

 ---------------------------------------------------------
 #P Geom=AllCheck Guess=TCheck SCRF=Check MP4=FrzG4/GTBas2
 ---------------------------------------------------------

 Structure from the checkpoint file:  "/public/home/users/caep010/.cache/gau_scr/Gau-164358.chk"
 ------
 ACOWIY
 ------
 Charge =  0 Multiplicity = 1

 SCF Done:  E(RHF) =  -579.011603725     A.U. after   15 cycles
 E2 =    -0.1664959070D+01 EUMP2 =    -0.58067656279459D+03
 Normal termination of Gaussian 09 at Thu Aug 26 07:15:55 2021.

 ---------------------------------------------------------
 #P Geom=AllCheck Guess=TCheck SCRF=Check MP4=FrzG4/GTBas3
 ---------------------------------------------------------

 Structure from the checkpoint file:  "/public/home/users/caep010/.cache/gau_scr/Gau-164358.chk"
 ------
 ACOWIY
 ------
 Charge =  0 Multiplicity = 1

 SCF Done:  E(RHF) =  -579.058249248     A.U. after   12 cycles
 E2 =    -0.1967554991D+01 EUMP2 =    -0.58102580423887D+03
 Normal termination of Gaussian 09 at Thu Aug 26 08:08:33 2021.

 -----------------------------------------------------------
 #P Geom=AllCheck Guess=TCheck SCRF=Check MP2=Full/GTLargeXP
 -----------------------------------------------------------

 Structure from the checkpoint file:  "/public/home/users/caep010/.cache/gau_scr/Gau-164358.chk"
 ------
 ACOWIY
 ------
 Charge =  0 Multiplicity = 1

 SCF Done:  E(RHF) =  -579.211724619     A.U. after   14 cycles
 E2 =    -0.2543541300D+01 EUMP2 =    -0.58175526591944D+03
 Normal termination of Gaussian 09 at Thu Aug 26 08:17:41 2021.
 SCF Done:  E(RHF) =  -579.257874226     A.U. after   10 cycles
 Normal termination of Gaussian 09 at Thu Aug 26 08:21:10 2021.

                         Standard orientation:
 ---------------------------------------------------------------------
 Center     Atomic      Atomic             Coordinates (Angstroms)
 Number     Number       Type             X           Y           Z
 ---------------------------------------------------------------------
      1          7           0        1.955003   -1.285784    0.000005
      2          1           0        2.946055   -1.076320    0.000016
      3          6           0        1.190362   -0.590637    1.066315
      4          6           0        0.199128   -0.089813   -0.000001
      5          1           0        0.748116   -1.248307    1.816956
      6          6           0        1.190376   -0.590625   -1.066309
      7          1           0        0.748145   -1.248287   -1.816965
      8          1           0        1.703653    0.244745   -1.550986
      9          7           0       -1.157591   -0.762888   -0.000019
     10          8           0       -1.647026   -0.997467   -1.089328
     11          8           0       -1.647007   -0.997591    1.089271
     12          7           0       -0.060030    1.407157    0.000013
     13          8           0       -1.210774    1.794866    0.000085
     14          8           0        0.943498    2.100255   -0.000037
     15          1           0        1.703633    0.244724    1.551015
 ---------------------------------------------------------------------

 SCF Done:  E(RHF) =  -579.267378870     A.U. after    8 cycles

 The electronic state is 1-A.
 Alpha  occ. eigenvalues --  -20.64164 -20.63398 -20.63092 -20.63087 -15.88731
 Alpha  occ. eigenvalues --  -15.87775 -15.59322 -11.39882 -11.31568 -11.31567
 Alpha  occ. eigenvalues --   -1.65043  -1.63129  -1.44210  -1.43351  -1.30179
 Alpha  occ. eigenvalues --   -1.14735  -0.98744  -0.98596  -0.94274  -0.83780
 Alpha  occ. eigenvalues --   -0.82055  -0.76892  -0.76466  -0.75285  -0.74944
 Alpha  occ. eigenvalues --   -0.72986  -0.68852  -0.61983  -0.61201  -0.60996
 Alpha  occ. eigenvalues --   -0.53845  -0.53761  -0.52240  -0.51930  -0.50786
 Alpha  occ. eigenvalues --   -0.49157  -0.47329  -0.43029
 Alpha virt. eigenvalues --    0.02340   0.03451   0.04263   0.04887   0.04979
 Alpha virt. eigenvalues --    0.05676   0.06765   0.07127   0.07162   0.07677
 Alpha virt. eigenvalues --    0.08099   0.09293   0.10149   0.11359   0.11789

 Mulliken charges:
               1
     1  N   -0.391513
     2  H    0.297444
     3  C   -0.298698
     4  C    0.383753
     5  H    0.213365
     6  C   -0.298702
     7  H    0.213362
     8  H    0.215345
     9  N    0.528463
    10  O   -0.402425
    11  O   -0.402418
    12  N    0.527265
    13  O   -0.375300
    14  O   -0.425281
    15  H    0.215341
 Sum of Mulliken charges =  -0.00000

 Dipole moment (field-independent basis, Debye):
    X=              4.5878    Y=             -0.8800    Z=              0.0000  Tot=              4.6715
 Quadrupole moment (field-independent basis, Debye-Ang):
   XX=            -58.7968   YY=            -67.5021   ZZ=            -54.5713
   XY=             -2.0212   XZ=              0.0001   YZ=              0.0001

 Normal termination of Gaussian 09 at Thu Aug 26 08:45:16 2021.
