 Gaussian 09, Revision E.01,
 Gaussian 09:  ES64L-G09RevE.01 30-Nov-2015

 ----------------
 #P G4 OPT=calcfc
 ----------------

 ------
 ARIFUD
 ------
 Symbolic Z-matrix:
 Charge =  0 Multiplicity = 1

 SCF Done:  E(RB3LYP) =  -663.096451677     A.U. after   15 cycles
 SCF Done:  E(RB3LYP) =  -663.188661260     A.U. after   12 cycles
 SCF Done:  E(RB3LYP) =  -663.238279786     A.U. after   13 cycles
 SCF Done:  E(RB3LYP) =  -663.240267958     A.U. after   14 cycles
 SCF Done:  E(RB3LYP) =  -663.240348588     A.U. after   12 cycles
 SCF Done:  E(RB3LYP) =  -663.240384942     A.U. after   11 cycles
 SCF Done:  E(RB3LYP) =  -663.240419265     A.U. after   10 cycles
 SCF Done:  E(RB3LYP) =  -663.240421099     A.U. after    8 cycles
 SCF Done:  E(RB3LYP) =  -663.240421131     A.U. after    8 cycles
 Optimization completed.
    -- Stationary point found.
 Normal termination of Gaussian 09 at Wed Aug 25 13:56:41 2021.

 ----------------------------------------------------------
 #P Geom=AllCheck Guess=TCheck SCRF=Check B3LYP/GTBas3 Freq
 ----------------------------------------------------------

 Structure from the checkpoint file:  "/public/home/users/caep010/.cache/gau_scr/Gau-80583.chk"
 ------
 ARIFUD
 ------
 Charge =  0 Multiplicity = 1

 SCF Done:  E(RB3LYP) =  -663.240421131     A.U. after    1 cycles

  Exact polarizability: 127.661  10.325 119.995  10.903  -7.353  76.867
 Approx polarizability: 196.116  19.101 205.173  27.159 -25.547 128.055

                      1                      2                      3
                      A                      A                      A
 Frequencies --     39.9247                78.5662                88.5467
 Red. masses --      5.4209                 5.1624                 5.6827
 Frc consts  --      0.0051                 0.0188                 0.0263
 IR Inten    --      0.7153                 0.9024                 0.0180

                      4                      5                      6
                      A                      A                      A
 Frequencies --    134.6749               138.7568               158.1021
 Red. masses --      4.7339                 3.2339                 5.2453
 Frc consts  --      0.0506                 0.0367                 0.0772
 IR Inten    --      5.9787                 6.0062                 1.1155

                      7                      8                      9
                      A                      A                      A
 Frequencies --    200.1306               223.5406               254.6924
 Red. masses --      1.0861                 4.8158                 3.4074
 Frc consts  --      0.0256                 0.1418                 0.1302
 IR Inten    --      2.2298                 5.0740                 4.6970

                     10                     11                     12
                      A                      A                      A
 Frequencies --    299.3045               323.2046               342.5012
 Red. masses --      3.0622                 1.2364                 2.3929
 Frc consts  --      0.1616                 0.0761                 0.1654
 IR Inten    --     31.0230                78.3757                 2.8930

                     13                     14                     15
                      A                      A                      A
 Frequencies --    374.9357               400.9425               439.3267
 Red. masses --      2.9600                 4.6094                 3.0381
 Frc consts  --      0.2452                 0.4366                 0.3455
 IR Inten    --      4.3572                 8.2660                 2.9392

                     16                     17                     18
                      A                      A                      A
 Frequencies --    520.3175               561.7024               624.9709
 Red. masses --      2.9233                 3.8865                 4.4649
 Frc consts  --      0.4663                 0.7225                 1.0275
 IR Inten    --      5.2090                 4.5220                 0.5792

                     19                     20                     21
                      A                      A                      A
 Frequencies --    652.1665               702.4192               749.3168
 Red. masses --      3.6669                 4.4600                 3.9465
 Frc consts  --      0.9189                 1.2965                 1.3056
 IR Inten    --      2.4441                 6.0773                 0.3396

                     22                     23                     24
                      A                      A                      A
 Frequencies --    775.4560               806.2722               839.1743
 Red. masses --      8.9237                 1.8230                10.5007
 Frc consts  --      3.1616                 0.6983                 4.3568
 IR Inten    --     11.7744                 3.5438                27.0004

                     25                     26                     27
                      A                      A                      A
 Frequencies --    866.4108               904.6556               944.4921
 Red. masses --      2.5569                 1.4541                 2.4735
 Frc consts  --      1.1309                 0.7011                 1.3000
 IR Inten    --      4.5144                 5.8419                14.7346

                     28                     29                     30
                      A                      A                      A
 Frequencies --    992.6217              1023.4799              1051.4508
 Red. masses --      2.5117                 1.6895                 2.0149
 Frc consts  --      1.4581                 1.0427                 1.3124
 IR Inten    --     18.6148                 2.3267                29.0264

                     31                     32                     33
                      A                      A                      A
 Frequencies --   1073.0557              1093.3019              1111.2282
 Red. masses --      1.5226                 2.0817                 2.9304
 Frc consts  --      1.0330                 1.4660                 2.1320
 IR Inten    --      5.5042                 1.4986                29.8002

                     34                     35                     36
                      A                      A                      A
 Frequencies --   1177.2638              1208.4446              1219.8046
 Red. masses --      1.9292                 1.4132                 2.9060
 Frc consts  --      1.5754                 1.2159                 2.5475
 IR Inten    --     30.6511                26.7282                58.2699

                     37                     38                     39
                      A                      A                      A
 Frequencies --   1245.5075              1278.0629              1298.7610
 Red. masses --      1.1955                 1.4790                 4.1168
 Frc consts  --      1.0927                 1.4233                 4.0914
 IR Inten    --     20.2763                13.6874               162.0566

                     40                     41                     42
                      A                      A                      A
 Frequencies --   1323.7714              1368.3423              1388.2927
 Red. masses --      1.2729                 2.0282                 1.3589
 Frc consts  --      1.3142                 2.2374                 1.5431
 IR Inten    --      4.1449                19.7196                17.4925

                     43                     44                     45
                      A                      A                      A
 Frequencies --   1399.9728              1403.6070              1422.7023
 Red. masses --      1.6811                 2.3532                 1.8747
 Frc consts  --      1.9413                 2.7315                 2.2357
 IR Inten    --     19.3873               143.8817                66.0732

                     46                     47                     48
                      A                      A                      A
 Frequencies --   1457.0979              1459.2811              1475.4603
 Red. masses --      2.1978                 1.4619                 1.1248
 Frc consts  --      2.7493                 1.8342                 1.4427
 IR Inten    --    141.2166                13.8587                 3.2480

                     49                     50                     51
                      A                      A                      A
 Frequencies --   1483.6394              1492.4380              1503.2350
 Red. masses --      1.1315                 1.1544                 3.5073
 Frc consts  --      1.4675                 1.5149                 4.6695
 IR Inten    --     28.9171                 4.4658                63.9787

                     52                     53                     54
                      A                      A                      A
 Frequencies --   1513.1337              1521.0884              1550.7899
 Red. masses --      1.8932                 1.1036                 3.9616
 Frc consts  --      2.5539                 1.5045                 5.6134
 IR Inten    --    102.2907                 5.6170                16.9928

                     55                     56                     57
                      A                      A                      A
 Frequencies --   1599.8756              2986.6330              3019.8810
 Red. masses --     10.8987                 1.0582                 1.1016
 Frc consts  --     16.4360                 5.5613                 5.9192
 IR Inten    --    214.7830                40.6834                41.3285

                     58                     59                     60
                      A                      A                      A
 Frequencies --   3035.4204              3056.8292              3099.4671
 Red. masses --      1.0424                 1.0672                 1.0931
 Frc consts  --      5.6590                 5.8752                 6.1869
 IR Inten    --     12.2288                29.0190                 5.3583

                     61                     62                     63
                      A                      A                      A
 Frequencies --   3103.7213              3117.1489              3153.7668
 Red. masses --      1.0683                 1.0888                 1.1006
 Frc consts  --      6.0636                 6.2332                 6.4496
 IR Inten    --      1.6465                16.3977                 2.7025

                     64                     65                     66
                      A                      A                      A
 Frequencies --   3159.4262              3274.5096              3831.5665
 Red. masses --      1.1063                 1.0977                 1.0665
 Frc consts  --      6.5065                 6.9348                 9.2247
 IR Inten    --      1.8986                 0.7531                33.3517

 - Thermochemistry -
 -------------------
 Temperature   298.150 Kelvin.  Pressure   1.00000 Atm.
 Atom     1 has atomic number  7 and mass  14.00307

 Molecular mass:   185.08004 amu.
 Principal axes and moments of inertia in atomic units:
                           1         2         3
     Eigenvalues --  1584.944242749.189543844.77195
           X            0.99990  -0.01379  -0.00096
           Y            0.01380   0.99982   0.01279
           Z            0.00078  -0.01280   0.99992
 This molecule is an asymmetric top.
 Rotational symmetry number  1.
 Warning -- assumption of classical behavior for rotation
           may cause significant error
 Rotational temperatures (Kelvin)      0.05465     0.03151     0.02253
 Rotational constants (GHZ):           1.13868     0.65646     0.46940
 Zero-point vibrational energy     504935.3 (Joules/Mol)
                                  120.68242 (Kcal/Mol)
 Warning -- explicit consideration of  17 degrees of freedom as
           vibrations may cause significant error
 Vibrational temperatures:     57.44   113.04   127.40   193.77   199.64
          (Kelvin)            227.47   287.94   321.62   366.45   430.63
                              465.02   492.78   539.45   576.87   632.09
                              748.62   808.16   899.19   938.32  1010.62
                             1078.10  1115.71  1160.04  1207.38  1246.57
                             1301.60  1358.91  1428.16  1472.56  1512.80
                             1543.89  1573.02  1598.81  1693.82  1738.68
                             1755.02  1792.01  1838.85  1868.63  1904.61
                             1968.74  1997.44  2014.25  2019.47  2046.95
                             2096.44  2099.58  2122.86  2134.62  2147.28
                             2162.82  2177.06  2188.50  2231.24  2301.86
                             4297.09  4344.93  4367.29  4398.09  4459.44
                             4465.56  4484.88  4537.56  4545.70  4711.28
                             5512.76

 Zero-point correction=                           0.192320 (Hartree/Particle)
 Thermal correction to Energy=                    0.204800
 Thermal correction to Enthalpy=                  0.205744
 Thermal correction to Gibbs Free Energy=         0.153097
 Sum of electronic and zero-point Energies=           -663.048101
 Sum of electronic and thermal Energies=              -663.035622
 Sum of electronic and thermal Enthalpies=            -663.034677
 Sum of electronic and thermal Free Energies=         -663.087324

                     E (Thermal)             CV                S
                      KCal/Mol        Cal/Mol-Kelvin    Cal/Mol-Kelvin
 Total                  128.514             45.884            110.805
 Electronic               0.000              0.000              0.000
 Translational            0.889              2.981             41.553
 Rotational               0.889              2.981             31.194
 Vibrational            126.736             39.922             38.058
 Vibration     1          0.594              1.981              5.263
 Vibration     2          0.600              1.964              3.926
 Vibration     3          0.601              1.957              3.692
 Vibration     4          0.613              1.919              2.878
 Vibration     5          0.614              1.915              2.821
 Vibration     6          0.621              1.894              2.572
 Vibration     7          0.638              1.840              2.132
 Vibration     8          0.649              1.805              1.930
 Vibration     9          0.665              1.755              1.698
 Vibration    10          0.692              1.675              1.421
 Vibration    11          0.708              1.629              1.294
 Vibration    12          0.722              1.591              1.200
 Vibration    13          0.746              1.523              1.060
 Vibration    14          0.767              1.468              0.959
 Vibration    15          0.799              1.384              0.829
 Vibration    16          0.875              1.205              0.609
 Vibration    17          0.917              1.114              0.520

 Optimization completed.
    -- Stationary point found.
 Normal termination of Gaussian 09 at Wed Aug 25 14:00:25 2021.

 -----------------------------------------------------------------
 #P Geom=AllCheck Guess=TCheck SCRF=Check CCSD(T,E4T,FrzG4)/GTBas1
 -----------------------------------------------------------------

 Structure from the checkpoint file:  "/public/home/users/caep010/.cache/gau_scr/Gau-80583.chk"
 ------
 ARIFUD
 ------
 Charge =  0 Multiplicity = 1

 SCF Done:  E(RHF) =  -659.271460101     A.U. after   15 cycles
 E2 =    -0.1954930639D+01 EUMP2 =    -0.66122639074000D+03
 CCSD(T)
 CCSD(T)= -0.66135506505D+03
 Q=-661.2792869\CCSD=-661.2755894\CCSD(T)=-661.3550651\RMSD=6.748e-09\P
 Normal termination of Gaussian 09 at Wed Aug 25 16:01:30 2021.

 ---------------------------------------------------------
 #P Geom=AllCheck Guess=TCheck SCRF=Check MP4=FrzG4/GTBas2
 ---------------------------------------------------------

 Structure from the checkpoint file:  "/public/home/users/caep010/.cache/gau_scr/Gau-80583.chk"
 ------
 ARIFUD
 ------
 Charge =  0 Multiplicity = 1

 SCF Done:  E(RHF) =  -659.288767474     A.U. after   14 cycles
 E2 =    -0.1982437245D+01 EUMP2 =    -0.66127120471894D+03
 Normal termination of Gaussian 09 at Wed Aug 25 16:41:50 2021.

 ---------------------------------------------------------
 #P Geom=AllCheck Guess=TCheck SCRF=Check MP4=FrzG4/GTBas3
 ---------------------------------------------------------

 Structure from the checkpoint file:  "/public/home/users/caep010/.cache/gau_scr/Gau-80583.chk"
 ------
 ARIFUD
 ------
 Charge =  0 Multiplicity = 1

 SCF Done:  E(RHF) =  -659.344277899     A.U. after   12 cycles
 E2 =    -0.2359776968D+01 EUMP2 =    -0.66170405486716D+03
 Normal termination of Gaussian 09 at Wed Aug 25 22:16:54 2021.

 -----------------------------------------------------------
 #P Geom=AllCheck Guess=TCheck SCRF=Check MP2=Full/GTLargeXP
 -----------------------------------------------------------

 Structure from the checkpoint file:  "/public/home/users/caep010/.cache/gau_scr/Gau-80583.chk"
 ------
 ARIFUD
 ------
 Charge =  0 Multiplicity = 1

 SCF Done:  E(RHF) =  -659.506745388     A.U. after   14 cycles
 E2 =    -0.3080716509D+01 EUMP2 =    -0.66258746189737D+03
 Normal termination of Gaussian 09 at Wed Aug 25 22:30:45 2021.
 SCF Done:  E(RHF) =  -659.558173640     A.U. after   10 cycles
 Normal termination of Gaussian 09 at Wed Aug 25 22:39:25 2021.

                         Standard orientation:
 ---------------------------------------------------------------------
 Center     Atomic      Atomic             Coordinates (Angstroms)
 Number     Number       Type             X           Y           Z
 ---------------------------------------------------------------------
      1          7           0       -0.053441    0.367597    0.441231
      2          6           0       -1.350353    0.330991   -0.058910
      3          7           0       -2.237453   -0.773601    0.015036
      4          8           0       -1.859339   -1.806606    0.578010
      5          8           0       -3.346851   -0.625256   -0.490030
      6          6           0        0.724421   -0.705893    1.073832
      7          1           0        1.572764   -0.227762    1.563846
      8          6           0        1.221763   -1.775542    0.091161
      9          6           0        2.146463   -1.259759   -1.002342
     10          8           0        3.298605   -0.688445   -0.386479
     11          1           0        2.428174   -2.097874   -1.655424
     12          1           0        3.913842   -0.427681   -1.078381
     13          1           0        1.625468   -0.517340   -1.626093
     14          6           0        0.389412    1.634401    0.191494
     15          7           0       -0.528672    2.376980   -0.424628
     16          6           0        1.735481    2.141183    0.586216
     17          1           0        1.815577    2.253239    1.674181
     18          1           0        1.869172    3.124252    0.133605
     19          6           0       -1.610036    1.577910   -0.582588
     20          1           0       -2.525069    1.906352   -1.048425
     21          1           0        2.535079    1.469367    0.261663
     22          1           0        1.757651   -2.528589    0.680045
     23          1           0        0.362598   -2.273911   -0.364660
     24          1           0        0.099478   -1.174181    1.832978
 ---------------------------------------------------------------------

 SCF Done:  E(RHF) =  -659.568628074     A.U. after    8 cycles

 The electronic state is 1-A.
 Alpha  occ. eigenvalues --  -20.59362 -20.59309 -20.57803 -15.85627 -15.64723
 Alpha  occ. eigenvalues --  -15.56441 -11.33510 -11.31768 -11.29594 -11.28992
 Alpha  occ. eigenvalues --  -11.28984 -11.24766 -11.24177  -1.59940  -1.39172
 Alpha  occ. eigenvalues --   -1.38266  -1.37383  -1.21432  -1.11624  -1.06677
 Alpha  occ. eigenvalues --   -1.02445  -0.95886  -0.92423  -0.84657  -0.82070
 Alpha  occ. eigenvalues --   -0.79078  -0.75508  -0.72908  -0.72550  -0.71395
 Alpha  occ. eigenvalues --   -0.68621  -0.68246  -0.63466  -0.62839  -0.60573
 Alpha  occ. eigenvalues --   -0.59395  -0.58606  -0.57323  -0.56401  -0.53892
 Alpha  occ. eigenvalues --   -0.52463  -0.50729  -0.49911  -0.49149  -0.46774
 Alpha  occ. eigenvalues --   -0.45704  -0.45381  -0.41357  -0.34609
 Alpha virt. eigenvalues --    0.02308   0.03265   0.03803   0.04131   0.04390
 Alpha virt. eigenvalues --    0.05226   0.05711   0.06012   0.06349   0.06689
 Alpha virt. eigenvalues --    0.07939   0.08472   0.08602   0.08818   0.08909

 Mulliken charges:
               1
     1  N   -0.023185
     2  C    0.118457
     3  N    0.479223
     4  O   -0.445789
     5  O   -0.446897
     6  C   -0.320087
     7  H    0.211067
     8  C   -0.279883
     9  C   -0.195718
    10  O   -0.589494
    11  H    0.167567
    12  H    0.383581
    13  H    0.158064
    14  C    0.403860
    15  N   -0.523082
    16  C   -0.644147
    17  H    0.193778
    18  H    0.228027
    19  C    0.002407
    20  H    0.271238
    21  H    0.229877
    22  H    0.182750
    23  H    0.214406
    24  H    0.223982
 Sum of Mulliken charges =  -0.00000

 Dipole moment (field-independent basis, Debye):
    X=              5.2672    Y=              0.5059    Z=             -0.2582  Tot=              5.2977
 Quadrupole moment (field-independent basis, Debye-Ang):
   XX=            -82.5996   YY=            -83.9380   ZZ=            -72.7185
   XY=             -4.6122   XZ=             -4.3475   YZ=              3.5501

 Normal termination of Gaussian 09 at Wed Aug 25 23:35:23 2021.
