 Gaussian 09, Revision E.01,
 Gaussian 09:  ES64L-G09RevE.01 30-Nov-2015

 ----------------
 #P G4 OPT=calcfc
 ----------------

 ------
 AMNPHA
 ------
 Symbolic Z-matrix:
 Charge =  0 Multiplicity = 1

 SCF Done:  E(RB3LYP) =  -567.291551392     A.U. after   15 cycles
 SCF Done:  E(RB3LYP) =  -567.357303779     A.U. after   13 cycles
 SCF Done:  E(RB3LYP) =  -567.373484795     A.U. after   14 cycles
 SCF Done:  E(RB3LYP) =  -567.374871245     A.U. after   12 cycles
 SCF Done:  E(RB3LYP) =  -567.374953618     A.U. after   11 cycles
 SCF Done:  E(RB3LYP) =  -567.374984772     A.U. after   10 cycles
 SCF Done:  E(RB3LYP) =  -567.374990331     A.U. after    9 cycles
 SCF Done:  E(RB3LYP) =  -567.374991516     A.U. after    8 cycles
 Optimization completed.
    -- Stationary point found.
 Normal termination of Gaussian 09 at Wed Aug 25 13:39:55 2021.

 ----------------------------------------------------------
 #P Geom=AllCheck Guess=TCheck SCRF=Check B3LYP/GTBas3 Freq
 ----------------------------------------------------------

 Structure from the checkpoint file:  "/public/home/users/caep010/.cache/gau_scr/Gau-108712.chk"
 ------
 AMNPHA
 ------
 Charge =  0 Multiplicity = 1

 SCF Done:  E(RB3LYP) =  -567.374991516     A.U. after    1 cycles

  Exact polarizability: 146.865  -4.721 101.081   0.098  -0.100  38.455
 Approx polarizability: 255.150  -6.265 192.946  -1.829   0.019  63.024

                      1                      2                      3
                      A                      A                      A
 Frequencies --     71.9830               113.5063               212.4954
 Red. masses --     11.3879                 5.7274                 7.5073
 Frc consts  --      0.0348                 0.0435                 0.1997
 IR Inten    --      0.0296                 0.4283                 2.2080

                      4                      5                      6
                      A                      A                      A
 Frequencies --    215.4604               311.6708               316.8330
 Red. masses --      5.3239                 1.3293                 3.8611
 Frc consts  --      0.1456                 0.0761                 0.2284
 IR Inten    --      0.4541               117.9773                12.7096

                      7                      8                      9
                      A                      A                      A
 Frequencies --    345.8952               362.3408               394.4432
 Red. masses --      2.3151                 9.1524                 1.2290
 Frc consts  --      0.1632                 0.7080                 0.1127
 IR Inten    --     15.1975                 5.0275                74.0556

                     10                     11                     12
                      A                      A                      A
 Frequencies --    432.5667               453.6942               481.2728
 Red. masses --      4.8879                 1.7029                 1.8989
 Frc consts  --      0.5389                 0.2065                 0.2591
 IR Inten    --      5.4204               100.4222               210.6194

                     13                     14                     15
                      A                      A                      A
 Frequencies --    554.8612               578.4713               581.6369
 Red. masses --      7.1100                 4.8571                 4.5858
 Frc consts  --      1.2897                 0.9576                 0.9141
 IR Inten    --      2.8025                 0.5791                 7.4622

                     16                     17                     18
                      A                      A                      A
 Frequencies --    659.6179               738.3839               774.7464
 Red. masses --      7.0933                 4.0155                 4.4815
 Frc consts  --      1.8184                 1.2899                 1.5849
 IR Inten    --      3.5864                 2.4125                29.8116

                     19                     20                     21
                      A                      A                      A
 Frequencies --    800.7361               830.5664               841.2979
 Red. masses --      4.7025                 7.8357                 1.6545
 Frc consts  --      1.7765                 3.1848                 0.6899
 IR Inten    --      7.5797                25.3450                 9.0442

                     22                     23                     24
                      A                      A                      A
 Frequencies --    894.5299               953.7714               962.1689
 Red. masses --      1.4915                 1.3489                 4.5498
 Frc consts  --      0.7032                 0.7229                 2.4817
 IR Inten    --     16.4625                 2.3693                14.2711

                     25                     26                     27
                      A                      A                      A
 Frequencies --   1068.0024              1109.9581              1156.2385
 Red. masses --      1.5648                 1.9519                 1.3356
 Frc consts  --      1.0516                 1.4169                 1.0520
 IR Inten    --      4.8796                56.3179                95.7169

                     28                     29                     30
                      A                      A                      A
 Frequencies --   1181.5735              1273.1878              1332.7367
 Red. masses --      1.4001                 2.2140                 1.9239
 Frc consts  --      1.1517                 2.1146                 2.0133
 IR Inten    --    150.7247                29.3574                72.1649

                     31                     32                     33
                      A                      A                      A
 Frequencies --   1348.4399              1381.4692              1412.0913
 Red. masses --      2.4068                11.4827                 5.2604
 Frc consts  --      2.5784                12.9115                 6.1801
 IR Inten    --    195.9109               454.1142                 9.3360

                     34                     35                     36
                      A                      A                      A
 Frequencies --   1479.3937              1552.3135              1603.3789
 Red. masses --      4.1984                 3.5259                10.4988
 Frc consts  --      5.4138                 5.0058                15.9024
 IR Inten    --     30.3859                87.8319               237.7757

                     37                     38                     39
                      A                      A                      A
 Frequencies --   1629.0256              1652.1993              1659.9427
 Red. masses --      1.8295                 8.2541                 2.2421
 Frc consts  --      2.8605                13.2753                 3.6400
 IR Inten    --      5.2213                29.9002               206.3332

                     40                     41                     42
                      A                      A                      A
 Frequencies --   3180.9509              3208.5622              3241.2918
 Red. masses --      1.0893                 1.0905                 1.0920
 Frc consts  --      6.4942                 6.6142                 6.7591
 IR Inten    --     10.9000                 4.3017                 1.4906

                     43                     44                     45
                      A                      A                      A
 Frequencies --   3592.6732              3706.3535              3834.3045
 Red. masses --      1.0457                 1.1011                 1.0661
 Frc consts  --      7.9521                 8.9118                 9.2347
 IR Inten    --     76.2862                34.6477                68.2552

 - Thermochemistry -
 -------------------
 Temperature   298.150 Kelvin.  Pressure   1.00000 Atm.
 Atom     1 has atomic number  8 and mass  15.99491

 Molecular mass:   154.03784 amu.
 Principal axes and moments of inertia in atomic units:
                           1         2         3
     Eigenvalues --   712.694792473.154763184.82992
           X            0.99998  -0.00523   0.00237
           Y            0.00523   0.99999  -0.00153
           Z           -0.00236   0.00154   1.00000
 This molecule is an asymmetric top.
 Rotational symmetry number  1.
 Warning -- assumption of classical behavior for rotation
           may cause significant error
 Rotational temperatures (Kelvin)      0.12153     0.03502     0.02720
 Rotational constants (GHZ):           2.53228     0.72973     0.56667
 Zero-point vibrational energy     325904.9 (Joules/Mol)
                                   77.89313 (Kcal/Mol)
 Warning -- explicit consideration of  15 degrees of freedom as
           vibrations may cause significant error
 Vibrational temperatures:    103.57   163.31   305.73   310.00   448.42
          (Kelvin)            455.85   497.67   521.33   567.52   622.37
                              652.76   692.44   798.32   832.29   836.84
                              949.04  1062.37  1114.69  1152.08  1195.00
                             1210.44  1287.03  1372.26  1384.34  1536.62
                             1596.98  1663.57  1700.02  1831.83  1917.51
                             1940.10  1987.62  2031.68  2128.51  2233.43
                             2306.90  2343.80  2377.14  2388.28  4576.67
                             4616.40  4663.49  5169.05  5332.61  5516.70

 Zero-point correction=                           0.124131 (Hartree/Particle)
 Thermal correction to Energy=                    0.133510
 Thermal correction to Enthalpy=                  0.134454
 Thermal correction to Gibbs Free Energy=         0.089595
 Sum of electronic and zero-point Energies=           -567.250861
 Sum of electronic and thermal Energies=              -567.241482
 Sum of electronic and thermal Enthalpies=            -567.240537
 Sum of electronic and thermal Free Energies=         -567.285396

                     E (Thermal)             CV                S
                      KCal/Mol        Cal/Mol-Kelvin    Cal/Mol-Kelvin
 Total                   83.779             36.286             94.414
 Electronic               0.000              0.000              0.000
 Translational            0.889              2.981             41.006
 Rotational               0.889              2.981             30.108
 Vibrational             82.001             30.325             23.300
 Vibration     1          0.598              1.967              4.098
 Vibration     2          0.607              1.938              3.208
 Vibration     3          0.644              1.822              2.022
 Vibration     4          0.645              1.817              1.997
 Vibration     5          0.700              1.651              1.353
 Vibration     6          0.704              1.641              1.326
 Vibration     7          0.724              1.584              1.185
 Vibration     8          0.736              1.550              1.112
 Vibration     9          0.761              1.482              0.983
 Vibration    10          0.793              1.399              0.850
 Vibration    11          0.812              1.353              0.785
 Vibration    12          0.838              1.292              0.707
 Vibration    13          0.910              1.129              0.534
 Vibration    14          0.935              1.078              0.488
 Vibration    15          0.938              1.071              0.482

 Optimization completed.
    -- Stationary point found.
 Normal termination of Gaussian 09 at Wed Aug 25 13:41:45 2021.

 -----------------------------------------------------------------
 #P Geom=AllCheck Guess=TCheck SCRF=Check CCSD(T,E4T,FrzG4)/GTBas1
 -----------------------------------------------------------------

 Structure from the checkpoint file:  "/public/home/users/caep010/.cache/gau_scr/Gau-108712.chk"
 ------
 AMNPHA
 ------
 Charge =  0 Multiplicity = 1

 SCF Done:  E(RHF) =  -564.055060699     A.U. after   15 cycles
 E2 =    -0.1642186025D+01 EUMP2 =    -0.56569724672342D+03
 CCSD(T)
 CCSD(T)= -0.56579129016D+03
 43311\CCSD=-565.7206788\CCSD(T)=-565.7912902\RMSD=4.052e-09\PG=C01 [X(
 Normal termination of Gaussian 09 at Wed Aug 25 14:20:14 2021.

 ---------------------------------------------------------
 #P Geom=AllCheck Guess=TCheck SCRF=Check MP4=FrzG4/GTBas2
 ---------------------------------------------------------

 Structure from the checkpoint file:  "/public/home/users/caep010/.cache/gau_scr/Gau-108712.chk"
 ------
 AMNPHA
 ------
 Charge =  0 Multiplicity = 1

 SCF Done:  E(RHF) =  -564.073364637     A.U. after   16 cycles
 E2 =    -0.1665491806D+01 EUMP2 =    -0.56573885644372D+03
 Normal termination of Gaussian 09 at Wed Aug 25 14:32:58 2021.

 ---------------------------------------------------------
 #P Geom=AllCheck Guess=TCheck SCRF=Check MP4=FrzG4/GTBas3
 ---------------------------------------------------------

 Structure from the checkpoint file:  "/public/home/users/caep010/.cache/gau_scr/Gau-108712.chk"
 ------
 AMNPHA
 ------
 Charge =  0 Multiplicity = 1

 SCF Done:  E(RHF) =  -564.119900950     A.U. after   12 cycles
 E2 =    -0.1967235351D+01 EUMP2 =    -0.56608713630046D+03
 Normal termination of Gaussian 09 at Wed Aug 25 15:53:04 2021.

 -----------------------------------------------------------
 #P Geom=AllCheck Guess=TCheck SCRF=Check MP2=Full/GTLargeXP
 -----------------------------------------------------------

 Structure from the checkpoint file:  "/public/home/users/caep010/.cache/gau_scr/Gau-108712.chk"
 ------
 AMNPHA
 ------
 Charge =  0 Multiplicity = 1

 SCF Done:  E(RHF) =  -564.263447132     A.U. after   15 cycles
 E2 =    -0.2576730611D+01 EUMP2 =    -0.56684017774298D+03
 Normal termination of Gaussian 09 at Wed Aug 25 16:06:37 2021.
 SCF Done:  E(RHF) =  -564.309079007     A.U. after   10 cycles
 Normal termination of Gaussian 09 at Wed Aug 25 16:11:16 2021.

                         Standard orientation:
 ---------------------------------------------------------------------
 Center     Atomic      Atomic             Coordinates (Angstroms)
 Number     Number       Type             X           Y           Z
 ---------------------------------------------------------------------
      1          8           0        2.205392    1.781584    0.000830
      2          6           0        1.280340    0.773313   -0.005489
      3          6           0       -0.082957    0.983065   -0.003276
      4          6           0        1.812953   -0.538659   -0.007722
      5          6           0        0.920745   -1.618659   -0.002840
      6          6           0       -0.451835   -1.418204   -0.001068
      7          1           0        1.754423    2.631407    0.023874
      8          7           0        3.177543   -0.701315   -0.058334
      9          6           0       -0.942273   -0.118719   -0.002113
     10          7           0       -2.380153    0.111071    0.001948
     11          8           0       -2.774121    1.275610    0.001775
     12          8           0       -3.119443   -0.869023    0.005806
     13          1           0        3.729846    0.102696    0.194819
     14          1           0        3.549229   -1.586944    0.243887
     15          1           0        1.319445   -2.627940   -0.004172
     16          1           0       -1.146039   -2.246674    0.002504
     17          1           0       -0.505084    1.980964    0.001546
 ---------------------------------------------------------------------

 SCF Done:  E(RHF) =  -564.318023085     A.U. after    8 cycles

 The electronic state is 1-A.
 Alpha  occ. eigenvalues --  -20.61219 -20.58866 -20.58836 -15.84384 -15.58980
 Alpha  occ. eigenvalues --  -11.32096 -11.31545 -11.29483 -11.27051 -11.26797
 Alpha  occ. eigenvalues --  -11.25473  -1.59212  -1.43146  -1.38543  -1.25431
 Alpha  occ. eigenvalues --   -1.17852  -1.06729  -1.04234  -0.94688  -0.88346
 Alpha  occ. eigenvalues --   -0.82283  -0.77843  -0.75338  -0.72603  -0.71713
 Alpha  occ. eigenvalues --   -0.70987  -0.70854  -0.64441  -0.62978  -0.62537
 Alpha  occ. eigenvalues --   -0.61229  -0.57557  -0.54109  -0.53716  -0.48944
 Alpha  occ. eigenvalues --   -0.48462  -0.48178  -0.44751  -0.36053  -0.31881
 Alpha virt. eigenvalues --    0.02735   0.03284   0.04209   0.04296   0.05886
 Alpha virt. eigenvalues --    0.06393   0.06520   0.07633   0.08192   0.08348
 Alpha virt. eigenvalues --    0.08712   0.08882   0.09325   0.09819   0.10083

 Mulliken charges:
               1
     1  O   -0.623339
     2  C    0.297652
     3  C   -0.248958
     4  C    0.240137
     5  C   -0.214518
     6  C   -0.204693
     7  H    0.400519
     8  N   -0.716810
     9  C    0.109981
    10  N    0.524691
    11  O   -0.455212
    12  O   -0.445125
    13  H    0.341949
    14  H    0.316288
    15  H    0.190997
    16  H    0.257006
    17  H    0.229435
 Sum of Mulliken charges =  -0.00000

 Dipole moment (field-independent basis, Debye):
    X=              5.9748    Y=             -0.2848    Z=              0.8374  Tot=              6.0399
 Quadrupole moment (field-independent basis, Debye-Ang):
   XX=            -73.8131   YY=            -53.0221   ZZ=            -65.9402
   XY=             -1.2519   XZ=              3.4238   YZ=             -0.6229

 Normal termination of Gaussian 09 at Wed Aug 25 16:42:55 2021.
