 Gaussian 09, Revision E.01,
 Gaussian 09:  ES64L-G09RevE.01 30-Nov-2015

 ----------------
 #P G4 OPT=calcfc
 ----------------

 ------
 AFOVUP
 ------
 Symbolic Z-matrix:
 Charge =  0 Multiplicity = 1

 SCF Done:  E(RB3LYP) =  -570.594080454     A.U. after   15 cycles
 SCF Done:  E(RB3LYP) =  -570.698753004     A.U. after   13 cycles
 SCF Done:  E(RB3LYP) =  -570.763879154     A.U. after   14 cycles
 SCF Done:  E(RB3LYP) =  -570.765090580     A.U. after   14 cycles
 SCF Done:  E(RB3LYP) =  -570.763521148     A.U. after   14 cycles
 SCF Done:  E(RB3LYP) =  -570.765124012     A.U. after   10 cycles
 SCF Done:  E(RB3LYP) =  -570.765476436     A.U. after   11 cycles
 SCF Done:  E(RB3LYP) =  -570.765456854     A.U. after   11 cycles
 SCF Done:  E(RB3LYP) =  -570.765620077     A.U. after   11 cycles
 SCF Done:  E(RB3LYP) =  -570.765650944     A.U. after   11 cycles
 SCF Done:  E(RB3LYP) =  -570.765658985     A.U. after   10 cycles
 SCF Done:  E(RB3LYP) =  -570.765659720     A.U. after    8 cycles
 SCF Done:  E(RB3LYP) =  -570.765659952     A.U. after    8 cycles
 Optimization completed.
    -- Stationary point found.
 Normal termination of Gaussian 09 at Wed Aug 25 00:57:41 2021.

 ----------------------------------------------------------
 #P Geom=AllCheck Guess=TCheck SCRF=Check B3LYP/GTBas3 Freq
 ----------------------------------------------------------

 Structure from the checkpoint file:  "/public/home/users/caep010/.cache/gau_scr/Gau-228996.chk"
 ------
 AFOVUP
 ------
 Charge =  0 Multiplicity = 1

 SCF Done:  E(RB3LYP) =  -570.765659952     A.U. after    1 cycles

  Exact polarizability: 188.280  -0.000 112.597   0.002  -0.001  54.785
 Approx polarizability: 291.906  -0.000 208.590  -0.005  -0.005  87.960

                      1                      2                      3
                      A                      A                      A
 Frequencies --     60.6784                64.8664                83.8126
 Red. masses --      2.7493                 4.5189                 2.8237
 Frc consts  --      0.0060                 0.0112                 0.0117
 IR Inten    --      0.5891                 0.0000                 0.0000

                      4                      5                      6
                      A                      A                      A
 Frequencies --     87.7288               175.8917               199.2194
 Red. masses --      2.1167                 5.0256                 1.1513
 Frc consts  --      0.0096                 0.0916                 0.0269
 IR Inten    --      1.3040                 0.5305                 0.0000

                      7                      8                      9
                      A                      A                      A
 Frequencies --    199.6676               289.7120               305.3102
 Red. masses --      2.0719                 4.2585                 5.9054
 Frc consts  --      0.0487                 0.2106                 0.3243
 IR Inten    --      4.1665                 0.1525                 0.1156

                     10                     11                     12
                      A                      A                      A
 Frequencies --    321.4808               436.5568               473.5937
 Red. masses --      3.9423                 3.3097                 3.2736
 Frc consts  --      0.2401                 0.3716                 0.4326
 IR Inten    --      0.1165                 0.0000                 0.1983

                     13                     14                     15
                      A                      A                      A
 Frequencies --    475.9695               516.5096               547.8954
 Red. masses --      4.3411                 2.6633                 5.7931
 Frc consts  --      0.5794                 0.4186                 1.0246
 IR Inten    --      2.0738                 4.5190                 4.8684

                     16                     17                     18
                      A                      A                      A
 Frequencies --    620.3325               642.4868               715.9045
 Red. masses --      4.8313                 7.2124                 3.2392
 Frc consts  --      1.0954                 1.7541                 0.9781
 IR Inten    --      4.7274                 0.6368                10.8041

                     19                     20                     21
                      A                      A                      A
 Frequencies --    762.6286               785.3593               817.2969
 Red. masses --      5.7221                 5.5487                 1.2482
 Frc consts  --      1.9608                 2.0164                 0.4913
 IR Inten    --      8.2340                23.0058                 0.0000

                     22                     23                     24
                      A                      A                      A
 Frequencies --    851.7540               868.6496               960.6575
 Red. masses --      2.0267                10.5520                 1.2938
 Frc consts  --      0.8663                 4.6911                 0.7035
 IR Inten    --     28.1400                20.7279                 0.0000

                     25                     26                     27
                      A                      A                      A
 Frequencies --    965.8525               990.3028              1013.2335
 Red. masses --      3.0271                 1.3612                 3.0717
 Frc consts  --      1.6638                 0.7865                 1.8580
 IR Inten    --     18.2775                 1.5626                 5.2037

                     28                     29                     30
                      A                      A                      A
 Frequencies --   1084.2330              1135.5149              1141.2343
 Red. masses --      1.5184                 2.3210                 1.2891
 Frc consts  --      1.0516                 1.7633                 0.9892
 IR Inten    --     25.5867               150.7050                 4.6381

                     31                     32                     33
                      A                      A                      A
 Frequencies --   1144.9925              1149.9566              1200.5514
 Red. masses --      1.3184                 1.2384                 1.7043
 Frc consts  --      1.0184                 0.9649                 1.4473
 IR Inten    --      0.1245                 0.0000                 7.7475

                     34                     35                     36
                      A                      A                      A
 Frequencies --   1222.1848              1275.2303              1336.2309
 Red. masses --      1.4049                 2.9022                 1.4792
 Frc consts  --      1.2364                 2.7807                 1.5562
 IR Inten    --     22.7186                28.1260                 3.6635

                     37                     38                     39
                      A                      A                      A
 Frequencies --   1371.9963              1379.4633              1403.2719
 Red. masses --      6.9899                 8.0907                 3.6999
 Frc consts  --      7.7522                 9.0710                 4.2927
 IR Inten    --    959.6458                 3.7151                 4.7272

                     40                     41                     42
                      A                      A                      A
 Frequencies --   1448.9159              1469.3980              1480.9663
 Red. masses --      1.2716                 2.5079                 1.0374
 Frc consts  --      1.5728                 3.1903                 1.3406
 IR Inten    --      0.2153                 3.2623                 0.0001

                     43                     44                     45
                      A                      A                      A
 Frequencies --   1489.4833              1492.4266              1516.6765
 Red. masses --      1.0436                 1.2612                 1.1044
 Frc consts  --      1.3641                 1.6551                 1.4968
 IR Inten    --     10.3257                21.7462                 0.5286

                     46                     47                     48
                      A                      A                      A
 Frequencies --   1528.0348              1553.6126              1582.6465
 Red. masses --      1.1367                 2.3470                 9.2729
 Frc consts  --      1.5638                 3.3376                13.6847
 IR Inten    --     17.6374               155.6406                68.9570

                     49                     50                     51
                      A                      A                      A
 Frequencies --   1638.7352              1645.2004              3001.0135
 Red. masses --      9.9056                 5.7300                 1.0379
 Frc consts  --     15.6729                 9.1378                 5.5075
 IR Inten    --    151.0058               294.4554                73.9290

                     52                     53                     54
                      A                      A                      A
 Frequencies --   3008.0579              3048.5854              3049.6546
 Red. masses --      1.0413                 1.1017                 1.1049
 Frc consts  --      5.5514                 6.0328                 6.0547
 IR Inten    --     53.6071                 0.8085                57.8934

                     55                     56                     57
                      A                      A                      A
 Frequencies --   3135.2790              3148.0099              3219.6118
 Red. masses --      1.0966                 1.0939                 1.0864
 Frc consts  --      6.3514                 6.3873                 6.6351
 IR Inten    --      1.5952                28.7014                 3.5895

                     58                     59                     60
                      A                      A                      A
 Frequencies --   3220.7196              3234.6714              3235.6563
 Red. masses --      1.0865                 1.0932                 1.0940
 Frc consts  --      6.6403                 6.7395                 6.7482
 IR Inten    --      5.6147                 0.8270                 5.7641

 - Thermochemistry -
 -------------------
 Temperature   298.150 Kelvin.  Pressure   1.00000 Atm.
 Atom     1 has atomic number  6 and mass  12.00000

 Molecular mass:   166.07423 amu.
 Principal axes and moments of inertia in atomic units:
                           1         2         3
     Eigenvalues --   656.193493781.663924415.15537
           X            1.00000   0.00000   0.00001
           Y           -0.00000   1.00000   0.00000
           Z           -0.00001  -0.00000   1.00000
 This molecule is an asymmetric top.
 Rotational symmetry number  1.
 Warning -- assumption of classical behavior for rotation
           may cause significant error
 Rotational temperatures (Kelvin)      0.13199     0.02290     0.01962
 Rotational constants (GHZ):           2.75032     0.47723     0.40876
 Zero-point vibrational energy     461911.5 (Joules/Mol)
                                  110.39949 (Kcal/Mol)
 Warning -- explicit consideration of  16 degrees of freedom as
           vibrations may cause significant error
 Vibrational temperatures:     87.30    93.33   120.59   126.22   253.07
          (Kelvin)            286.63   287.28   416.83   439.27   462.54
                              628.11   681.39   684.81   743.14   788.30
                              892.52   924.39  1030.03  1097.25  1129.96
                             1175.91  1225.48  1249.79  1382.17  1389.64
                             1424.82  1457.82  1559.97  1633.75  1641.98
                             1647.39  1654.53  1727.32  1758.45  1834.77
                             1922.54  1973.99  1984.74  2018.99  2084.66
                             2114.13  2130.78  2143.03  2147.27  2182.16
                             2198.50  2235.30  2277.07  2357.77  2367.07
                             4317.78  4327.92  4386.23  4387.77  4510.96
                             4529.28  4632.30  4633.89  4653.96  4655.38

 Zero-point correction=                           0.175933 (Hartree/Particle)
 Thermal correction to Energy=                    0.187196
 Thermal correction to Enthalpy=                  0.188141
 Thermal correction to Gibbs Free Energy=         0.137981
 Sum of electronic and zero-point Energies=           -570.589727
 Sum of electronic and thermal Energies=              -570.578463
 Sum of electronic and thermal Enthalpies=            -570.577519
 Sum of electronic and thermal Free Energies=         -570.627679

                     E (Thermal)             CV                S
                      KCal/Mol        Cal/Mol-Kelvin    Cal/Mol-Kelvin
 Total                  117.468             41.225            105.569
 Electronic               0.000              0.000              0.000
 Translational            0.889              2.981             41.230
 Rotational               0.889              2.981             30.772
 Vibrational            115.690             35.263             33.567
 Vibration     1          0.597              1.973              4.435
 Vibration     2          0.597              1.971              4.303
 Vibration     3          0.601              1.960              3.800
 Vibration     4          0.601              1.958              3.710
 Vibration     5          0.628              1.872              2.372
 Vibration     6          0.637              1.841              2.140
 Vibration     7          0.638              1.840              2.136
 Vibration     8          0.686              1.693              1.476
 Vibration     9          0.696              1.664              1.388
 Vibration    10          0.707              1.632              1.303
 Vibration    11          0.797              1.391              0.838
 Vibration    12          0.830              1.309              0.728
 Vibration    13          0.833              1.303              0.721
 Vibration    14          0.872              1.213              0.618
 Vibration    15          0.903              1.144              0.549
 Vibration    16          0.980              0.989              0.416

 Optimization completed.
    -- Stationary point found.
 Normal termination of Gaussian 09 at Wed Aug 25 01:00:24 2021.

 -----------------------------------------------------------------
 #P Geom=AllCheck Guess=TCheck SCRF=Check CCSD(T,E4T,FrzG4)/GTBas1
 -----------------------------------------------------------------

 Structure from the checkpoint file:  "/public/home/users/caep010/.cache/gau_scr/Gau-228996.chk"
 ------
 AFOVUP
 ------
 Charge =  0 Multiplicity = 1

 SCF Done:  E(RHF) =  -567.253466999     A.U. after   14 cycles
 E2 =    -0.1725002885D+01 EUMP2 =    -0.56897846988372D+03
 CCSD(T)
 CCSD(T)= -0.56910195854D+03
 6407\CCSD(T)=-569.1019585\RMSD=6.345e-09\PG=C01 [X(C8H10N2O2)]\\@
 Normal termination of Gaussian 09 at Wed Aug 25 02:08:53 2021.

 ---------------------------------------------------------
 #P Geom=AllCheck Guess=TCheck SCRF=Check MP4=FrzG4/GTBas2
 ---------------------------------------------------------

 Structure from the checkpoint file:  "/public/home/users/caep010/.cache/gau_scr/Gau-228996.chk"
 ------
 AFOVUP
 ------
 Charge =  0 Multiplicity = 1

 SCF Done:  E(RHF) =  -567.268518234     A.U. after   15 cycles
 E2 =    -0.1746239051D+01 EUMP2 =    -0.56901475728525D+03
 Normal termination of Gaussian 09 at Wed Aug 25 02:35:23 2021.

 ---------------------------------------------------------
 #P Geom=AllCheck Guess=TCheck SCRF=Check MP4=FrzG4/GTBas3
 ---------------------------------------------------------

 Structure from the checkpoint file:  "/public/home/users/caep010/.cache/gau_scr/Gau-228996.chk"
 ------
 AFOVUP
 ------
 Charge =  0 Multiplicity = 1

 SCF Done:  E(RHF) =  -567.312301975     A.U. after   12 cycles
 E2 =    -0.2076056183D+01 EUMP2 =    -0.56938835815722D+03
 Normal termination of Gaussian 09 at Wed Aug 25 05:37:49 2021.

 -----------------------------------------------------------
 #P Geom=AllCheck Guess=TCheck SCRF=Check MP2=Full/GTLargeXP
 -----------------------------------------------------------

 Structure from the checkpoint file:  "/public/home/users/caep010/.cache/gau_scr/Gau-228996.chk"
 ------
 AFOVUP
 ------
 Charge =  0 Multiplicity = 1

 SCF Done:  E(RHF) =  -567.446178916     A.U. after   13 cycles
 E2 =    -0.2725561689D+01 EUMP2 =    -0.57017174060487D+03
 Normal termination of Gaussian 09 at Wed Aug 25 05:50:46 2021.
 SCF Done:  E(RHF) =  -567.491426184     A.U. after   10 cycles
 Normal termination of Gaussian 09 at Wed Aug 25 05:57:36 2021.

                         Standard orientation:
 ---------------------------------------------------------------------
 Center     Atomic      Atomic             Coordinates (Angstroms)
 Number     Number       Type             X           Y           Z
 ---------------------------------------------------------------------
      1          6           0       -3.413598   -1.254083   -0.000378
      2          1           0       -4.483190   -1.044772   -0.000413
      3          1           0       -3.187822   -1.859323    0.887247
      4          7           0       -2.681602    0.000004    0.000253
      5          6           0       -1.310398    0.000006    0.000170
      6          6           0       -0.576811   -1.212162    0.000234
      7          6           0       -3.413619    1.254069    0.000030
      8          1           0       -1.093326   -2.161918    0.000374
      9          1           0       -3.187244    1.859324    0.887658
     10          1           0       -3.188180    1.858601   -0.888286
     11          6           0       -0.576805    1.212168    0.000024
     12          1           0       -1.093330    2.161940   -0.000104
     13          1           0       -4.483173    1.044757    0.000713
     14          6           0        0.804846   -1.209155    0.000174
     15          1           0       -3.187591   -1.858598   -0.888666
     16          6           0        1.496133    0.000002    0.000044
     17          7           0        2.950484   -0.000002   -0.000059
     18          8           0        3.525194   -1.086173   -0.000048
     19          8           0        3.525201    1.086166   -0.000153
     20          1           0        1.365442   -2.134420    0.000228
     21          6           0        0.804855    1.209160   -0.000026
     22          1           0        1.365454    2.134422   -0.000139
 ---------------------------------------------------------------------

 SCF Done:  E(RHF) =  -567.500170770     A.U. after    7 cycles

 The electronic state is 1-A.
 Alpha  occ. eigenvalues --  -20.58078 -20.58073 -15.83626 -15.59800 -11.31437
 Alpha  occ. eigenvalues --  -11.28149 -11.27967 -11.27965 -11.26747 -11.26740
 Alpha  occ. eigenvalues --  -11.24491 -11.24490  -1.58441  -1.37769  -1.28776
 Alpha  occ. eigenvalues --   -1.17827  -1.07467  -1.04596  -0.99418  -0.97098
 Alpha  occ. eigenvalues --   -0.88631  -0.85388  -0.79986  -0.76822  -0.71855
 Alpha  occ. eigenvalues --   -0.71456  -0.70242  -0.67445  -0.66267  -0.64881
 Alpha  occ. eigenvalues --   -0.61591  -0.60343  -0.59828  -0.58483  -0.56390
 Alpha  occ. eigenvalues --   -0.55550  -0.53074  -0.50822  -0.48194  -0.47720
 Alpha  occ. eigenvalues --   -0.44084  -0.43810  -0.36585  -0.31052
 Alpha virt. eigenvalues --    0.02568   0.02967   0.04085   0.04263   0.05193
 Alpha virt. eigenvalues --    0.05195   0.05925   0.06451   0.06563   0.07614
 Alpha virt. eigenvalues --    0.07916   0.07966   0.09240   0.09270   0.09285

 Mulliken charges:
               1
     1  C   -0.549623
     2  H    0.200636
     3  H    0.182118
     4  N    0.011339
     5  C    0.259335
     6  C   -0.259994
     7  C   -0.549629
     8  H    0.204034
     9  H    0.182125
    10  H    0.182107
    11  C   -0.259998
    12  H    0.204033
    13  H    0.200642
    14  C   -0.196328
    15  H    0.182120
    16  C    0.073059
    17  N    0.521228
    18  O   -0.455451
    19  O   -0.455452
    20  H    0.260011
    21  C   -0.196324
    22  H    0.260012
 Sum of Mulliken charges =  -0.00000

 Dipole moment (field-independent basis, Debye):
    X=             -8.2418    Y=             -0.0001    Z=             -0.0001  Tot=              8.2418
 Quadrupole moment (field-independent basis, Debye-Ang):
   XX=            -81.2366   YY=            -66.4950   ZZ=            -73.4340
   XY=              0.0002   XZ=              0.0019   YZ=             -0.0005

 Normal termination of Gaussian 09 at Wed Aug 25 06:38:06 2021.
