 Gaussian 09, Revision E.01,
 Gaussian 09:  ES64L-G09RevE.01 30-Nov-2015

 -----
 #P G4
 -----

 --
 Cl
 --
 Symbolic Z-matrix:
 Charge =  0 Multiplicity = 2

 SCF Done:  E(UB3LYP) =  -460.136685871     A.U. after   10 cycles
 Optimization completed.
    -- Stationary point found.
 Normal termination of Gaussian 09 at Fri Aug 19 08:48:10 2022.

 ----------------------------------------------------------
 #P Geom=AllCheck Guess=TCheck SCRF=Check B3LYP/GTBas3 Freq
 ----------------------------------------------------------

 Structure from the checkpoint file:  "/public/home/users/caep010/.cache/gau_scr/Gau-210919.chk"
 --
 Cl
 --
 Charge =  0 Multiplicity = 2

 SCF Done:  E(UB3LYP) =  -460.136685871     A.U. after    1 cycles

  Exact polarizability:   8.609  -0.000   9.353   0.000  -0.000   9.353
 Approx polarizability:  13.551  -0.000  12.560  -0.000  -0.000  12.560

 - Thermochemistry -
 -------------------
 Temperature   298.150 Kelvin.  Pressure   1.00000 Atm.
 Atom     1 has atomic number 17 and mass  34.96885
 Molecular mass:    34.96885 amu.
 Zero-point vibrational energy          0.0 (Joules/Mol)
                                    0.00000 (Kcal/Mol)
 Vibrational temperatures:
          (Kelvin)

 Zero-point correction=                           0.000000 (Hartree/Particle)
 Thermal correction to Energy=                    0.001416
 Thermal correction to Enthalpy=                  0.002360
 Thermal correction to Gibbs Free Energy=        -0.015677
 Sum of electronic and zero-point Energies=           -460.136686
 Sum of electronic and thermal Energies=              -460.135270
 Sum of electronic and thermal Enthalpies=            -460.134325
 Sum of electronic and thermal Free Energies=         -460.152363

                     E (Thermal)             CV                S
                      KCal/Mol        Cal/Mol-Kelvin    Cal/Mol-Kelvin
 Total                    0.889              2.981             37.964
 Electronic               0.000              0.000              1.377
 Translational            0.889              2.981             36.586
 Rotational               0.000              0.000              0.000
 Vibrational              0.000              0.000              0.000

 Optimization completed.
    -- Stationary point found.
 Normal termination of Gaussian 09 at Fri Aug 19 08:48:17 2022.

 -----------------------------------------------------------------
 #P Geom=AllCheck Guess=TCheck SCRF=Check CCSD(T,E4T,FrzG4)/GTBas1
 -----------------------------------------------------------------

 Structure from the checkpoint file:  "/public/home/users/caep010/.cache/gau_scr/Gau-210919.chk"
 --
 Cl
 --
 Charge =  0 Multiplicity = 2

 SCF Done:  E(UHF) =  -459.447963919     A.U. after   10 cycles
 E2 =    -0.1044693576D+00 EUMP2 =    -0.45955243327676D+03
 CCSD(T)
 CCSD(T)= -0.45957048419D+03
 .5686911\CCSD=-459.5689709\CCSD(T)=-459.5704842\S2=0.755002\S2-1=0.749
 Normal termination of Gaussian 09 at Fri Aug 19 08:48:22 2022.

 ---------------------------------------------------------
 #P Geom=AllCheck Guess=TCheck SCRF=Check MP4=FrzG4/GTBas2
 ---------------------------------------------------------

 Structure from the checkpoint file:  "/public/home/users/caep010/.cache/gau_scr/Gau-210919.chk"
 --
 Cl
 --
 Charge =  0 Multiplicity = 2

 SCF Done:  E(UHF) =  -459.448712079     A.U. after    9 cycles
 E2 =    -0.1053786451D+00 EUMP2 =    -0.45955409072357D+03
 Normal termination of Gaussian 09 at Fri Aug 19 08:48:26 2022.

 ---------------------------------------------------------
 #P Geom=AllCheck Guess=TCheck SCRF=Check MP4=FrzG4/GTBas3
 ---------------------------------------------------------

 Structure from the checkpoint file:  "/public/home/users/caep010/.cache/gau_scr/Gau-210919.chk"
 --
 Cl
 --
 Charge =  0 Multiplicity = 2

 SCF Done:  E(UHF) =  -459.450360833     A.U. after    9 cycles
 E2 =    -0.1450148293D+00 EUMP2 =    -0.45959537566207D+03
 Normal termination of Gaussian 09 at Fri Aug 19 08:48:31 2022.

 -----------------------------------------------------------
 #P Geom=AllCheck Guess=TCheck SCRF=Check MP2=Full/GTLargeXP
 -----------------------------------------------------------

 Structure from the checkpoint file:  "/public/home/users/caep010/.cache/gau_scr/Gau-210919.chk"
 --
 Cl
 --
 Charge =  0 Multiplicity = 2

 SCF Done:  E(UHF) =  -459.479058245     A.U. after    8 cycles
 E2 =    -0.4728066859D+00 EUMP2 =    -0.45995186493131D+03
 Normal termination of Gaussian 09 at Fri Aug 19 08:48:34 2022.
 SCF Done:  E(UHF) =  -459.489127034     A.U. after    8 cycles
 Normal termination of Gaussian 09 at Fri Aug 19 08:48:38 2022.

                         Standard orientation:
 ---------------------------------------------------------------------
 Center     Atomic      Atomic             Coordinates (Angstroms)
 Number     Number       Type             X           Y           Z
 ---------------------------------------------------------------------
      1         17           0        0.000000    0.000000    0.000000
 ---------------------------------------------------------------------

 SCF Done:  E(UHF) =  -459.489720928     A.U. after    8 cycles

 Unable to determine electronic state:  an orbital has unidentified symmetry.
 Alpha  occ. eigenvalues -- -104.88949 -10.61217  -8.09795  -8.07367  -8.07367
 Alpha  occ. eigenvalues --   -1.13606  -0.58175  -0.50249  -0.50249
 Alpha virt. eigenvalues --    0.08128   0.08687   0.08687   0.08709   0.37749
 Alpha virt. eigenvalues --    0.39816   0.39816   0.45048   0.46125   0.46125
 Alpha virt. eigenvalues --    0.49830   0.49830   0.51043   1.11543   1.11964

  Beta  occ. eigenvalues -- -104.87769 -10.60106  -8.06765  -8.06765  -8.04813
  Beta  occ. eigenvalues --   -1.01441  -0.48087  -0.48087
  Beta virt. eigenvalues --   -0.04089   0.08735   0.08735   0.09048   0.09514
  Beta virt. eigenvalues --    0.40131   0.40131   0.42301   0.50006   0.50006
  Beta virt. eigenvalues --    0.52249   0.52666   0.52666   0.53845   1.14012

 Mulliken charges and spin densities:
               1          2
     1  Cl  -0.000000   1.000000
 Sum of Mulliken charges =  -0.00000   1.00000

 Dipole moment (field-independent basis, Debye):
    X=              0.0000    Y=              0.0000    Z=              0.0000  Tot=              0.0000
 Quadrupole moment (field-independent basis, Debye-Ang):
   XX=            -10.9168   YY=            -13.1194   ZZ=            -13.1194
   XY=              0.0000   XZ=             -0.0000   YZ=             -0.0000

 CCSD(T)/G3Bas1=-459.5704842\MP2/GTBas2=-459.5540907\MP4/GTBas2=-459.57
 Normal termination of Gaussian 09 at Fri Aug 19 08:48:45 2022.
