 Gaussian 09, Revision E.01,
 Gaussian 09:  ES64L-G09RevE.01 30-Nov-2015

 -----
 #P G4
 -----

 -
 F
 -
 Symbolic Z-matrix:
 Charge =  0 Multiplicity = 2

 SCF Done:  E(UB3LYP) =  -99.7187304233     A.U. after    9 cycles
 Optimization completed.
    -- Stationary point found.
 Normal termination of Gaussian 09 at Fri Aug 19 08:48:23 2022.

 ----------------------------------------------------------
 #P Geom=AllCheck Guess=TCheck SCRF=Check B3LYP/GTBas3 Freq
 ----------------------------------------------------------

 Structure from the checkpoint file:  "/public/home/users/caep010/.cache/gau_scr/Gau-190159.chk"
 -
 F
 -
 Charge =  0 Multiplicity = 2

 SCF Done:  E(UB3LYP) =  -99.7187304233     A.U. after    1 cycles

  Exact polarizability:   2.588  -0.000   2.520   0.000  -0.000   2.520
 Approx polarizability:   3.134  -0.000   2.782  -0.000  -0.000   2.782

 - Thermochemistry -
 -------------------
 Temperature   298.150 Kelvin.  Pressure   1.00000 Atm.
 Atom     1 has atomic number  9 and mass  18.99840
 Molecular mass:    18.99840 amu.
 Zero-point vibrational energy          0.0 (Joules/Mol)
                                    0.00000 (Kcal/Mol)
 Vibrational temperatures:
          (Kelvin)

 Zero-point correction=                           0.000000 (Hartree/Particle)
 Thermal correction to Energy=                    0.001416
 Thermal correction to Enthalpy=                  0.002360
 Thermal correction to Gibbs Free Energy=        -0.014813
 Sum of electronic and zero-point Energies=            -99.718730
 Sum of electronic and thermal Energies=               -99.717314
 Sum of electronic and thermal Enthalpies=             -99.716370
 Sum of electronic and thermal Free Energies=          -99.733544

                     E (Thermal)             CV                S
                      KCal/Mol        Cal/Mol-Kelvin    Cal/Mol-Kelvin
 Total                    0.889              2.981             36.145
 Electronic               0.000              0.000              1.377
 Translational            0.889              2.981             34.767
 Rotational               0.000              0.000              0.000
 Vibrational              0.000              0.000              0.000

 Optimization completed.
    -- Stationary point found.
 Normal termination of Gaussian 09 at Fri Aug 19 08:48:30 2022.

 -----------------------------------------------------------------
 #P Geom=AllCheck Guess=TCheck SCRF=Check CCSD(T,E4T,FrzG4)/GTBas1
 -----------------------------------------------------------------

 Structure from the checkpoint file:  "/public/home/users/caep010/.cache/gau_scr/Gau-190159.chk"
 -
 F
 -
 Charge =  0 Multiplicity = 2

 SCF Done:  E(UHF) =  -99.3649568696     A.U. after    9 cycles
 E2 =    -0.1223142443D+00 EUMP2 =    -0.99487271113930D+02
 CCSD(T)
 CCSD(T)= -0.99498886416D+02
 =-99.4976805\CCSD(T)=-99.4988864\S2=0.752673\S2-1=0.749783\S2A=0.75000
 Normal termination of Gaussian 09 at Fri Aug 19 08:48:36 2022.

 ---------------------------------------------------------
 #P Geom=AllCheck Guess=TCheck SCRF=Check MP4=FrzG4/GTBas2
 ---------------------------------------------------------

 Structure from the checkpoint file:  "/public/home/users/caep010/.cache/gau_scr/Gau-190159.chk"
 -
 F
 -
 Charge =  0 Multiplicity = 2

 SCF Done:  E(UHF) =  -99.3716524112     A.U. after    9 cycles
 E2 =    -0.1271677725D+00 EUMP2 =    -0.99498820183693D+02
 Normal termination of Gaussian 09 at Fri Aug 19 08:48:39 2022.

 ---------------------------------------------------------
 #P Geom=AllCheck Guess=TCheck SCRF=Check MP4=FrzG4/GTBas3
 ---------------------------------------------------------

 Structure from the checkpoint file:  "/public/home/users/caep010/.cache/gau_scr/Gau-190159.chk"
 -
 F
 -
 Charge =  0 Multiplicity = 2

 SCF Done:  E(UHF) =  -99.3673488715     A.U. after    9 cycles
 E2 =    -0.1719382785D+00 EUMP2 =    -0.99539287149910D+02
 Normal termination of Gaussian 09 at Fri Aug 19 08:48:45 2022.

 -----------------------------------------------------------
 #P Geom=AllCheck Guess=TCheck SCRF=Check MP2=Full/GTLargeXP
 -----------------------------------------------------------

 Structure from the checkpoint file:  "/public/home/users/caep010/.cache/gau_scr/Gau-190159.chk"
 -
 F
 -
 Charge =  0 Multiplicity = 2

 SCF Done:  E(UHF) =  -99.4018821731     A.U. after    9 cycles
 E2 =    -0.2485504451D+00 EUMP2 =    -0.99650432618209D+02
 Normal termination of Gaussian 09 at Fri Aug 19 08:48:47 2022.
 SCF Done:  E(UHF) =  -99.4140073825     A.U. after    8 cycles
 Normal termination of Gaussian 09 at Fri Aug 19 08:48:51 2022.

                         Standard orientation:
 ---------------------------------------------------------------------
 Center     Atomic      Atomic             Coordinates (Angstroms)
 Number     Number       Type             X           Y           Z
 ---------------------------------------------------------------------
      1          9           0        0.000000    0.000000    0.000000
 ---------------------------------------------------------------------

 SCF Done:  E(UHF) =  -99.4160635567     A.U. after    7 cycles

 Unable to determine electronic state:  an orbital has unidentified symmetry.
 Alpha  occ. eigenvalues --  -26.40665  -1.67241  -0.84534  -0.73157  -0.73157
 Alpha virt. eigenvalues --    0.12685   0.13246   0.13246   0.15088   0.56926
 Alpha virt. eigenvalues --    0.59317   0.59317   0.91004   1.23019   1.23953
 Alpha virt. eigenvalues --    1.23953   1.27071   1.27071   1.93814   1.99390

  Beta  occ. eigenvalues --  -26.35878  -1.47689  -0.67981  -0.67981
  Beta virt. eigenvalues --    0.03386   0.13341   0.13341   0.15551   0.16455
  Beta virt. eigenvalues --    0.59975   0.59975   0.65821   0.93345   1.26991
  Beta virt. eigenvalues --    1.26991   1.28020   1.28020   1.28461   2.00983

 Mulliken charges and spin densities:
               1          2
     1  F   -0.000000   1.000000
 Sum of Mulliken charges =  -0.00000   1.00000

 Dipole moment (field-independent basis, Debye):
    X=              0.0000    Y=              0.0000    Z=              0.0000  Tot=              0.0000
 Quadrupole moment (field-independent basis, Debye-Ang):
   XX=             -3.9851   YY=             -4.8986   ZZ=             -4.8986
   XY=              0.0000   XZ=             -0.0000   YZ=             -0.0000

 Normal termination of Gaussian 09 at Fri Aug 19 08:48:58 2022.
