 Gaussian 09, Revision E.01,
 Gaussian 09:  ES64L-G09RevE.01 30-Nov-2015

 ----------------
 #P G4 OPT=calcfc
 ----------------

 ------
 AMNTPY
 ------
 Symbolic Z-matrix:
 Charge =  0 Multiplicity = 1

 SCF Done:  E(RB3LYP) =  -508.136768758     A.U. after   16 cycles
 SCF Done:  E(RB3LYP) =  -508.186272770     A.U. after   13 cycles
 SCF Done:  E(RB3LYP) =  -508.192661628     A.U. after   14 cycles
 SCF Done:  E(RB3LYP) =  -508.193054836     A.U. after   13 cycles
 SCF Done:  E(RB3LYP) =  -508.193079557     A.U. after   10 cycles
 SCF Done:  E(RB3LYP) =  -508.193083882     A.U. after    9 cycles
 SCF Done:  E(RB3LYP) =  -508.193084518     A.U. after    8 cycles
 SCF Done:  E(RB3LYP) =  -508.193084715     A.U. after    7 cycles
 Optimization completed.
    -- Stationary point found.
 Normal termination of Gaussian 09 at Thu Aug 26 02:25:38 2021.

 ----------------------------------------------------------
 #P Geom=AllCheck Guess=TCheck SCRF=Check B3LYP/GTBas3 Freq
 ----------------------------------------------------------

 Structure from the checkpoint file:  "/public/home/users/caep010/.cache/gau_scr/Gau-70565.chk"
 ------
 AMNTPY
 ------
 Charge =  0 Multiplicity = 1

 SCF Done:  E(RB3LYP) =  -508.193084715     A.U. after    1 cycles

  Exact polarizability: 112.147   3.208 100.943  -0.002   0.001  35.056
 Approx polarizability: 191.445   2.341 197.535  -0.006  -0.002  57.626

                      1                      2                      3
                      A                      A                      A
 Frequencies --     76.2467               120.0532               247.3215
 Red. masses --     12.1173                 6.2381                 5.3756
 Frc consts  --      0.0415                 0.0530                 0.1937
 IR Inten    --      1.7526                 0.1728                 0.5439

                      4                      5                      6
                      A                      A                      A
 Frequencies --    280.9223               291.1486               388.9169
 Red. masses --      1.1344                 7.3728                 4.6122
 Frc consts  --      0.0527                 0.3682                 0.4110
 IR Inten    --    178.9880                 4.5910                 5.6743

                      7                      8                      9
                      A                      A                      A
 Frequencies --    406.4052               442.3887               545.8782
 Red. masses --      6.2217                 4.1910                 5.3872
 Frc consts  --      0.6054                 0.4833                 0.9458
 IR Inten    --      2.7478                10.2529                 6.5893

                     10                     11                     12
                      A                      A                      A
 Frequencies --    550.2256               580.0449               647.6854
 Red. masses --      3.0861                 6.8249                 1.0465
 Frc consts  --      0.5505                 1.3529                 0.2587
 IR Inten    --      5.0820                 0.2526                 0.9834

                     13                     14                     15
                      A                      A                      A
 Frequencies --    687.7651               754.1588               788.6685
 Red. masses --      7.3289                 7.1574                 1.8680
 Frc consts  --      2.0425                 2.3984                 0.6845
 IR Inten    --      3.9781                 2.7304                40.9607

                     16                     17                     18
                      A                      A                      A
 Frequencies --    840.2378               843.3180               912.7861
 Red. masses --      2.8585                 8.2329                 6.2289
 Frc consts  --      1.1890                 3.4497                 3.0577
 IR Inten    --      0.0382                17.5570                18.5365

                     19                     20                     21
                      A                      A                      A
 Frequencies --    994.7056              1004.5702              1006.8537
 Red. masses --      1.3977                 1.3612                 2.0933
 Frc consts  --      0.8148                 0.8094                 1.2503
 IR Inten    --      0.5093                 0.2971                 0.7760

                     22                     23                     24
                      A                      A                      A
 Frequencies --   1096.2414              1109.4417              1173.8880
 Red. masses --      1.9117                 2.6353                 1.5078
 Frc consts  --      1.3536                 1.9111                 1.2242
 IR Inten    --      6.5885                35.6202                 7.3464

                     25                     26                     27
                      A                      A                      A
 Frequencies --   1295.4418              1303.7882              1374.8299
 Red. masses --      1.7893                 5.7275                 5.3684
 Frc consts  --      1.7691                 5.7363                 5.9785
 IR Inten    --     45.5125               215.6445               114.3930

                     28                     29                     30
                      A                      A                      A
 Frequencies --   1387.4516              1479.4486              1483.4796
 Red. masses --      2.3188                 2.4717                 2.1885
 Frc consts  --      2.6299                 3.1875                 2.8376
 IR Inten    --     78.6147                33.4384                95.2083

                     31                     32                     33
                      A                      A                      A
 Frequencies --   1568.2450              1608.0349              1614.1588
 Red. masses --      4.0785                 6.4223                 2.4222
 Frc consts  --      5.9098                 9.7844                 3.7184
 IR Inten    --    103.6885               174.2151                14.7665

                     34                     35                     36
                      A                      A                      A
 Frequencies --   1666.1284              3151.4523              3215.8665
 Red. masses --      7.6333                 1.0894                 1.0905
 Frc consts  --     12.4847                 6.3749                 6.6445
 IR Inten    --    477.4296                21.1572                 4.0269

                     37                     38                     39
                      A                      A                      A
 Frequencies --   3236.6903              3584.8639              3737.4419
 Red. masses --      1.0939                 1.0434                 1.1061
 Frc consts  --      6.7521                 7.9005                 9.1032
 IR Inten    --      2.9402                89.0649               102.7374

 - Thermochemistry -
 -------------------
 Temperature   298.150 Kelvin.  Pressure   1.00000 Atm.
 Atom     1 has atomic number  6 and mass  12.00000

 Molecular mass:   139.03818 amu.
 Principal axes and moments of inertia in atomic units:
                           1         2         3
     Eigenvalues --   753.208081401.032392154.24037
           X            0.99928   0.03799  -0.00000
           Y           -0.03799   0.99928   0.00003
           Z            0.00000  -0.00003   1.00000
 This molecule is an asymmetric top.
 Rotational symmetry number  1.
 Warning -- assumption of classical behavior for rotation
           may cause significant error
 Rotational temperatures (Kelvin)      0.11499     0.06182     0.04021
 Rotational constants (GHZ):           2.39607     1.28815     0.83776
 Zero-point vibrational energy     284096.3 (Joules/Mol)
                                   67.90065 (Kcal/Mol)
 Warning -- explicit consideration of  11 degrees of freedom as
           vibrations may cause significant error
 Vibrational temperatures:    109.70   172.73   355.84   404.18   418.90
          (Kelvin)            559.56   584.73   636.50   785.40   791.65
                              834.55   931.87   989.54  1085.06  1134.72
                             1208.91  1213.35  1313.29  1431.16  1445.35
                             1448.64  1577.24  1596.24  1688.96  1863.85
                             1875.86  1978.07  1996.23  2128.59  2134.39
                             2256.35  2313.60  2322.41  2397.18  4534.23
                             4626.91  4656.87  5157.81  5377.34

 Zero-point correction=                           0.108207 (Hartree/Particle)
 Thermal correction to Energy=                    0.116183
 Thermal correction to Enthalpy=                  0.117127
 Thermal correction to Gibbs Free Energy=         0.075161
 Sum of electronic and zero-point Energies=           -508.084878
 Sum of electronic and thermal Energies=              -508.076902
 Sum of electronic and thermal Enthalpies=            -508.075958
 Sum of electronic and thermal Free Energies=         -508.117924

                     E (Thermal)             CV                S
                      KCal/Mol        Cal/Mol-Kelvin    Cal/Mol-Kelvin
 Total                   72.906             30.338             88.325
 Electronic               0.000              0.000              0.000
 Translational            0.889              2.981             40.700
 Rotational               0.889              2.981             29.210
 Vibrational             71.128             24.376             18.415
 Vibration     1          0.599              1.965              3.985
 Vibration     2          0.609              1.933              3.100
 Vibration     3          0.661              1.767              1.750
 Vibration     4          0.681              1.709              1.528
 Vibration     5          0.687              1.690              1.467
 Vibration     6          0.757              1.494              1.004
 Vibration     7          0.771              1.456              0.939
 Vibration     8          0.802              1.378              0.819
 Vibration     9          0.901              1.149              0.553
 Vibration    10          0.906              1.139              0.544
 Vibration    11          0.937              1.074              0.485

 Optimization completed.
    -- Stationary point found.
 Normal termination of Gaussian 09 at Thu Aug 26 02:27:00 2021.

 -----------------------------------------------------------------
 #P Geom=AllCheck Guess=TCheck SCRF=Check CCSD(T,E4T,FrzG4)/GTBas1
 -----------------------------------------------------------------

 Structure from the checkpoint file:  "/public/home/users/caep010/.cache/gau_scr/Gau-70565.chk"
 ------
 AMNTPY
 ------
 Charge =  0 Multiplicity = 1

 SCF Done:  E(RHF) =  -505.202619316     A.U. after   14 cycles
 E2 =    -0.1489896815D+01 EUMP2 =    -0.50669251613132D+03
 CCSD(T)
 CCSD(T)= -0.50678057115D+03
 \MP4SDTQ=-506.7939818\MP4SDQ=-506.7160998\CCSD=-506.7129808\CCSD(T)=-5
 Normal termination of Gaussian 09 at Thu Aug 26 02:42:55 2021.

 ---------------------------------------------------------
 #P Geom=AllCheck Guess=TCheck SCRF=Check MP4=FrzG4/GTBas2
 ---------------------------------------------------------

 Structure from the checkpoint file:  "/public/home/users/caep010/.cache/gau_scr/Gau-70565.chk"
 ------
 AMNTPY
 ------
 Charge =  0 Multiplicity = 1

 SCF Done:  E(RHF) =  -505.218176679     A.U. after   14 cycles
 E2 =    -0.1509624803D+01 EUMP2 =    -0.50672780148209D+03
 Normal termination of Gaussian 09 at Thu Aug 26 02:49:22 2021.

 ---------------------------------------------------------
 #P Geom=AllCheck Guess=TCheck SCRF=Check MP4=FrzG4/GTBas3
 ---------------------------------------------------------

 Structure from the checkpoint file:  "/public/home/users/caep010/.cache/gau_scr/Gau-70565.chk"
 ------
 AMNTPY
 ------
 Charge =  0 Multiplicity = 1

 SCF Done:  E(RHF) =  -505.256310879     A.U. after   13 cycles
 E2 =    -0.1774681477D+01 EUMP2 =    -0.50703099235605D+03
 Normal termination of Gaussian 09 at Thu Aug 26 03:28:48 2021.

 -----------------------------------------------------------
 #P Geom=AllCheck Guess=TCheck SCRF=Check MP2=Full/GTLargeXP
 -----------------------------------------------------------

 Structure from the checkpoint file:  "/public/home/users/caep010/.cache/gau_scr/Gau-70565.chk"
 ------
 AMNTPY
 ------
 Charge =  0 Multiplicity = 1

 SCF Done:  E(RHF) =  -505.382521912     A.U. after   14 cycles
 E2 =    -0.2324040973D+01 EUMP2 =    -0.50770656288530D+03
 Normal termination of Gaussian 09 at Thu Aug 26 03:37:57 2021.
 SCF Done:  E(RHF) =  -505.422309086     A.U. after   10 cycles
 Normal termination of Gaussian 09 at Thu Aug 26 03:41:23 2021.

                         Standard orientation:
 ---------------------------------------------------------------------
 Center     Atomic      Atomic             Coordinates (Angstroms)
 Number     Number       Type             X           Y           Z
 ---------------------------------------------------------------------
      1          6           0       -0.482128    0.968318   -0.000111
      2          7           0       -1.833605    0.972110    0.000170
      3          6           0        0.227616   -0.266656   -0.000078
      4          6           0       -2.480028   -0.182526    0.000179
      5          6           0       -0.482726   -1.465859   -0.000076
      6          1           0       -3.565918   -0.110468    0.000376
      7          6           0       -1.863374   -1.438417   -0.000019
      8          7           0        0.105111    2.176975   -0.000757
      9          1           0       -0.497909    2.981656    0.001089
     10          1           0        1.109788    2.239551    0.000998
     11          1           0        0.079864   -2.389912   -0.000042
     12          1           0       -2.449858   -2.347861   -0.000039
     13          7           0        1.674733   -0.335982    0.000049
     14          8           0        2.318881    0.721804    0.000443
     15          8           0        2.204144   -1.441036   -0.000191
 ---------------------------------------------------------------------

 SCF Done:  E(RHF) =  -505.430053404     A.U. after    7 cycles

 The electronic state is 1-A.
 Alpha  occ. eigenvalues --  -20.60081 -20.59930 -15.85834 -15.59066 -15.57677
 Alpha  occ. eigenvalues --  -11.36424 -11.31225 -11.30232 -11.29272 -11.24866
 Alpha  occ. eigenvalues --   -1.60393  -1.39651  -1.31737  -1.22039  -1.14738
 Alpha  occ. eigenvalues --   -1.06640  -0.96948  -0.88436  -0.86281  -0.78171
 Alpha  occ. eigenvalues --   -0.74754  -0.74632  -0.72766  -0.72362  -0.66355
 Alpha  occ. eigenvalues --   -0.65405  -0.60129  -0.59554  -0.58391  -0.50563
 Alpha  occ. eigenvalues --   -0.49601  -0.48738  -0.45927  -0.44820  -0.41989
 Alpha  occ. eigenvalues --   -0.33558
 Alpha virt. eigenvalues --    0.03174   0.03240   0.03862   0.04510   0.05239
 Alpha virt. eigenvalues --    0.05939   0.06515   0.07522   0.07735   0.08408
 Alpha virt. eigenvalues --    0.08478   0.08829   0.09488   0.09789   0.10214

 Mulliken charges:
               1
     1  C    0.484843
     2  N   -0.579849
     3  C    0.137857
     4  C   -0.007499
     5  C   -0.056177
     6  H    0.225290
     7  C   -0.257049
     8  N   -0.787866
     9  H    0.366463
    10  H    0.388136
    11  H    0.260328
    12  H    0.222384
    13  N    0.512088
    14  O   -0.456639
    15  O   -0.452311
 Sum of Mulliken charges =  -0.00000

 Dipole moment (field-independent basis, Debye):
    X=             -3.6036    Y=              0.1995    Z=              0.0047  Tot=              3.6091
 Quadrupole moment (field-independent basis, Debye-Ang):
   XX=            -63.8418   YY=            -50.4711   ZZ=            -59.1280
   XY=              6.4364   XZ=              0.0006   YZ=              0.0139

 Normal termination of Gaussian 09 at Thu Aug 26 04:02:41 2021.
