 Gaussian 09, Revision E.01,
 Gaussian 09:  ES64L-G09RevE.01 30-Nov-2015

 ----------------
 #P G4 OPT=calcfc
 ----------------

 ------
 AFEXEP
 ------
 Symbolic Z-matrix:
 Charge =  0 Multiplicity = 1

 SCF Done:  E(RB3LYP) =  -683.955072058     A.U. after   15 cycles
 SCF Done:  E(RB3LYP) =  -684.064413721     A.U. after   13 cycles
 SCF Done:  E(RB3LYP) =  -684.133341603     A.U. after   15 cycles
 SCF Done:  E(RB3LYP) =  -684.134629277     A.U. after   15 cycles
 SCF Done:  E(RB3LYP) =  -684.132497891     A.U. after   13 cycles
 SCF Done:  E(RB3LYP) =  -684.134675829     A.U. after    9 cycles
 SCF Done:  E(RB3LYP) =  -684.134868502     A.U. after   12 cycles
 SCF Done:  E(RB3LYP) =  -684.134885536     A.U. after   10 cycles
 SCF Done:  E(RB3LYP) =  -684.134887244     A.U. after    9 cycles
 SCF Done:  E(RB3LYP) =  -684.134888347     A.U. after    8 cycles
 SCF Done:  E(RB3LYP) =  -684.134939340     A.U. after    8 cycles
 SCF Done:  E(RB3LYP) =  -684.134939362     A.U. after    8 cycles
 SCF Done:  E(RB3LYP) =  -684.134939402     A.U. after    7 cycles
 Optimization completed.
    -- Stationary point found.
 Normal termination of Gaussian 09 at Wed Aug 25 13:04:31 2021.

 ----------------------------------------------------------
 #P Geom=AllCheck Guess=TCheck SCRF=Check B3LYP/GTBas3 Freq
 ----------------------------------------------------------

 Structure from the checkpoint file:  "/public/home/users/caep010/.cache/gau_scr/Gau-120764.chk"
 ------
 AFEXEP
 ------
 Charge =  0 Multiplicity = 1

 SCF Done:  E(RB3LYP) =  -684.134939402     A.U. after    1 cycles

  Exact polarizability: 207.301   1.386 122.090  -0.000   0.000  60.372
 Approx polarizability: 281.852  -1.576 240.982  -0.000   0.001  98.006

                      1                      2                      3
                      A                      A                      A
 Frequencies --     28.7759                44.3494                53.7609
 Red. masses --      2.0150                 4.3798                 7.1707
 Frc consts  --      0.0010                 0.0051                 0.0122
 IR Inten    --      0.1983                 0.5036                 4.2117

                      4                      5                      6
                      A                      A                      A
 Frequencies --     76.6363               103.3188               133.4539
 Red. masses --      5.9791                 4.9790                 4.7560
 Frc consts  --      0.0207                 0.0313                 0.0499
 IR Inten    --      0.8074                 1.0951                 0.8076

                      7                      8                      9
                      A                      A                      A
 Frequencies --    200.9598               214.9008               253.0545
 Red. masses --      1.2182                 5.7745                 7.3585
 Frc consts  --      0.0290                 0.1571                 0.2776
 IR Inten    --      1.2165                 2.0272                 0.6682

                     10                     11                     12
                      A                      A                      A
 Frequencies --    305.5795               315.0521               371.4041
 Red. masses --      4.3160                 5.6616                 6.2041
 Frc consts  --      0.2375                 0.3311                 0.5042
 IR Inten    --     13.9071                 1.2381                 4.2681

                     13                     14                     15
                      A                      A                      A
 Frequencies --    425.0745               443.9937               513.6922
 Red. masses --      3.2536                 6.6891                 2.6427
 Frc consts  --      0.3464                 0.7769                 0.4109
 IR Inten    --      0.0217                 3.2758                12.0934

                     16                     17                     18
                      A                      A                      A
 Frequencies --    535.9045               557.5882               603.4076
 Red. masses --      7.4278                 1.9104                 1.2966
 Frc consts  --      1.2568                 0.3499                 0.2782
 IR Inten    --      1.6454                19.8738                27.0998

                     19                     20                     21
                      A                      A                      A
 Frequencies --    631.3662               656.1489               697.1273
 Red. masses --      6.0591                 5.7881                 4.6435
 Frc consts  --      1.4230                 1.4682                 1.3296
 IR Inten    --      0.1444                 0.5059                 6.4507

                     22                     23                     24
                      A                      A                      A
 Frequencies --    714.1724               784.5938               815.4308
 Red. masses --      3.6943                 4.9128                 1.4026
 Frc consts  --      1.1102                 1.7818                 0.5495
 IR Inten    --     12.5311                20.8623                 7.9377

                     25                     26                     27
                      A                      A                      A
 Frequencies --    830.9224               841.8940               878.0538
 Red. masses --      6.2024                 1.3535                 8.8516
 Frc consts  --      2.5231                 0.5652                 4.0208
 IR Inten    --     13.8843                 4.1641                31.5393

                     28                     29                     30
                      A                      A                      A
 Frequencies --    891.0205               926.3938               965.8711
 Red. masses --      1.6437                 3.9134                 1.3230
 Frc consts  --      0.7689                 1.9788                 0.7272
 IR Inten    --     25.6585                10.9791                 1.2224

                     31                     32                     33
                      A                      A                      A
 Frequencies --   1005.8591              1019.4376              1022.9440
 Red. masses --      1.3324                 1.9427                 2.8021
 Frc consts  --      0.7942                 1.1895                 1.7276
 IR Inten    --      0.0266                 6.5788                 0.6512

                     34                     35                     36
                      A                      A                      A
 Frequencies --   1087.4755              1097.5980              1128.0871
 Red. masses --      2.3927                 1.6538                 2.1835
 Frc consts  --      1.6672                 1.1739                 1.6371
 IR Inten    --     21.2661                 0.0032                96.6540

                     37                     38                     39
                      A                      A                      A
 Frequencies --   1135.0948              1181.9996              1205.6877
 Red. masses --      1.3677                 2.5468                 1.3561
 Frc consts  --      1.0382                 2.0964                 1.1615
 IR Inten    --     22.0877               251.8984                 2.0979

                     40                     41                     42
                      A                      A                      A
 Frequencies --   1278.4119              1287.3168              1318.1593
 Red. masses --      2.4308                 1.1787                 1.4450
 Frc consts  --      2.3406                 1.1508                 1.4793
 IR Inten    --    106.6968                 0.0309                75.2412

                     43                     44                     45
                      A                      A                      A
 Frequencies --   1358.8344              1374.9572              1390.0410
 Red. masses --      3.1519                 2.5575                 9.4962
 Frc consts  --      3.4289                 2.8487                10.8108
 IR Inten    --     89.5887               216.1959               349.2495

                     46                     47                     48
                      A                      A                      A
 Frequencies --   1417.5882              1433.3310              1465.1737
 Red. masses --      1.2289                 3.1595                 1.0947
 Frc consts  --      1.4551                 3.8243                 1.3846
 IR Inten    --      2.4070                60.4396                 3.5814

                     49                     50                     51
                      A                      A                      A
 Frequencies --   1492.0104              1498.1727              1525.2040
 Red. masses --      1.0371                 1.0519                 2.3532
 Frc consts  --      1.3603                 1.3910                 3.2253
 IR Inten    --      5.5340                10.2730                26.8734

                     52                     53                     54
                      A                      A                      A
 Frequencies --   1547.4223              1609.0095              1638.5232
 Red. masses --      2.3041                 6.2273                 5.8853
 Frc consts  --      3.2506                 9.4987                 9.3095
 IR Inten    --    488.2348               105.0466               116.3325

                     55                     56                     57
                      A                      A                      A
 Frequencies --   1654.7240              1796.9848              3019.3836
 Red. masses --      8.4259                 9.0787                 1.0598
 Frc consts  --     13.5931                17.2728                 5.6928
 IR Inten    --    140.2207               151.8310                18.8863

                     58                     59                     60
                      A                      A                      A
 Frequencies --   3050.8017              3056.4617              3128.8760
 Red. masses --      1.1002                 1.0354                 1.1020
 Frc consts  --      6.0333                 5.6990                 6.3564
 IR Inten    --     10.2264                22.1338                19.4071

                     61                     62                     63
                      A                      A                      A
 Frequencies --   3135.4344              3170.0859              3233.5373
 Red. masses --      1.1022                 1.0895                 1.0901
 Frc consts  --      6.3840                 6.4509                 6.7152
 IR Inten    --     16.4154                11.4478                 1.6268

                     64                     65                     66
                      A                      A                      A
 Frequencies --   3237.5712              3266.3984              3614.7032
 Red. masses --      1.0920                 1.0922                 1.0760
 Frc consts  --      6.7439                 6.8656                 8.2836
 IR Inten    --      1.5954                 6.9016                22.0411

 - Thermochemistry -
 -------------------
 Temperature   298.150 Kelvin.  Pressure   1.00000 Atm.
 Atom     1 has atomic number  7 and mass  14.00307

 Molecular mass:   194.06914 amu.
 Principal axes and moments of inertia in atomic units:
                           1         2         3
     Eigenvalues --   665.534336845.121127488.44777
           X            1.00000   0.00127   0.00000
           Y           -0.00127   1.00000  -0.00000
           Z           -0.00000   0.00000   1.00000
 This molecule is an asymmetric top.
 Rotational symmetry number  1.
 Warning -- assumption of classical behavior for rotation
           may cause significant error
 Rotational temperatures (Kelvin)      0.13014     0.01265     0.01157
 Rotational constants (GHZ):           2.71172     0.26365     0.24100
 Zero-point vibrational energy     488657.8 (Joules/Mol)
                                  116.79201 (Kcal/Mol)
 Warning -- explicit consideration of  18 degrees of freedom as
           vibrations may cause significant error
 Vibrational temperatures:     41.40    63.81    77.35   110.26   148.65
          (Kelvin)            192.01   289.14   309.19   364.09   439.66
                              453.29   534.37   611.59   638.81   739.09
                              771.05   802.24   868.17   908.39   944.05
                             1003.01  1027.53  1128.85  1173.22  1195.51
                             1211.30  1263.32  1281.98  1332.87  1389.67
                             1447.21  1466.74  1471.79  1564.63  1579.20
                             1623.06  1633.15  1700.63  1734.71  1839.35
                             1852.16  1896.53  1955.06  1978.25  1999.96
                             2039.59  2062.24  2108.06  2146.67  2155.53
                             2194.43  2226.39  2315.00  2357.47  2380.78
                             2585.46  4344.21  4389.42  4397.56  4501.75
                             4511.19  4561.04  4652.33  4658.14  4699.61
                             5200.75

 Zero-point correction=                           0.186120 (Hartree/Particle)
 Thermal correction to Energy=                    0.199066
 Thermal correction to Enthalpy=                  0.200011
 Thermal correction to Gibbs Free Energy=         0.144659
 Sum of electronic and zero-point Energies=           -683.948819
 Sum of electronic and thermal Energies=              -683.935873
 Sum of electronic and thermal Enthalpies=            -683.934929
 Sum of electronic and thermal Free Energies=         -683.990281

                     E (Thermal)             CV                S
                      KCal/Mol        Cal/Mol-Kelvin    Cal/Mol-Kelvin
 Total                  124.916             47.352            116.498
 Electronic               0.000              0.000              0.000
 Translational            0.889              2.981             41.694
 Rotational               0.889              2.981             31.901
 Vibrational            123.139             41.390             42.903
 Vibration     1          0.593              1.984              5.912
 Vibration     2          0.595              1.980              5.055
 Vibration     3          0.596              1.976              4.674
 Vibration     4          0.599              1.965              3.975
 Vibration     5          0.605              1.947              3.391
 Vibration     6          0.613              1.920              2.896
 Vibration     7          0.638              1.839              2.124
 Vibration     8          0.645              1.818              2.002
 Vibration     9          0.664              1.758              1.709
 Vibration    10          0.696              1.663              1.386
 Vibration    11          0.702              1.645              1.336
 Vibration    12          0.743              1.531              1.074
 Vibration    13          0.787              1.416              0.875
 Vibration    14          0.804              1.374              0.814
 Vibration    15          0.869              1.220              0.625
 Vibration    16          0.891              1.171              0.574
 Vibration    17          0.913              1.123              0.529
 Vibration    18          0.962              1.025              0.444

 Optimization completed.
    -- Stationary point found.
 Normal termination of Gaussian 09 at Wed Aug 25 13:08:10 2021.

 -----------------------------------------------------------------
 #P Geom=AllCheck Guess=TCheck SCRF=Check CCSD(T,E4T,FrzG4)/GTBas1
 -----------------------------------------------------------------

 Structure from the checkpoint file:  "/public/home/users/caep010/.cache/gau_scr/Gau-120764.chk"
 ------
 AFEXEP
 ------
 Charge =  0 Multiplicity = 1

 SCF Done:  E(RHF) =  -680.024235522     A.U. after   15 cycles
 E2 =    -0.2020690298D+01 EUMP2 =    -0.68204492582003D+03
 CCSD(T)
 CCSD(T)= -0.68218165949D+03
 =-682.0983647\CCSD=-682.0940053\CCSD(T)=-682.1816595\RMSD=4.071e-09\PG
 Normal termination of Gaussian 09 at Wed Aug 25 15:34:38 2021.

 ---------------------------------------------------------
 #P Geom=AllCheck Guess=TCheck SCRF=Check MP4=FrzG4/GTBas2
 ---------------------------------------------------------

 Structure from the checkpoint file:  "/public/home/users/caep010/.cache/gau_scr/Gau-120764.chk"
 ------
 AFEXEP
 ------
 Charge =  0 Multiplicity = 1

 SCF Done:  E(RHF) =  -680.041560703     A.U. after   19 cycles
 E2 =    -0.2045788834D+01 EUMP2 =    -0.68208734953670D+03
 Normal termination of Gaussian 09 at Wed Aug 25 16:41:39 2021.

 ---------------------------------------------------------
 #P Geom=AllCheck Guess=TCheck SCRF=Check MP4=FrzG4/GTBas3
 ---------------------------------------------------------

 Structure from the checkpoint file:  "/public/home/users/caep010/.cache/gau_scr/Gau-120764.chk"
 ------
 AFEXEP
 ------
 Charge =  0 Multiplicity = 1

 SCF Done:  E(RHF) =  -680.094374734     A.U. after   12 cycles
 E2 =    -0.2428257882D+01 EUMP2 =    -0.68252263261565D+03
 Normal termination of Gaussian 09 at Thu Aug 26 03:31:09 2021.

 -----------------------------------------------------------
 #P Geom=AllCheck Guess=TCheck SCRF=Check MP2=Full/GTLargeXP
 -----------------------------------------------------------

 Structure from the checkpoint file:  "/public/home/users/caep010/.cache/gau_scr/Gau-120764.chk"
 ------
 AFEXEP
 ------
 Charge =  0 Multiplicity = 1

 SCF Done:  E(RHF) =  -680.257737826     A.U. after   13 cycles
 E2 =    -0.3188928182D+01 EUMP2 =    -0.68344666600804D+03
 Normal termination of Gaussian 09 at Thu Aug 26 03:49:02 2021.
 SCF Done:  E(RHF) =  -680.311698537     A.U. after    9 cycles
 Normal termination of Gaussian 09 at Thu Aug 26 03:56:46 2021.

                         Standard orientation:
 ---------------------------------------------------------------------
 Center     Atomic      Atomic             Coordinates (Angstroms)
 Number     Number       Type             X           Y           Z
 ---------------------------------------------------------------------
      1          7           0        1.755300    0.736131   -0.000014
      2          6           0        0.389254    0.439224   -0.000006
      3          6           0       -0.506474    1.522688    0.000003
      4          6           0        2.842521   -0.123222   -0.000004
      5          1           0        1.977144    1.720403   -0.000023
      6          8           0        2.744382   -1.332096    0.000010
      7          6           0       -1.873281    1.312460    0.000006
      8          6           0       -2.352491    0.006036    0.000001
      9          1           0       -2.574395    2.135746    0.000012
     10          6           0       -1.484853   -1.080587   -0.000008
     11          1           0       -1.894800   -2.081630   -0.000013
     12          7           0       -3.798676   -0.224265    0.000004
     13          8           0       -4.191532   -1.385337   -0.000008
     14          8           0       -4.531642    0.759325    0.000019
     15          6           0       -0.113498   -0.872434   -0.000013
     16          1           0        0.574105   -1.703558   -0.000019
     17          1           0       -0.121360    2.538127    0.000006
     18          6           0        4.184051    0.606537   -0.000024
     19          1           0        4.218214    1.267825    0.876177
     20          6           0        5.370026   -0.354486    0.000030
     21          1           0        6.311137    0.201766   -0.000003
     22          1           0        4.218224    1.267735   -0.876284
     23          1           0        5.347087   -1.000910    0.880320
     24          1           0        5.347080   -1.001009   -0.880186
 ---------------------------------------------------------------------

 SCF Done:  E(RHF) =  -680.322179234     A.U. after    7 cycles

 The electronic state is 1-A.
 Alpha  occ. eigenvalues --  -20.59267 -20.59216 -20.54900 -15.84678 -15.62671
 Alpha  occ. eigenvalues --  -11.38031 -11.32621 -11.29850 -11.27685 -11.27347
 Alpha  occ. eigenvalues --  -11.26474 -11.26347 -11.25168 -11.23325  -1.59700
 Alpha  occ. eigenvalues --   -1.41564  -1.39072  -1.28518  -1.18994  -1.09380
 Alpha  occ. eigenvalues --   -1.06235  -1.05300  -0.96746  -0.90265  -0.87946
 Alpha  occ. eigenvalues --   -0.83343  -0.79965  -0.77693  -0.74775  -0.72239
 Alpha  occ. eigenvalues --   -0.71336  -0.70871  -0.66303  -0.65249  -0.64739
 Alpha  occ. eigenvalues --   -0.63136  -0.62100  -0.59879  -0.59872  -0.54757
 Alpha  occ. eigenvalues --   -0.53935  -0.53714  -0.53105  -0.51300  -0.49200
 Alpha  occ. eigenvalues --   -0.48864  -0.47282  -0.45029  -0.44823  -0.37187
 Alpha  occ. eigenvalues --   -0.34239
 Alpha virt. eigenvalues --    0.01844   0.03149   0.03805   0.04219   0.04359
 Alpha virt. eigenvalues --    0.04900   0.05430   0.06320   0.06377   0.06765
 Alpha virt. eigenvalues --    0.06904   0.07394   0.08028   0.08455   0.08799

 Mulliken charges:
               1
     1  N   -0.473902
     2  C    0.358970
     3  C   -0.303978
     4  C    0.559771
     5  H    0.339378
     6  O   -0.608138
     7  C   -0.163353
     8  C    0.070310
     9  H    0.263317
    10  C   -0.167782
    11  H    0.268223
    12  N    0.520532
    13  O   -0.442089
    14  O   -0.443844
    15  C   -0.276672
    16  H    0.273970
    17  H    0.180129
    18  C   -0.359445
    19  H    0.193992
    20  C   -0.530915
    21  H    0.174138
    22  H    0.193995
    23  H    0.186694
    24  H    0.186700
 Sum of Mulliken charges =  -0.00000

 Dipole moment (field-independent basis, Debye):
    X=              6.6504    Y=              4.2834    Z=             -0.0001  Tot=              7.9105
 Quadrupole moment (field-independent basis, Debye-Ang):
   XX=           -100.9901   YY=            -79.0657   ZZ=            -83.0172
   XY=              7.4331   XZ=             -0.0001   YZ=              0.0000

 Normal termination of Gaussian 09 at Thu Aug 26 04:47:05 2021.
