 Gaussian 09, Revision E.01,
 Gaussian 09:  ES64L-G09RevE.01 30-Nov-2015

 -----
 #P G4
 -----

 ------
 AFAZUD
 ------
 Symbolic Z-matrix:
 Charge =  0 Multiplicity = 1

 SCF Done:  E(RB3LYP) =  -720.913354886     A.U. after   17 cycles
 SCF Done:  E(RB3LYP) =  -721.011210048     A.U. after   13 cycles
 SCF Done:  E(RB3LYP) =  -721.078395176     A.U. after   14 cycles
 SCF Done:  E(RB3LYP) =  -721.083410832     A.U. after   13 cycles
 SCF Done:  E(RB3LYP) =  -721.079411996     A.U. after   15 cycles
 SCF Done:  E(RB3LYP) =  -721.084776849     A.U. after   11 cycles
 SCF Done:  E(RB3LYP) =  -721.085227423     A.U. after   12 cycles
 SCF Done:  E(RB3LYP) =  -721.085304841     A.U. after   11 cycles
 SCF Done:  E(RB3LYP) =  -721.085325426     A.U. after   11 cycles
 SCF Done:  E(RB3LYP) =  -721.085332699     A.U. after   10 cycles
 SCF Done:  E(RB3LYP) =  -721.085362996     A.U. after   12 cycles
 SCF Done:  E(RB3LYP) =  -721.085364293     A.U. after    9 cycles
 SCF Done:  E(RB3LYP) =  -721.085364353     A.U. after    8 cycles
 Optimization completed.
    -- Stationary point found.
 Normal termination of Gaussian 09 at Tue Aug 24 14:38:13 2021.

 ----------------------------------------------------------
 #P Geom=AllCheck Guess=TCheck SCRF=Check B3LYP/GTBas3 Freq
 ----------------------------------------------------------

 Structure from the checkpoint file:  "/public/home/users/caep010/.cache/gau_scr/Gau-13443.chk"
 ------
 AFAZUD
 ------
 Charge =  0 Multiplicity = 1

 SCF Done:  E(RB3LYP) =  -721.085364353     A.U. after    1 cycles

  Exact polarizability: 114.207   0.001  91.246   4.963   0.003 105.096
 Approx polarizability: 163.379   0.003 139.910  16.149   0.013 209.912

                      1                      2                      3
                      A                      A                      A
 Frequencies --     31.5495                32.4295               129.3428
 Red. masses --     15.5784                11.1027                 9.8257
 Frc consts  --      0.0091                 0.0069                 0.0968
 IR Inten    --      0.0111                 0.4162                 8.3487

                      4                      5                      6
                      A                      A                      A
 Frequencies --    135.0450               208.7402               220.5172
 Red. masses --      5.6463                 5.2298                 3.7065
 Frc consts  --      0.0607                 0.1343                 0.1062
 IR Inten    --      4.8239                 0.4880                 0.5598

                      7                      8                      9
                      A                      A                      A
 Frequencies --    327.5863               348.7647               402.5533
 Red. masses --     11.9484                 3.0490                 6.1015
 Frc consts  --      0.7555                 0.2185                 0.5826
 IR Inten    --      1.9221                 0.0240                12.0124

                     10                     11                     12
                      A                      A                      A
 Frequencies --    445.7312               475.5589               527.7147
 Red. masses --      4.7105                 3.4804                 2.5292
 Frc consts  --      0.5514                 0.4638                 0.4150
 IR Inten    --      0.2707                 1.0057                 1.4716

                     13                     14                     15
                      A                      A                      A
 Frequencies --    555.0368               569.9493               634.2141
 Red. masses --      2.6516                 3.3889                 1.9810
 Frc consts  --      0.4813                 0.6486                 0.4695
 IR Inten    --      1.4138                 0.0812                 1.3939

                     16                     17                     18
                      A                      A                      A
 Frequencies --    648.4858               727.2902               740.5593
 Red. masses --      5.1111                 6.2518                 8.2501
 Frc consts  --      1.2664                 1.9484                 2.6658
 IR Inten    --      0.0017                 0.3415                 3.7978

                     19                     20                     21
                      A                      A                      A
 Frequencies --    788.3509               804.6553               820.7505
 Red. masses --      4.1859                 4.8057                 6.6390
 Frc consts  --      1.5328                 1.8333                 2.6350
 IR Inten    --     11.1455                 1.6517                50.3287

                     22                     23                     24
                      A                      A                      A
 Frequencies --    834.9752               893.5666               909.0632
 Red. masses --      7.4452                 2.7601                 1.9608
 Frc consts  --      3.0583                 1.2985                 0.9547
 IR Inten    --      5.2374                 4.8849                 2.8032

                     25                     26                     27
                      A                      A                      A
 Frequencies --    915.1454               915.4922               933.6027
 Red. masses --      2.5886                 2.7737                 2.0442
 Frc consts  --      1.2773                 1.3697                 1.0498
 IR Inten    --      0.9735                 7.6735                 0.0044

                     28                     29                     30
                      A                      A                      A
 Frequencies --    967.5288               991.9467              1000.0850
 Red. masses --      1.7380                 2.1514                 1.6187
 Frc consts  --      0.9586                 1.2472                 0.9539
 IR Inten    --      1.2508                 0.4283                 0.9703

                     31                     32                     33
                      A                      A                      A
 Frequencies --   1019.3630              1047.1974              1052.8551
 Red. masses --      1.7743                 1.4094                 1.9062
 Frc consts  --      1.0862                 0.9106                 1.2449
 IR Inten    --      0.2296                 3.2286                 3.1185

                     34                     35                     36
                      A                      A                      A
 Frequencies --   1074.8016              1102.6773              1152.7549
 Red. masses --      1.7073                 1.3350                 1.6380
 Frc consts  --      1.1620                 0.9564                 1.2824
 IR Inten    --      0.2577                 2.0909                 1.1555

                     37                     38                     39
                      A                      A                      A
 Frequencies --   1165.3252              1168.8501              1179.4891
 Red. masses --      2.0603                 2.2137                 2.2621
 Frc consts  --      1.6484                 1.7819                 1.8542
 IR Inten    --      0.3433                 3.1264                 1.0926

                     40                     41                     42
                      A                      A                      A
 Frequencies --   1205.0617              1239.2028              1240.6630
 Red. masses --      2.5428                 1.5232                 1.5301
 Frc consts  --      2.1756                 1.3782                 1.3876
 IR Inten    --      5.3048                 0.5914                 0.1150

                     43                     44                     45
                      A                      A                      A
 Frequencies --   1246.5248              1255.0778              1274.3926
 Red. masses --      1.4860                 1.7386                 1.6759
 Frc consts  --      1.3604                 1.6136                 1.6036
 IR Inten    --      0.8653                 0.9050                 0.0583

                     46                     47                     48
                      A                      A                      A
 Frequencies --   1299.3235              1309.3273              1324.1132
 Red. masses --      1.6086                 1.7993                 1.5922
 Frc consts  --      1.6000                 1.8174                 1.6447
 IR Inten    --      0.4053                 1.9752                 1.0630

                     49                     50                     51
                      A                      A                      A
 Frequencies --   1424.5764              1426.4897              1488.5882
 Red. masses --     11.4769                14.1044                 1.0964
 Frc consts  --     13.7230                16.9099                 1.4315
 IR Inten    --    243.0482                26.0760                 0.2512

                     52                     53                     54
                      A                      A                      A
 Frequencies --   1522.5991              1526.0212              1557.5838
 Red. masses --      1.0972                 1.0948                 1.0926
 Frc consts  --      1.4986                 1.5022                 1.5617
 IR Inten    --     15.2681                 9.5252                 0.0004

                     55                     56                     57
                      A                      A                      A
 Frequencies --   1641.4594              1642.5712              3080.9965
 Red. masses --     14.3380                14.4829                 1.0590
 Frc consts  --     22.7613                23.0226                 5.9229
 IR Inten    --      7.9644               426.1022                19.3411

                     58                     59                     60
                      A                      A                      A
 Frequencies --   3095.2581              3098.9520              3105.4272
 Red. masses --      1.0584                 1.0615                 1.0595
 Frc consts  --      5.9741                 6.0063                 6.0197
 IR Inten    --      5.5293                13.0590                 0.6568

                     61                     62                     63
                      A                      A                      A
 Frequencies --   3126.8435              3149.7884              3152.8172
 Red. masses --      1.1070                 1.1081                 1.1070
 Frc consts  --      6.3769                 6.4775                 6.4831
 IR Inten    --     18.1287                 6.8597                23.9994

                     64                     65                     66
                      A                      A                      A
 Frequencies --   3158.9544              3159.4781              3163.9194
 Red. masses --      1.0897                 1.0921                 1.1089
 Frc consts  --      6.4067                 6.4228                 6.5401
 IR Inten    --     14.0126                 1.5174                 7.9298

 - Thermochemistry -
 -------------------
 Temperature   298.150 Kelvin.  Pressure   1.00000 Atm.
 Atom     1 has atomic number  6 and mass  12.00000

 Molecular mass:   198.06406 amu.
 Principal axes and moments of inertia in atomic units:
                           1         2         3
     Eigenvalues --  1255.854903521.499653545.62002
           X            0.99998   0.00000   0.00608
           Y           -0.00000   1.00000  -0.00011
           Z           -0.00608   0.00011   0.99998
 This molecule is an asymmetric top.
 Rotational symmetry number  1.
 Warning -- assumption of classical behavior for rotation
           may cause significant error
 Rotational temperatures (Kelvin)      0.06897     0.02460     0.02443
 Rotational constants (GHZ):           1.43706     0.51249     0.50901
 Zero-point vibrational energy     495347.0 (Joules/Mol)
                                  118.39078 (Kcal/Mol)
 Warning -- explicit consideration of  14 degrees of freedom as
           vibrations may cause significant error
 Vibrational temperatures:     45.39    46.66   186.10   194.30   300.33
          (Kelvin)            317.27   471.32   501.79   579.18   641.31
                              684.22   759.26   798.57   820.03   912.49
                              933.03  1046.41  1065.50  1134.26  1157.72
                             1180.88  1201.34  1285.64  1307.94  1316.69
                             1317.19  1343.24  1392.06  1427.19  1438.90
                             1466.63  1506.68  1514.82  1546.40  1586.50
                             1658.56  1676.64  1681.71  1697.02  1733.81
                             1782.93  1785.04  1793.47  1805.77  1833.56
                             1869.43  1883.83  1905.10  2049.65  2052.40
                             2141.74  2190.68  2195.60  2241.01  2361.69
                             2363.29  4432.86  4453.38  4458.70  4468.01
                             4498.82  4531.84  4536.20  4545.03  4545.78
                             4552.17

 Zero-point correction=                           0.188668 (Hartree/Particle)
 Thermal correction to Energy=                    0.199336
 Thermal correction to Enthalpy=                  0.200280
 Thermal correction to Gibbs Free Energy=         0.150545
 Sum of electronic and zero-point Energies=           -720.896697
 Sum of electronic and thermal Energies=              -720.886029
 Sum of electronic and thermal Enthalpies=            -720.885085
 Sum of electronic and thermal Free Energies=         -720.934819

                     E (Thermal)             CV                S
                      KCal/Mol        Cal/Mol-Kelvin    Cal/Mol-Kelvin
 Total                  125.085             42.256            104.676
 Electronic               0.000              0.000              0.000
 Translational            0.889              2.981             41.755
 Rotational               0.889              2.981             31.128
 Vibrational            123.307             36.294             31.792
 Vibration     1          0.594              1.983              5.730
 Vibration     2          0.594              1.983              5.675
 Vibration     3          0.612              1.924              2.956
 Vibration     4          0.613              1.918              2.873
 Vibration     5          0.642              1.827              2.055
 Vibration     6          0.647              1.810              1.955
 Vibration     7          0.711              1.620              1.272
 Vibration     8          0.726              1.578              1.172
 Vibration     9          0.768              1.465              0.953
 Vibration    10          0.805              1.370              0.809
 Vibration    11          0.832              1.304              0.722
 Vibration    12          0.883              1.189              0.592
 Vibration    13          0.910              1.129              0.534
 Vibration    14          0.926              1.096              0.504

 Optimization completed.
    -- Stationary point found.
 Normal termination of Gaussian 09 at Tue Aug 24 14:43:09 2021.

 -----------------------------------------------------------------
 #P Geom=AllCheck Guess=TCheck SCRF=Check CCSD(T,E4T,FrzG4)/GTBas1
 -----------------------------------------------------------------

 Structure from the checkpoint file:  "/public/home/users/caep010/.cache/gau_scr/Gau-13443.chk"
 ------
 AFAZUD
 ------
 Charge =  0 Multiplicity = 1

 SCF Done:  E(RHF) =  -716.824667917     A.U. after   15 cycles
 E2 =    -0.2132995390D+01 EUMP2 =    -0.71895766330692D+03
 CCSD(T)
 CCSD(T)= -0.71908542404D+03
 =-719.0016429\CCSD=-718.9935718\CCSD(T)=-719.085424\RMSD=3.100e-09\PG=
 Normal termination of Gaussian 09 at Tue Aug 24 17:21:04 2021.

 ---------------------------------------------------------
 #P Geom=AllCheck Guess=TCheck SCRF=Check MP4=FrzG4/GTBas2
 ---------------------------------------------------------

 Structure from the checkpoint file:  "/public/home/users/caep010/.cache/gau_scr/Gau-13443.chk"
 ------
 AFAZUD
 ------
 Charge =  0 Multiplicity = 1

 SCF Done:  E(RHF) =  -716.843387450     A.U. after   14 cycles
 E2 =    -0.2161227839D+01 EUMP2 =    -0.71900461528986D+03
 Normal termination of Gaussian 09 at Tue Aug 24 18:30:56 2021.

 ---------------------------------------------------------
 #P Geom=AllCheck Guess=TCheck SCRF=Check MP4=FrzG4/GTBas3
 ---------------------------------------------------------

 Structure from the checkpoint file:  "/public/home/users/caep010/.cache/gau_scr/Gau-13443.chk"
 ------
 AFAZUD
 ------
 Charge =  0 Multiplicity = 1

 SCF Done:  E(RHF) =  -716.897961898     A.U. after   12 cycles
 E2 =    -0.2569380920D+01 EUMP2 =    -0.71946734281793D+03
 Normal termination of Gaussian 09 at Wed Aug 25 04:02:21 2021.

 -----------------------------------------------------------
 #P Geom=AllCheck Guess=TCheck SCRF=Check MP2=Full/GTLargeXP
 -----------------------------------------------------------

 Structure from the checkpoint file:  "/public/home/users/caep010/.cache/gau_scr/Gau-13443.chk"
 ------
 AFAZUD
 ------
 Charge =  0 Multiplicity = 1

 SCF Done:  E(RHF) =  -717.072581358     A.U. after   15 cycles
 E2 =    -0.3342478661D+01 EUMP2 =    -0.72041506001969D+03
 Normal termination of Gaussian 09 at Wed Aug 25 04:24:42 2021.
 SCF Done:  E(RHF) =  -717.128263619     A.U. after    9 cycles
 Normal termination of Gaussian 09 at Wed Aug 25 04:35:57 2021.

                         Standard orientation:
 ---------------------------------------------------------------------
 Center     Atomic      Atomic             Coordinates (Angstroms)
 Number     Number       Type             X           Y           Z
 ---------------------------------------------------------------------
      1          6           0        0.000031    2.145874   -0.000347
      2          1           0        0.712232    2.784818    0.524401
      3          1           0       -0.712141    2.784682   -0.525301
      4          6           0       -0.000024   -1.141754    0.000188
      5          1           0       -0.066163   -1.764907    0.891346
      6          1           0        0.066088   -1.765187   -0.890775
      7          6           0        1.094733   -0.056242    0.117947
      8          6           0       -1.094746   -0.056242   -0.117916
      9          7           0        2.487091   -0.546753   -0.082859
     10          7           0       -2.487118   -0.546650    0.083043
     11          8           0        3.229975   -0.569741    0.886634
     12          8           0       -3.229948   -0.570082   -0.886482
     13          8           0        2.780340   -0.904442   -1.215808
     14          8           0       -2.780367   -0.904009    1.216096
     15          6           0        0.707266    0.505956    1.491623
     16          6           0       -0.707263    0.505494   -1.491776
     17          1           0        1.369078    1.281471    1.875498
     18          1           0       -1.369049    1.280908   -1.875900
     19          1           0        0.609881   -0.274761    2.245435
     20          1           0       -0.609906   -0.275472   -2.245333
     21          6           0        0.619318    1.083659   -0.939363
     22          6           0       -0.619294    1.083988    0.939020
     23          1           0        1.379371    1.381735   -1.656922
     24          1           0       -1.379337    1.382324    1.656481
 ---------------------------------------------------------------------

 SCF Done:  E(RHF) =  -717.139431995     A.U. after    7 cycles

 The electronic state is 1-A.
 Alpha  occ. eigenvalues --  -20.61543 -20.61543 -20.61036 -20.61036 -15.85744
 Alpha  occ. eigenvalues --  -15.85744 -11.33460 -11.33460 -11.28555 -11.28555
 Alpha  occ. eigenvalues --  -11.28076 -11.26422 -11.26422 -11.26037  -1.61553
 Alpha  occ. eigenvalues --   -1.61526  -1.41125  -1.41123  -1.26872  -1.11091
 Alpha  occ. eigenvalues --   -1.08894  -1.04945  -0.99106  -0.92802  -0.90324
 Alpha  occ. eigenvalues --   -0.84493  -0.80906  -0.80538  -0.77245  -0.74774
 Alpha  occ. eigenvalues --   -0.73853  -0.73538  -0.72114  -0.70563  -0.69146
 Alpha  occ. eigenvalues --   -0.66356  -0.63305  -0.58504  -0.56816  -0.56149
 Alpha  occ. eigenvalues --   -0.55966  -0.53321  -0.52364  -0.51639  -0.50114
 Alpha  occ. eigenvalues --   -0.49421  -0.49226  -0.48790  -0.48744  -0.46550
 Alpha  occ. eigenvalues --   -0.46360  -0.45985
 Alpha virt. eigenvalues --    0.02213   0.03390   0.03634   0.04059   0.04958
 Alpha virt. eigenvalues --    0.05662   0.05777   0.06222   0.06601   0.07130
 Alpha virt. eigenvalues --    0.07555   0.08046   0.08185   0.09111   0.09221

 Mulliken charges:
               1
     1  C   -0.417252
     2  H    0.191289
     3  H    0.191290
     4  C   -0.434478
     5  H    0.233684
     6  H    0.233682
     7  C    0.315149
     8  C    0.315139
     9  N    0.479433
    10  N    0.479432
    11  O   -0.419469
    12  O   -0.419465
    13  O   -0.448025
    14  O   -0.448024
    15  C   -0.421281
    16  C   -0.421278
    17  H    0.205750
    18  H    0.205748
    19  H    0.204840
    20  H    0.204841
    21  C   -0.158600
    22  C   -0.158602
    23  H    0.243099
    24  H    0.243099
 Sum of Mulliken charges =  -0.00000

 Dipole moment (field-independent basis, Debye):
    X=             -0.0000    Y=              3.2810    Z=             -0.0005  Tot=              3.2810
 Quadrupole moment (field-independent basis, Debye-Ang):
   XX=           -111.9691   YY=            -76.6337   ZZ=            -82.8972
   XY=             -0.0001   XZ=              1.7164   YZ=             -0.0013

 Normal termination of Gaussian 09 at Wed Aug 25 05:50:14 2021.
