 Gaussian 09, Revision E.01,
 Gaussian 09:  ES64L-G09RevE.01 30-Nov-2015

 ----------------
 #P G4 OPT=calcfc
 ----------------

 ------
 ACOWOE
 ------
 Symbolic Z-matrix:
 Charge =  0 Multiplicity = 1

 SCF Done:  E(RB3LYP) =  -695.548103275     A.U. after   18 cycles
 SCF Done:  E(RB3LYP) =  -695.602693615     A.U. after   13 cycles
 SCF Done:  E(RB3LYP) =  -695.614921942     A.U. after   15 cycles
 SCF Done:  E(RB3LYP) =  -695.615419679     A.U. after   14 cycles
 SCF Done:  E(RB3LYP) =  -695.615475344     A.U. after   14 cycles
 SCF Done:  E(RB3LYP) =  -695.615482772     A.U. after   12 cycles
 SCF Done:  E(RB3LYP) =  -695.615483441     A.U. after   11 cycles
 SCF Done:  E(RB3LYP) =  -695.615483628     A.U. after    9 cycles
 Optimization completed.
    -- Stationary point found.
 Normal termination of Gaussian 09 at Wed Aug 25 21:35:07 2021.

 ----------------------------------------------------------
 #P Geom=AllCheck Guess=TCheck SCRF=Check B3LYP/GTBas3 Freq
 ----------------------------------------------------------

 Structure from the checkpoint file:  "/public/home/users/caep010/.cache/gau_scr/Gau-8372.chk"
 ------
 ACOWOE
 ------
 Charge =  0 Multiplicity = 1

 SCF Done:  E(RB3LYP) =  -695.615483628     A.U. after    1 cycles

  Exact polarizability:  97.528  -2.156  68.201   0.934   0.928  74.660
 Approx polarizability: 149.236 -14.201 111.430   8.680   4.034 142.473

                      1                      2                      3
                      A                      A                      A
 Frequencies --     14.2274                26.2065                86.6287
 Red. masses --     10.5621                14.4002                13.1097
 Frc consts  --      0.0013                 0.0058                 0.0580
 IR Inten    --      1.9074                 0.1001                 0.0417

                      4                      5                      6
                      A                      A                      A
 Frequencies --     94.7228               150.0087               193.5120
 Red. masses --      5.1619                 8.9754                11.2777
 Frc consts  --      0.0273                 0.1190                 0.2488
 IR Inten    --      2.7773                13.4183                 7.9016

                      7                      8                      9
                      A                      A                      A
 Frequencies --    223.5687               278.8733               320.2224
 Red. masses --      2.9090                 6.2975                 2.5382
 Frc consts  --      0.0857                 0.2886                 0.1534
 IR Inten    --      6.0757                 4.8285                 3.4797

                     10                     11                     12
                      A                      A                      A
 Frequencies --    335.4013               367.5939               419.4941
 Red. masses --      2.4871                 9.3437                12.9333
 Frc consts  --      0.1648                 0.7439                 1.3410
 IR Inten    --     11.3474                 5.0001                 1.1906

                     13                     14                     15
                      A                      A                      A
 Frequencies --    518.8718               581.6582               665.7632
 Red. masses --      6.3760                 5.6262                 4.7082
 Frc consts  --      1.0114                 1.1215                 1.2295
 IR Inten    --      6.4456                10.5974                16.6198

                     16                     17                     18
                      A                      A                      A
 Frequencies --    729.5728               737.9123               812.5277
 Red. masses --      6.9328                 4.7548                 4.3258
 Frc consts  --      2.1742                 1.5254                 1.6827
 IR Inten    --      2.2973                 3.5286                 5.1163

                     19                     20                     21
                      A                      A                      A
 Frequencies --    857.1480               874.3221               931.5273
 Red. masses --     10.0513                 5.0533                 4.6260
 Frc consts  --      4.3510                 2.2760                 2.3651
 IR Inten    --     39.9098                42.8759                 5.2824

                     22                     23                     24
                      A                      A                      A
 Frequencies --    954.4113              1032.0150              1107.3502
 Red. masses --      1.4351                 1.6044                 4.6277
 Frc consts  --      0.7702                 1.0068                 3.3433
 IR Inten    --      0.7926                 0.5746                 6.4372

                     25                     26                     27
                      A                      A                      A
 Frequencies --   1111.9743              1130.4036              1132.8319
 Red. masses --      6.1383                 1.7852                 1.0832
 Frc consts  --      4.4718                 1.3440                 0.8190
 IR Inten    --      9.3148                 1.5191                 1.0766

                     28                     29                     30
                      A                      A                      A
 Frequencies --   1208.8232              1222.1797              1290.8263
 Red. masses --      5.2931                 1.6616                 1.3394
 Frc consts  --      4.5570                 1.4623                 1.3150
 IR Inten    --     22.5057                 4.2772                 1.7807

                     31                     32                     33
                      A                      A                      A
 Frequencies --   1323.4560              1382.8880              1395.0954
 Red. masses --      1.6289                12.4995                 1.8540
 Frc consts  --      1.6810                14.0837                 2.1260
 IR Inten    --     10.4058               136.1202               171.3516

                     34                     35                     36
                      A                      A                      A
 Frequencies --   1427.0330              1450.7673              1487.8177
 Red. masses --      4.9092                 3.8572                 1.0751
 Frc consts  --      5.8902                 4.7832                 1.4021
 IR Inten    --     70.1983                88.7018                 8.1644

                     37                     38                     39
                      A                      A                      A
 Frequencies --   1505.7020              1678.4241              1680.8270
 Red. masses --      1.1263                14.2176                13.8988
 Frc consts  --      1.5045                23.5982                23.1353
 IR Inten    --     36.8750               220.2270               239.1654

                     40                     41                     42
                      A                      A                      A
 Frequencies --   1798.1320              2946.2021              3065.2650
 Red. masses --      8.7373                 1.0854                 1.0549
 Frc consts  --     16.6445                 5.5507                 5.8396
 IR Inten    --    394.6551                72.4633                16.1158

                     43                     44                     45
                      A                      A                      A
 Frequencies --   3077.9597              3124.0166              3134.8929
 Red. masses --      1.0569                 1.1111                 1.1109
 Frc consts  --      5.8993                 6.3891                 6.4323
 IR Inten    --      6.1313                 2.4597                 1.3568

 - Thermochemistry -
 -------------------
 Temperature   298.150 Kelvin.  Pressure   1.00000 Atm.
 Atom     1 has atomic number  8 and mass  15.99491

 Molecular mass:   175.02292 amu.
 Principal axes and moments of inertia in atomic units:
                           1         2         3
     Eigenvalues --  1155.381092587.616493105.53924
           X            0.99998   0.00069  -0.00704
           Y           -0.00068   1.00000   0.00083
           Z            0.00704  -0.00082   0.99997
 This molecule is an asymmetric top.
 Rotational symmetry number  1.
 Warning -- assumption of classical behavior for rotation
           may cause significant error
 Rotational temperatures (Kelvin)      0.07497     0.03347     0.02789
 Rotational constants (GHZ):           1.56203     0.69745     0.58114
 Zero-point vibrational energy     298402.8 (Joules/Mol)
                                   71.31999 (Kcal/Mol)
 Warning -- explicit consideration of  14 degrees of freedom as
           vibrations may cause significant error
 Vibrational temperatures:     20.47    37.71   124.64   136.28   215.83
          (Kelvin)            278.42   321.67   401.24   460.73   482.57
                              528.88   603.56   746.54   836.88   957.88
                             1049.69  1061.69  1169.04  1233.24  1257.95
                             1340.26  1373.18  1484.84  1593.23  1599.88
                             1626.40  1629.89  1739.22  1758.44  1857.21
                             1904.16  1989.66  2007.23  2053.18  2087.33
                             2140.64  2166.37  2414.87  2418.33  2587.11
                             4238.92  4410.23  4428.49  4494.76  4510.41

 Zero-point correction=                           0.113656 (Hartree/Particle)
 Thermal correction to Energy=                    0.124603
 Thermal correction to Enthalpy=                  0.125548
 Thermal correction to Gibbs Free Energy=         0.073832
 Sum of electronic and zero-point Energies=           -695.501828
 Sum of electronic and thermal Energies=              -695.490880
 Sum of electronic and thermal Enthalpies=            -695.489936
 Sum of electronic and thermal Free Energies=         -695.541651

                     E (Thermal)             CV                S
                      KCal/Mol        Cal/Mol-Kelvin    Cal/Mol-Kelvin
 Total                   78.190             37.380            108.844
 Electronic               0.000              0.000              0.000
 Translational            0.889              2.981             41.387
 Rotational               0.889              2.981             30.608
 Vibrational             76.412             31.418             36.849
 Vibration     1          0.593              1.986              7.311
 Vibration     2          0.593              1.985              6.098
 Vibration     3          0.601              1.959              3.735
 Vibration     4          0.603              1.953              3.560
 Vibration     5          0.618              1.903              2.672
 Vibration     6          0.635              1.849              2.194
 Vibration     7          0.649              1.805              1.930
 Vibration     8          0.679              1.713              1.541
 Vibration     9          0.706              1.635              1.309
 Vibration    10          0.717              1.605              1.234
 Vibration    11          0.740              1.539              1.090
 Vibration    12          0.782              1.428              0.894
 Vibration    13          0.874              1.208              0.613
 Vibration    14          0.938              1.071              0.482

 Optimization completed.
    -- Stationary point found.
 Normal termination of Gaussian 09 at Wed Aug 25 21:37:29 2021.

 -----------------------------------------------------------------
 #P Geom=AllCheck Guess=TCheck SCRF=Check CCSD(T,E4T,FrzG4)/GTBas1
 -----------------------------------------------------------------

 Structure from the checkpoint file:  "/public/home/users/caep010/.cache/gau_scr/Gau-8372.chk"
 ------
 ACOWOE
 ------
 Charge =  0 Multiplicity = 1

 SCF Done:  E(RHF) =  -691.737045819     A.U. after   15 cycles
 E2 =    -0.1940118588D+01 EUMP2 =    -0.69367716440663D+03
 CCSD(T)
 CCSD(T)= -0.69376771124D+03
 684\CCSD(T)=-693.7677112\RMSD=5.263e-09\PG=C01 [X(C4H5N3O5)]\\@
 Normal termination of Gaussian 09 at Wed Aug 25 22:37:42 2021.

 ---------------------------------------------------------
 #P Geom=AllCheck Guess=TCheck SCRF=Check MP4=FrzG4/GTBas2
 ---------------------------------------------------------

 Structure from the checkpoint file:  "/public/home/users/caep010/.cache/gau_scr/Gau-8372.chk"
 ------
 ACOWOE
 ------
 Charge =  0 Multiplicity = 1

 SCF Done:  E(RHF) =  -691.757988401     A.U. after   15 cycles
 E2 =    -0.1968189183D+01 EUMP2 =    -0.69372617758425D+03
 Normal termination of Gaussian 09 at Wed Aug 25 22:59:21 2021.

 ---------------------------------------------------------
 #P Geom=AllCheck Guess=TCheck SCRF=Check MP4=FrzG4/GTBas3
 ---------------------------------------------------------

 Structure from the checkpoint file:  "/public/home/users/caep010/.cache/gau_scr/Gau-8372.chk"
 ------
 ACOWOE
 ------
 Charge =  0 Multiplicity = 1

 SCF Done:  E(RHF) =  -691.809379368     A.U. after   12 cycles
 E2 =    -0.2324993444D+01 EUMP2 =    -0.69413437281275D+03
 Normal termination of Gaussian 09 at Thu Aug 26 01:48:21 2021.

 -----------------------------------------------------------
 #P Geom=AllCheck Guess=TCheck SCRF=Check MP2=Full/GTLargeXP
 -----------------------------------------------------------

 Structure from the checkpoint file:  "/public/home/users/caep010/.cache/gau_scr/Gau-8372.chk"
 ------
 ACOWOE
 ------
 Charge =  0 Multiplicity = 1

 SCF Done:  E(RHF) =  -691.992846989     A.U. after   13 cycles
 E2 =    -0.3012621739D+01 EUMP2 =    -0.69500546872866D+03
 Normal termination of Gaussian 09 at Thu Aug 26 02:03:46 2021.
 SCF Done:  E(RHF) =  -692.047476165     A.U. after   10 cycles
 Normal termination of Gaussian 09 at Thu Aug 26 02:09:04 2021.

                         Standard orientation:
 ---------------------------------------------------------------------
 Center     Atomic      Atomic             Coordinates (Angstroms)
 Number     Number       Type             X           Y           Z
 ---------------------------------------------------------------------
      1          8           0       -3.707397   -0.227118   -0.602997
      2          6           0       -2.986069   -0.086039    0.358605
      3          7           0       -1.647147    0.119347    0.267358
      4          1           0       -3.336677   -0.098166    1.409379
      5          6           0       -0.793087    0.042543   -0.915935
      6          1           0       -0.836165    0.919943   -1.564659
      7          6           0        0.420347    0.023619    0.043452
      8          1           0       -0.900911   -0.870772   -1.505011
      9          7           0        1.344627    1.223267   -0.086158
     10          8           0        2.533811    1.020085   -0.216450
     11          8           0        0.781495    2.302403   -0.044039
     12          7           0        1.290988   -1.210983   -0.018511
     13          8           0        1.711084   -1.630352    1.044197
     14          8           0        1.504221   -1.664345   -1.126408
     15          6           0       -0.554039    0.101042    1.241933
     16          1           0       -0.504832   -0.779660    1.886893
     17          1           0       -0.449310    1.014870    1.831822
 ---------------------------------------------------------------------

 SCF Done:  E(RHF) =  -692.058637909     A.U. after    8 cycles

 The electronic state is 1-A.
 Alpha  occ. eigenvalues --  -20.65303 -20.64668 -20.64599 -20.64556 -20.55515
 Alpha  occ. eigenvalues --  -15.89992 -15.89367 -15.63199 -11.42009 -11.38179
 Alpha  occ. eigenvalues --  -11.34750 -11.33761  -1.66410  -1.64613  -1.45510
 Alpha  occ. eigenvalues --   -1.44967  -1.41928  -1.33593  -1.18020  -1.02377
 Alpha  occ. eigenvalues --   -1.01757  -1.00207  -0.86197  -0.83954  -0.81565
 Alpha  occ. eigenvalues --   -0.78712  -0.78081  -0.76573  -0.76248  -0.74764
 Alpha  occ. eigenvalues --   -0.70969  -0.69800  -0.66146  -0.64100  -0.61465
 Alpha  occ. eigenvalues --   -0.57505  -0.56988  -0.55193  -0.53852  -0.53588
 Alpha  occ. eigenvalues --   -0.52138  -0.50338  -0.48699  -0.46299  -0.42532
 Alpha virt. eigenvalues --    0.02161   0.03111   0.03845   0.03981   0.04236
 Alpha virt. eigenvalues --    0.04464   0.06110   0.06329   0.06789   0.07043
 Alpha virt. eigenvalues --    0.07091   0.08924   0.08983   0.09370   0.10349

 Mulliken charges:
               1
     1  O   -0.596859
     2  C    0.306051
     3  N   -0.007316
     4  H    0.177476
     5  C   -0.319140
     6  H    0.228640
     7  C    0.392702
     8  H    0.237687
     9  N    0.535851
    10  O   -0.374721
    11  O   -0.418338
    12  N    0.531163
    13  O   -0.408413
    14  O   -0.400219
    15  C   -0.352086
    16  H    0.237927
    17  H    0.229596
 Sum of Mulliken charges =  -0.00000

 Dipole moment (field-independent basis, Debye):
    X=             -1.2462    Y=              0.2715    Z=              2.7899  Tot=              3.0677
 Quadrupole moment (field-independent basis, Debye-Ang):
   XX=            -90.3997   YY=            -76.2071   ZZ=            -63.8941
   XY=              0.7323   XZ=             -8.1270   YZ=             -0.3580

 Normal termination of Gaussian 09 at Thu Aug 26 02:45:01 2021.
