 Gaussian 09, Revision E.01,
 Gaussian 09:  ES64L-G09RevE.01 30-Nov-2015

 ----------------
 #P G4 OPT=calcfc
 ----------------

 ------
 BAZPUO
 ------
 Symbolic Z-matrix:
 Charge =  0 Multiplicity = 1

 SCF Done:  E(RB3LYP) =  -685.094299761     A.U. after   15 cycles
 SCF Done:  E(RB3LYP) =  -685.206620684     A.U. after   13 cycles
 SCF Done:  E(RB3LYP) =  -685.286367332     A.U. after   14 cycles
 SCF Done:  E(RB3LYP) =  -685.287508960     A.U. after   13 cycles
 SCF Done:  E(RB3LYP) =  -685.285841903     A.U. after   13 cycles
 SCF Done:  E(RB3LYP) =  -685.287511387     A.U. after    9 cycles
 SCF Done:  E(RB3LYP) =  -685.287900901     A.U. after   11 cycles
 SCF Done:  E(RB3LYP) =  -685.287668003     A.U. after   11 cycles
 SCF Done:  E(RB3LYP) =  -685.287965640     A.U. after    8 cycles
 SCF Done:  E(RB3LYP) =  -685.287982735     A.U. after   10 cycles
 SCF Done:  E(RB3LYP) =  -685.287990967     A.U. after    8 cycles
 SCF Done:  E(RB3LYP) =  -685.287990974     A.U. after    8 cycles
 SCF Done:  E(RB3LYP) =  -685.287990975     A.U. after    6 cycles
 Optimization completed.
    -- Stationary point found.
 Normal termination of Gaussian 09 at Thu Aug 26 18:51:54 2021.

 ----------------------------------------------------------
 #P Geom=AllCheck Guess=TCheck SCRF=Check B3LYP/GTBas3 Freq
 ----------------------------------------------------------

 Structure from the checkpoint file:  "/public/home/users/caep010/.cache/gau_scr/Gau-167597.chk"
 ------
 BAZPUO
 ------
 Charge =  0 Multiplicity = 1

 SCF Done:  E(RB3LYP) =  -685.287990975     A.U. after    2 cycles

  Exact polarizability: 196.455   0.371 143.433  -0.001   0.004  66.139
 Approx polarizability: 306.831  -2.327 240.276  -0.006   0.021 106.233

                      1                      2                      3
                      A                      A                      A
 Frequencies --      8.9151                50.0618                61.4803
 Red. masses --     11.5973                 2.8340                 3.1409
 Frc consts  --      0.0005                 0.0042                 0.0070
 IR Inten    --      0.1317                 0.1589                 0.6312

                      4                      5                      6
                      A                      A                      A
 Frequencies --     91.9572               102.5326               163.5487
 Red. masses --      2.0731                 2.9394                 1.5575
 Frc consts  --      0.0103                 0.0182                 0.0245
 IR Inten    --      1.7689                 2.0639                 0.1123

                      7                      8                      9
                      A                      A                      A
 Frequencies --    171.0382               202.4418               210.2768
 Red. masses --      3.6031                 1.3721                 5.4490
 Frc consts  --      0.0621                 0.0331                 0.1420
 IR Inten    --      0.7162                 2.3936                 0.6384

                     10                     11                     12
                      A                      A                      A
 Frequencies --    240.5091               292.1732               303.3636
 Red. masses --      1.4192                 1.7212                 4.7188
 Frc consts  --      0.0484                 0.0866                 0.2559
 IR Inten    --      1.2866                 0.3584                 0.4776

                     13                     14                     15
                      A                      A                      A
 Frequencies --    309.4582               321.2319               407.4421
 Red. masses --      4.4135                 4.3901                 7.0291
 Frc consts  --      0.2490                 0.2669                 0.6875
 IR Inten    --      0.3135                 0.0843                 1.4905

                     16                     17                     18
                      A                      A                      A
 Frequencies --    447.1095               470.6634               483.9913
 Red. masses --      3.9736                 3.0903                 3.8710
 Frc consts  --      0.4680                 0.4033                 0.5343
 IR Inten    --      3.6712                 0.9654                 3.1641

                     19                     20                     21
                      A                      A                      A
 Frequencies --    562.2146               610.1134               651.2638
 Red. masses --      5.1900                 4.7987                 5.1572
 Frc consts  --      0.9665                 1.0524                 1.2888
 IR Inten    --      2.5523                 6.9389                 0.6667

                     22                     23                     24
                      A                      A                      A
 Frequencies --    660.8440               703.1969               719.3360
 Red. masses --      4.7174                 2.2719                 6.0790
 Frc consts  --      1.2138                 0.6619                 1.8533
 IR Inten    --      0.9234                 5.8266                 6.8812

                     25                     26                     27
                      A                      A                      A
 Frequencies --    767.8889               823.3317               829.4903
 Red. masses --      2.6131                 2.0949                 2.3202
 Frc consts  --      0.9078                 0.8367                 0.9406
 IR Inten    --     13.7793                 5.1361                38.7116

                     28                     29                     30
                      A                      A                      A
 Frequencies --    853.2314               903.0261               974.3390
 Red. masses --      8.8388                 5.3253                 1.3138
 Frc consts  --      3.7912                 2.5586                 0.7349
 IR Inten    --     31.4589                 0.7917                 0.7859

                     31                     32                     33
                      A                      A                      A
 Frequencies --   1007.2674              1057.4954              1082.7324
 Red. masses --      2.6675                 5.8285                 1.5319
 Frc consts  --      1.5946                 3.8403                 1.0581
 IR Inten    --     10.7348                44.3896                25.3858

                     34                     35                     36
                      A                      A                      A
 Frequencies --   1117.2456              1144.5121              1149.7309
 Red. masses --      3.1484                 1.3176                 1.2375
 Frc consts  --      2.3154                 1.0169                 0.9638
 IR Inten    --    120.0730                 0.1184                 0.0029

                     37                     38                     39
                      A                      A                      A
 Frequencies --   1173.8493              1188.1693              1208.2757
 Red. masses --      1.2765                 1.5324                 1.4692
 Frc consts  --      1.0363                 1.2747                 1.2637
 IR Inten    --      0.9442                 6.0932                16.3334

                     40                     41                     42
                      A                      A                      A
 Frequencies --   1217.3532              1273.8441              1293.8126
 Red. masses --      1.5235                 3.0459                 2.4486
 Frc consts  --      1.3302                 2.9120                 2.4150
 IR Inten    --     13.6051                54.4653               107.0052

                     43                     44                     45
                      A                      A                      A
 Frequencies --   1310.5267              1352.2078              1379.0630
 Red. masses --      2.1195                 8.4390                 6.7386
 Frc consts  --      2.1448                 9.0913                 7.5507
 IR Inten    --    130.0877               745.8699               150.0814

                     46                     47                     48
                      A                      A                      A
 Frequencies --   1408.4966              1445.5594              1460.7625
 Red. masses --      3.3511                 1.3138                 1.5727
 Frc consts  --      3.9170                 1.6175                 1.9772
 IR Inten    --     13.5184                 5.7673                 6.8203

                     49                     50                     51
                      A                      A                      A
 Frequencies --   1479.3670              1483.1385              1488.3996
 Red. masses --      1.0386                 1.2768                 1.0443
 Frc consts  --      1.3392                 1.6548                 1.3631
 IR Inten    --      0.0278                40.3142                 7.6520

                     52                     53                     54
                      A                      A                      A
 Frequencies --   1493.9930              1502.4461              1504.7804
 Red. masses --      1.0472                 1.1795                 1.3164
 Frc consts  --      1.3772                 1.5687                 1.7562
 IR Inten    --      9.5377                44.4107                 2.6377

                     55                     56                     57
                      A                      A                      A
 Frequencies --   1520.1792              1533.1173              1548.8429
 Red. masses --      1.1477                 1.2795                 2.2966
 Frc consts  --      1.5627                 1.7719                 3.2460
 IR Inten    --      6.0908                24.6601               103.2489

                     58                     59                     60
                      A                      A                      A
 Frequencies --   1573.0682              1627.8141              1650.1204
 Red. masses --      7.8246                 8.6055                 6.2268
 Frc consts  --     11.4080                13.4350                 9.9896
 IR Inten    --     64.5143               271.4446               502.5137

                     61                     62                     63
                      A                      A                      A
 Frequencies --   2998.6201              3008.6689              3009.4697
 Red. masses --      1.0385                 1.0351                 1.0398
 Frc consts  --      5.5020                 5.5204                 5.5486
 IR Inten    --     61.3548                54.2416                51.9855

                     64                     65                     66
                      A                      A                      A
 Frequencies --   3042.8203              3053.7927              3071.7321
 Red. masses --      1.1029                 1.1035                 1.1049
 Frc consts  --      6.0164                 6.0634                 6.1426
 IR Inten    --     27.9989                31.2453                33.4144

                     67                     68                     69
                      A                      A                      A
 Frequencies --   3133.6914              3143.2368              3146.7327
 Red. masses --      1.0967                 1.0992                 1.0940
 Frc consts  --      6.3454                 6.3983                 6.3825
 IR Inten    --      1.8023                16.4718                28.8446

                     70                     71                     72
                      A                      A                      A
 Frequencies --   3227.4900              3241.0027              3261.9929
 Red. masses --      1.0861                 1.0933                 1.0868
 Frc consts  --      6.6658                 6.7661                 6.8136
 IR Inten    --      3.2923                 4.8321                 3.1197

 - Thermochemistry -
 -------------------
 Temperature   298.150 Kelvin.  Pressure   1.00000 Atm.
 Atom     1 has atomic number  7 and mass  14.00307

 Molecular mass:   196.08479 amu.
 Principal axes and moments of inertia in atomic units:
                           1         2         3
     Eigenvalues --  1552.149543945.365435463.28662
           X            0.99988  -0.01574   0.00000
           Y            0.01574   0.99988  -0.00001
           Z           -0.00000   0.00001   1.00000
 This molecule is an asymmetric top.
 Rotational symmetry number  1.
 Warning -- assumption of classical behavior for rotation
           may cause significant error
 Rotational temperatures (Kelvin)      0.05580     0.02195     0.01585
 Rotational constants (GHZ):           1.16274     0.45743     0.33034
 Zero-point vibrational energy     546764.5 (Joules/Mol)
                                  130.67986 (Kcal/Mol)
 Warning -- explicit consideration of  20 degrees of freedom as
           vibrations may cause significant error
 Vibrational temperatures:     12.83    72.03    88.46   132.31   147.52
          (Kelvin)            235.31   246.09   291.27   302.54   346.04
                              420.37   436.47   445.24   462.18   586.22
                              643.29   677.18   696.35   808.90   877.82
                              937.02   950.81  1011.74  1034.96  1104.82
                             1184.59  1193.45  1227.61  1299.25  1401.85
                             1449.23  1521.50  1557.81  1607.47  1646.70
                             1654.20  1688.91  1709.51  1738.44  1751.50
                             1832.78  1861.51  1885.55  1945.52  1984.16
                             2026.51  2079.83  2101.71  2128.48  2133.90
                             2141.47  2149.52  2161.68  2165.04  2187.20
                             2205.81  2228.44  2263.29  2342.06  2374.15
                             4314.34  4328.80  4329.95  4377.93  4393.72
                             4419.53  4508.68  4522.41  4527.44  4643.63
                             4663.07  4693.27

 Zero-point correction=                           0.208252 (Hartree/Particle)
 Thermal correction to Energy=                    0.222216
 Thermal correction to Enthalpy=                  0.223161
 Thermal correction to Gibbs Free Energy=         0.165279
 Sum of electronic and zero-point Energies=           -685.079739
 Sum of electronic and thermal Energies=              -685.065774
 Sum of electronic and thermal Enthalpies=            -685.064830
 Sum of electronic and thermal Free Energies=         -685.122712

                     E (Thermal)             CV                S
                      KCal/Mol        Cal/Mol-Kelvin    Cal/Mol-Kelvin
 Total                  139.443             50.380            121.822
 Electronic               0.000              0.000              0.000
 Translational            0.889              2.981             41.725
 Rotational               0.889              2.981             31.881
 Vibrational            137.665             44.419             48.215
 Vibration     1          0.593              1.987              8.239
 Vibration     2          0.595              1.978              4.815
 Vibration     3          0.597              1.973              4.409
 Vibration     4          0.602              1.955              3.618
 Vibration     5          0.605              1.947              3.406
 Vibration     6          0.623              1.887              2.508
 Vibration     7          0.626              1.878              2.424
 Vibration     8          0.639              1.836              2.111
 Vibration     9          0.642              1.825              2.041
 Vibration    10          0.658              1.778              1.799
 Vibration    11          0.688              1.688              1.461
 Vibration    12          0.695              1.667              1.398
 Vibration    13          0.699              1.656              1.365
 Vibration    14          0.707              1.633              1.304
 Vibration    15          0.772              1.454              0.936
 Vibration    16          0.806              1.367              0.805
 Vibration    17          0.828              1.315              0.736
 Vibration    18          0.840              1.286              0.699
 Vibration    19          0.918              1.113              0.519
 Vibration    20          0.969              1.010              0.433

 Optimization completed.
    -- Stationary point found.
 Normal termination of Gaussian 09 at Thu Aug 26 18:56:25 2021.

 -----------------------------------------------------------------
 #P Geom=AllCheck Guess=TCheck SCRF=Check CCSD(T,E4T,FrzG4)/GTBas1
 -----------------------------------------------------------------

 Structure from the checkpoint file:  "/public/home/users/caep010/.cache/gau_scr/Gau-167597.chk"
 ------
 BAZPUO
 ------
 Charge =  0 Multiplicity = 1

 SCF Done:  E(RHF) =  -681.121776477     A.U. after   14 cycles
 E2 =    -0.2032870040D+01 EUMP2 =    -0.68315464651717D+03
 CCSD(T)
 CCSD(T)= -0.68329969153D+03
 TQ=-683.3143805\MP4SDQ=-683.2165682\CCSD=-683.2131675\CCSD(T)=-683.299
 Normal termination of Gaussian 09 at Thu Aug 26 21:49:02 2021.

 ---------------------------------------------------------
 #P Geom=AllCheck Guess=TCheck SCRF=Check MP4=FrzG4/GTBas2
 ---------------------------------------------------------

 Structure from the checkpoint file:  "/public/home/users/caep010/.cache/gau_scr/Gau-167597.chk"
 ------
 BAZPUO
 ------
 Charge =  0 Multiplicity = 1

 SCF Done:  E(RHF) =  -681.138880776     A.U. after   18 cycles
 E2 =    -0.2059248105D+01 EUMP2 =    -0.68319812888162D+03
 Normal termination of Gaussian 09 at Thu Aug 26 23:19:08 2021.

 ---------------------------------------------------------
 #P Geom=AllCheck Guess=TCheck SCRF=Check MP4=FrzG4/GTBas3
 ---------------------------------------------------------

 Structure from the checkpoint file:  "/public/home/users/caep010/.cache/gau_scr/Gau-167597.chk"
 ------
 BAZPUO
 ------
 Charge =  0 Multiplicity = 1

 SCF Done:  E(RHF) =  -681.193866865     A.U. after   12 cycles
 E2 =    -0.2458014680D+01 EUMP2 =    -0.68365188154471D+03
 Normal termination of Gaussian 09 at Fri Aug 27 12:47:33 2021.

 -----------------------------------------------------------
 #P Geom=AllCheck Guess=TCheck SCRF=Check MP2=Full/GTLargeXP
 -----------------------------------------------------------

 Structure from the checkpoint file:  "/public/home/users/caep010/.cache/gau_scr/Gau-167597.chk"
 ------
 BAZPUO
 ------
 Charge =  0 Multiplicity = 1

 SCF Done:  E(RHF) =  -681.357250974     A.U. after   14 cycles
 E2 =    -0.3223536115D+01 EUMP2 =    -0.68458078708881D+03
 Normal termination of Gaussian 09 at Fri Aug 27 13:08:14 2021.
 SCF Done:  E(RHF) =  -681.411275524     A.U. after    9 cycles
 Normal termination of Gaussian 09 at Fri Aug 27 13:17:35 2021.

                         Standard orientation:
 ---------------------------------------------------------------------
 Center     Atomic      Atomic             Coordinates (Angstroms)
 Number     Number       Type             X           Y           Z
 ---------------------------------------------------------------------
      1          7           0        2.886889   -0.169509    0.000020
      2          6           0        3.488881    1.150315    0.000124
      3          6           0        1.522173   -0.311478    0.000008
      4          6           0        0.677325    0.817903   -0.000030
      5          1           0        4.574292    1.050876    0.000222
      6          1           0        1.113431    1.803163   -0.000085
      7          6           0       -0.713780    0.708658   -0.000021
      8          8           0       -1.518404    1.785408   -0.000119
      9          6           0       -1.292300   -0.585940    0.000012
     10          7           0       -2.727232   -0.832061    0.000066
     11          8           0       -3.097697   -2.008099   -0.000553
     12          8           0       -3.497614    0.121077    0.000748
     13          6           0       -0.453828   -1.701187    0.000015
     14          1           0       -0.928891   -2.672663    0.000024
     15          6           0        0.918781   -1.590373    0.000026
     16          1           0        1.518385   -2.489003    0.000070
     17          1           0        3.203658    1.729986    0.888310
     18          1           0        3.203829    1.730057   -0.888064
     19          6           0        3.741138   -1.344392    0.000003
     20          1           0        4.784412   -1.028829   -0.000061
     21          1           0        3.576558   -1.968267    0.887841
     22          1           0        3.576460   -1.968286   -0.887797
     23          6           0       -0.948520    3.081862   -0.000265
     24          1           0       -0.338051    3.256595    0.894435
     25          1           0       -1.793157    3.771673   -0.000345
     26          1           0       -0.338039    3.256393   -0.894997
 ---------------------------------------------------------------------

 SCF Done:  E(RHF) =  -681.421933299     A.U. after    7 cycles

 The electronic state is 1-A.
 Alpha  occ. eigenvalues --  -20.59864 -20.57043 -20.56448 -15.82754 -15.59836
 Alpha  occ. eigenvalues --  -11.34108 -11.31515 -11.29533 -11.28089 -11.27871
 Alpha  occ. eigenvalues --  -11.27672 -11.26376 -11.23649 -11.23351  -1.57336
 Alpha  occ. eigenvalues --   -1.43326  -1.36434  -1.28758  -1.16859  -1.07306
 Alpha  occ. eigenvalues --   -1.04133  -0.99725  -0.97505  -0.95680  -0.88064
 Alpha  occ. eigenvalues --   -0.83541  -0.80451  -0.76002  -0.72459  -0.71310
 Alpha  occ. eigenvalues --   -0.69556  -0.68986  -0.67743  -0.66778  -0.66099
 Alpha  occ. eigenvalues --   -0.63779  -0.62882  -0.59843  -0.58629  -0.58504
 Alpha  occ. eigenvalues --   -0.57093  -0.55542  -0.54356  -0.52695  -0.51131
 Alpha  occ. eigenvalues --   -0.49586  -0.46857  -0.45804  -0.43061  -0.42460
 Alpha  occ. eigenvalues --   -0.34619  -0.30994
 Alpha virt. eigenvalues --    0.02382   0.02620   0.03764   0.04107   0.04798
 Alpha virt. eigenvalues --    0.05666   0.05735   0.06133   0.06353   0.07046
 Alpha virt. eigenvalues --    0.07242   0.07381   0.08497   0.08891   0.09073

 Mulliken charges:
               1
     1  N    0.023761
     2  C   -0.552593
     3  C    0.214214
     4  C   -0.232294
     5  H    0.204043
     6  H    0.186467
     7  C    0.311259
     8  O   -0.267053
     9  C   -0.014835
    10  N    0.530914
    11  O   -0.492887
    12  O   -0.434361
    13  C   -0.153110
    14  H    0.265037
    15  C   -0.315561
    16  H    0.205770
    17  H    0.179479
    18  H    0.179468
    19  C   -0.554685
    20  H    0.198763
    21  H    0.184452
    22  H    0.184460
    23  C   -0.414451
    24  H    0.174293
    25  H    0.215158
    26  H    0.174289
 Sum of Mulliken charges =  -0.00000

 Dipole moment (field-independent basis, Debye):
    X=              8.9061    Y=              2.6802    Z=             -0.0002  Tot=              9.3006
 Quadrupole moment (field-independent basis, Debye-Ang):
   XX=            -92.1898   YY=            -73.9010   ZZ=            -84.7815
   XY=             -6.4988   XZ=              0.0014   YZ=             -0.0035

 Normal termination of Gaussian 09 at Fri Aug 27 14:17:10 2021.
