 Gaussian 09, Revision E.01,
 Gaussian 09:  ES64L-G09RevE.01 30-Nov-2015

 ----------------
 #P G4 OPT=calcfc
 ----------------

 ------
 BABBUB
 ------
 Symbolic Z-matrix:
 Charge =  0 Multiplicity = 1

 SCF Done:  E(RB3LYP) =  -487.204012295     A.U. after   15 cycles
 SCF Done:  E(RB3LYP) =  -487.281745500     A.U. after   13 cycles
 SCF Done:  E(RB3LYP) =  -487.297467206     A.U. after   15 cycles
 SCF Done:  E(RB3LYP) =  -487.293482840     A.U. after   14 cycles
 SCF Done:  E(RB3LYP) =  -487.305760037     A.U. after   11 cycles
 SCF Done:  E(RB3LYP) =  -487.302721164     A.U. after   14 cycles
 SCF Done:  E(RB3LYP) =  -487.307330877     A.U. after   10 cycles
 SCF Done:  E(RB3LYP) =  -487.308733354     A.U. after   13 cycles
 SCF Done:  E(RB3LYP) =  -487.309149671     A.U. after   12 cycles
 SCF Done:  E(RB3LYP) =  -487.309406371     A.U. after   12 cycles
 SCF Done:  E(RB3LYP) =  -487.309460309     A.U. after   10 cycles
 SCF Done:  E(RB3LYP) =  -487.309465775     A.U. after    9 cycles
 SCF Done:  E(RB3LYP) =  -487.309466609     A.U. after    8 cycles
 Optimization completed.
    -- Stationary point found.
 Normal termination of Gaussian 09 at Thu Aug 26 06:47:48 2021.

 ----------------------------------------------------------
 #P Geom=AllCheck Guess=TCheck SCRF=Check B3LYP/GTBas3 Freq
 ----------------------------------------------------------

 Structure from the checkpoint file:  "/public/home/users/caep010/.cache/gau_scr/Gau-148554.chk"
 ------
 BABBUB
 ------
 Charge =  0 Multiplicity = 1

 SCF Done:  E(RB3LYP) =  -487.309466609     A.U. after    1 cycles

  Exact polarizability: 104.237   3.054  65.786   0.465   0.450  41.067
 Approx polarizability: 151.450  11.341 117.436   2.448  -0.862  63.716

                      1                      2                      3
                      A                      A                      A
 Frequencies --     67.6618               120.0942               201.1047
 Red. masses --      8.3901                 4.4512                 2.2519
 Frc consts  --      0.0226                 0.0378                 0.0537
 IR Inten    --      0.1714                 3.7946                 5.3838

                      4                      5                      6
                      A                      A                      A
 Frequencies --    229.9407               241.9236               400.9544
 Red. masses --      5.5354                 5.4459                 7.3306
 Frc consts  --      0.1724                 0.1878                 0.6944
 IR Inten    --      2.4111                 6.1812                 2.7255

                      7                      8                      9
                      A                      A                      A
 Frequencies --    461.0808               534.6139               613.8009
 Red. masses --      6.9703                 1.2778                 1.1171
 Frc consts  --      0.8731                 0.2152                 0.2480
 IR Inten    --      8.7057               131.4167                80.9707

                     10                     11                     12
                      A                      A                      A
 Frequencies --    701.4309               739.4056               760.9645
 Red. masses --      2.2574                10.5964                 8.5862
 Frc consts  --      0.6544                 3.4133                 2.9294
 IR Inten    --     14.9061                23.7197                 6.6216

                     13                     14                     15
                      A                      A                      A
 Frequencies --    802.6826               818.8353               907.9887
 Red. masses --     12.0232                 7.3445                 1.6474
 Frc consts  --      4.5641                 2.9014                 0.8002
 IR Inten    --     11.2330                 8.3440                 4.1102

                     16                     17                     18
                      A                      A                      A
 Frequencies --    939.4908               962.4151              1034.1015
 Red. masses --      3.1903                 5.7712                 2.1893
 Frc consts  --      1.6591                 3.1495                 1.3794
 IR Inten    --      0.1045               108.1145                42.0805

                     19                     20                     21
                      A                      A                      A
 Frequencies --   1042.6928              1106.9702              1130.7081
 Red. masses --      2.8174                 2.2518                 1.6691
 Frc consts  --      1.8047                 1.6257                 1.2573
 IR Inten    --      9.6054                13.1901                18.6138

                     22                     23                     24
                      A                      A                      A
 Frequencies --   1216.8242              1227.7659              1283.6403
 Red. masses --      1.1822                 1.3794                 3.0778
 Frc consts  --      1.0313                 1.2251                 2.9880
 IR Inten    --     20.5479                17.1087               196.7501

                     25                     26                     27
                      A                      A                      A
 Frequencies --   1312.2438              1327.7434              1374.8385
 Red. masses --      1.7719                 1.6102                 2.0144
 Frc consts  --      1.7977                 1.6724                 2.2433
 IR Inten    --     27.9196               176.1174               187.9672

                     28                     29                     30
                      A                      A                      A
 Frequencies --   1412.9376              1491.9379              1528.4466
 Red. masses --      1.8149                 1.8866                 1.1352
 Frc consts  --      2.1347                 2.4742                 1.5625
 IR Inten    --     16.1892                59.1469                44.9712

                     31                     32                     33
                      A                      A                      A
 Frequencies --   1536.7197              1625.9006              1665.6606
 Red. masses --      1.4971                11.3781                 5.0135
 Frc consts  --      2.0829                17.7217                 8.1952
 IR Inten    --     55.7477               555.7712               464.0696

                     34                     35                     36
                      A                      A                      A
 Frequencies --   3012.3916              3022.4187              3101.6323
 Red. masses --      1.0723                 1.0671                 1.0926
 Frc consts  --      5.7329                 5.7435                 6.1927
 IR Inten    --     45.6491                47.6777                27.2967

                     37                     38                     39
                      A                      A                      A
 Frequencies --   3109.2952              3603.2276              3648.0041
 Red. masses --      1.0991                 1.0783                 1.0779
 Frc consts  --      6.2605                 8.2485                 8.4513
 IR Inten    --     22.4472               143.3152                55.4509

 - Thermochemistry -
 -------------------
 Temperature   298.150 Kelvin.  Pressure   1.00000 Atm.
 Atom     1 has atomic number  6 and mass  12.00000

 Molecular mass:   130.04908 amu.
 Principal axes and moments of inertia in atomic units:
                           1         2         3
     Eigenvalues --   372.659161719.952052060.14478
           X            1.00000   0.00215  -0.00189
           Y           -0.00213   0.99995   0.00957
           Z            0.00192  -0.00956   0.99995
 This molecule is an asymmetric top.
 Rotational symmetry number  1.
 Rotational temperatures (Kelvin)      0.23242     0.05036     0.04204
 Rotational constants (GHZ):           4.84287     1.04930     0.87603
 Zero-point vibrational energy     300983.4 (Joules/Mol)
                                   71.93675 (Kcal/Mol)
 Warning -- explicit consideration of   9 degrees of freedom as
           vibrations may cause significant error
 Vibrational temperatures:     97.35   172.79   289.34   330.83   348.07
          (Kelvin)            576.88   663.39   769.19   883.12  1009.20
                             1063.84  1094.86  1154.88  1178.12  1306.39
                             1351.72  1384.70  1487.84  1500.20  1592.68
                             1626.83  1750.74  1766.48  1846.87  1888.02
                             1910.32  1978.08  2032.90  2146.56  2199.09
                             2210.99  2339.31  2396.51  4334.15  4348.58
                             4462.55  4473.58  5184.23  5248.66

 Zero-point correction=                           0.114639 (Hartree/Particle)
 Thermal correction to Energy=                    0.122254
 Thermal correction to Enthalpy=                  0.123198
 Thermal correction to Gibbs Free Energy=         0.081819
 Sum of electronic and zero-point Energies=           -487.194828
 Sum of electronic and thermal Energies=              -487.187213
 Sum of electronic and thermal Enthalpies=            -487.186269
 Sum of electronic and thermal Free Energies=         -487.227648

                     E (Thermal)             CV                S
                      KCal/Mol        Cal/Mol-Kelvin    Cal/Mol-Kelvin
 Total                   76.715             27.713             87.090
 Electronic               0.000              0.000              0.000
 Translational            0.889              2.981             40.501
 Rotational               0.889              2.981             28.670
 Vibrational             74.938             21.751             17.919
 Vibration     1          0.598              1.970              4.220
 Vibration     2          0.609              1.933              3.099
 Vibration     3          0.638              1.838              2.123
 Vibration     4          0.652              1.795              1.879
 Vibration     5          0.658              1.776              1.789
 Vibration     6          0.767              1.468              0.959
 Vibration     7          0.819              1.336              0.763
 Vibration     8          0.890              1.173              0.577
 Vibration     9          0.973              1.003              0.427

 Optimization completed.
    -- Stationary point found.
 Normal termination of Gaussian 09 at Thu Aug 26 06:48:53 2021.

 -----------------------------------------------------------------
 #P Geom=AllCheck Guess=TCheck SCRF=Check CCSD(T,E4T,FrzG4)/GTBas1
 -----------------------------------------------------------------

 Structure from the checkpoint file:  "/public/home/users/caep010/.cache/gau_scr/Gau-148554.chk"
 ------
 BABBUB
 ------
 Charge =  0 Multiplicity = 1

 SCF Done:  E(RHF) =  -484.475702097     A.U. after   15 cycles
 E2 =    -0.1400330836D+01 EUMP2 =    -0.48587603293330D+03
 CCSD(T)
 CCSD(T)= -0.48595980338D+03
 DTQ=-485.9708069\MP4SDQ=-485.907301\CCSD=-485.9040399\CCSD(T)=-485.959
 Normal termination of Gaussian 09 at Thu Aug 26 07:01:06 2021.

 ---------------------------------------------------------
 #P Geom=AllCheck Guess=TCheck SCRF=Check MP4=FrzG4/GTBas2
 ---------------------------------------------------------

 Structure from the checkpoint file:  "/public/home/users/caep010/.cache/gau_scr/Gau-148554.chk"
 ------
 BABBUB
 ------
 Charge =  0 Multiplicity = 1

 SCF Done:  E(RHF) =  -484.490274885     A.U. after   13 cycles
 E2 =    -0.1420449197D+01 EUMP2 =    -0.48591072408230D+03
 Normal termination of Gaussian 09 at Thu Aug 26 07:04:59 2021.

 ---------------------------------------------------------
 #P Geom=AllCheck Guess=TCheck SCRF=Check MP4=FrzG4/GTBas3
 ---------------------------------------------------------

 Structure from the checkpoint file:  "/public/home/users/caep010/.cache/gau_scr/Gau-148554.chk"
 ------
 BABBUB
 ------
 Charge =  0 Multiplicity = 1

 SCF Done:  E(RHF) =  -484.531196612     A.U. after   13 cycles
 E2 =    -0.1680801838D+01 EUMP2 =    -0.48621199845036D+03
 Normal termination of Gaussian 09 at Thu Aug 26 07:33:58 2021.

 -----------------------------------------------------------
 #P Geom=AllCheck Guess=TCheck SCRF=Check MP2=Full/GTLargeXP
 -----------------------------------------------------------

 Structure from the checkpoint file:  "/public/home/users/caep010/.cache/gau_scr/Gau-148554.chk"
 ------
 BABBUB
 ------
 Charge =  0 Multiplicity = 1

 SCF Done:  E(RHF) =  -484.655407767     A.U. after   13 cycles
 E2 =    -0.2188047314D+01 EUMP2 =    -0.48684345508088D+03
 Normal termination of Gaussian 09 at Thu Aug 26 07:40:17 2021.
 SCF Done:  E(RHF) =  -484.694001727     A.U. after   10 cycles
 Normal termination of Gaussian 09 at Thu Aug 26 07:46:49 2021.

                         Standard orientation:
 ---------------------------------------------------------------------
 Center     Atomic      Atomic             Coordinates (Angstroms)
 Number     Number       Type             X           Y           Z
 ---------------------------------------------------------------------
      1          6           0        0.316552   -0.345632    0.039758
      2          7           0        0.759013    0.920948   -0.108958
      3          6           0        2.201543    0.999174    0.088671
      4          6           0        2.623583   -0.463692   -0.167079
      5          1           0        2.898706   -0.616335   -1.219482
      6          7           0        1.395591   -1.174718    0.179964
      7          1           0        1.263096   -2.150133   -0.035826
      8          7           0       -0.890093   -0.875621    0.052072
      9          7           0       -1.959542   -0.001034   -0.002853
     10          8           0       -1.797377    1.233587    0.034694
     11          1           0        0.086865    1.664371    0.016958
     12          8           0       -3.053533   -0.528427   -0.076639
     13          1           0        2.447740    1.311126    1.112081
     14          1           0        2.666230    1.697745   -0.610187
     15          1           0        3.459787   -0.774178    0.462347
 ---------------------------------------------------------------------

 SCF Done:  E(RHF) =  -484.701744374     A.U. after    8 cycles

 The electronic state is 1-A.
 Alpha  occ. eigenvalues --  -20.57740 -20.57058 -15.85628 -15.61323 -15.61176
 Alpha  occ. eigenvalues --  -15.58836 -11.39676 -11.30728 -11.30669  -1.59255
 Alpha  occ. eigenvalues --   -1.38277  -1.36648  -1.24192  -1.21528  -1.05368
 Alpha  occ. eigenvalues --   -0.92567  -0.89094  -0.85671  -0.77350  -0.72483
 Alpha  occ. eigenvalues --   -0.71644  -0.70584  -0.68790  -0.66998  -0.63034
 Alpha  occ. eigenvalues --   -0.59311  -0.56663  -0.56397  -0.52533  -0.47961
 Alpha  occ. eigenvalues --   -0.45154  -0.44511  -0.41841  -0.40053
 Alpha virt. eigenvalues --    0.02130   0.02833   0.03820   0.04468   0.06012
 Alpha virt. eigenvalues --    0.06378   0.06781   0.07038   0.07754   0.09095
 Alpha virt. eigenvalues --    0.09540   0.10857   0.11586   0.12112   0.12637

 Mulliken charges:
               1
     1  C    0.502098
     2  N   -0.424112
     3  C   -0.221079
     4  C   -0.216497
     5  H    0.168837
     6  N   -0.391633
     7  H    0.359374
     8  N   -0.417366
     9  N    0.558600
    10  O   -0.487658
    11  H    0.400390
    12  O   -0.397165
    13  H    0.173104
    14  H    0.197374
    15  H    0.195735
 Sum of Mulliken charges =  -0.00000

 Dipole moment (field-independent basis, Debye):
    X=              8.5117    Y=              0.3772    Z=             -0.2741  Tot=              8.5245
 Quadrupole moment (field-independent basis, Debye-Ang):
   XX=            -56.9796   YY=            -50.2482   ZZ=            -51.8966
   XY=             -1.0505   XZ=             -0.9732   YZ=              1.4080

 Normal termination of Gaussian 09 at Thu Aug 26 08:04:55 2021.
