 Gaussian 09, Revision E.01,
 Gaussian 09:  ES64L-G09RevE.01 30-Nov-2015

 ----------------
 #P G4 OPT=calcfc
 ----------------

 ------
 BUXJAH
 ------
 Symbolic Z-matrix:
 Charge =  0 Multiplicity = 1

 SCF Done:  E(RB3LYP) =  -621.173893590     A.U. after   16 cycles
 SCF Done:  E(RB3LYP) =  -621.238083444     A.U. after   17 cycles
 SCF Done:  E(RB3LYP) =  -621.245570520     A.U. after   17 cycles
 SCF Done:  E(RB3LYP) =  -621.248662118     A.U. after   17 cycles
 SCF Done:  E(RB3LYP) =  -621.251487411     A.U. after   17 cycles
 SCF Done:  E(RB3LYP) =  -621.252338084     A.U. after   17 cycles
 SCF Done:  E(RB3LYP) =  -621.250935615     A.U. after   17 cycles
 SCF Done:  E(RB3LYP) =  -621.251555298     A.U. after   12 cycles
 SCF Done:  E(RB3LYP) =  -621.252382904     A.U. after   12 cycles
 SCF Done:  E(RB3LYP) =  -621.252414549     A.U. after   10 cycles
 SCF Done:  E(RB3LYP) =  -621.252420101     A.U. after   12 cycles
 SCF Done:  E(RB3LYP) =  -621.252420155     A.U. after    8 cycles
 SCF Done:  E(RB3LYP) =  -621.252420153     A.U. after    7 cycles
 Optimization completed.
    -- Stationary point found.
 Normal termination of Gaussian 09 at Thu Aug 26 11:46:59 2021.

 ----------------------------------------------------------
 #P Geom=AllCheck Guess=TCheck SCRF=Check B3LYP/GTBas3 Freq
 ----------------------------------------------------------

 Structure from the checkpoint file:  "/public/home/users/caep010/.cache/gau_scr/Gau-86370.chk"
 ------
 BUXJAH
 ------
 Charge =  0 Multiplicity = 1

 SCF Done:  E(RB3LYP) =  -621.252420153     A.U. after    2 cycles

  Exact polarizability: 141.809  10.383 135.772  -0.000  -0.000  44.650
 Approx polarizability: 245.462  38.407 266.297  -0.000  -0.000  74.354

                      1                      2                      3
                      A                      A                      A
 Frequencies --     17.6734                68.0789               128.9705
 Red. masses --     15.0763                11.8066                13.0799
 Frc consts  --      0.0028                 0.0322                 0.1282
 IR Inten    --      0.7619                 1.5442                 2.8989

                      4                      5                      6
                      A                      A                      A
 Frequencies --    171.2033               177.3312               192.0969
 Red. masses --      5.7070                13.4049                 6.4820
 Frc consts  --      0.0986                 0.2484                 0.1409
 IR Inten    --      1.9015                 3.6088                 4.2699

                      7                      8                      9
                      A                      A                      A
 Frequencies --    261.8060               356.2340               383.0765
 Red. masses --      8.8602                12.1801                 6.9931
 Frc consts  --      0.3578                 0.9107                 0.6046
 IR Inten    --      3.3191                 1.1541                 0.0032

                     10                     11                     12
                      A                      A                      A
 Frequencies --    431.9355               435.4344               452.1597
 Red. masses --      5.8460                 9.8352                11.9945
 Frc consts  --      0.6426                 1.0987                 1.4448
 IR Inten    --      1.3909                 2.7384                 0.4630

                     13                     14                     15
                      A                      A                      A
 Frequencies --    516.8183               580.5922               589.1383
 Red. masses --     11.1846                 4.7322                 6.2319
 Frc consts  --      1.7601                 0.9398                 1.2744
 IR Inten    --      2.5632                 7.9719                 4.1971

                     16                     17                     18
                      A                      A                      A
 Frequencies --    605.8007               648.5880               756.0599
 Red. masses --      9.2570                 6.3236                 8.7151
 Frc consts  --      2.0016                 1.5673                 2.9352
 IR Inten    --      1.9779                 2.0021                 3.0968

                     19                     20                     21
                      A                      A                      A
 Frequencies --    778.4911               780.4730               815.1562
 Red. masses --      7.6243                 1.9561                 8.1455
 Frc consts  --      2.7224                 0.7020                 3.1890
 IR Inten    --     17.2631                28.9897                18.9956

                     22                     23                     24
                      A                      A                      A
 Frequencies --    860.5730               927.2884               968.5332
 Red. masses --      2.4354                 9.5715                 1.3912
 Frc consts  --      1.0627                 4.8491                 0.7689
 IR Inten    --      9.1216                24.6067                 0.0174

                     25                     26                     27
                      A                      A                      A
 Frequencies --   1005.0708              1094.8153              1179.5556
 Red. masses --      1.3359                 2.1098                 2.7484
 Frc consts  --      0.7951                 1.4900                 2.2531
 IR Inten    --      0.6364                 5.3635                 4.7772

                     28                     29                     30
                      A                      A                      A
 Frequencies --   1196.0563              1221.1193              1259.7021
 Red. masses --      1.4729                 2.8722                 2.2820
 Frc consts  --      1.2415                 2.5234                 2.1336
 IR Inten    --      5.1258                10.9022                 0.4895

                     31                     32                     33
                      A                      A                      A
 Frequencies --   1329.3076              1387.6085              1468.2005
 Red. masses --     10.3406                14.1665                 2.8813
 Frc consts  --     10.7658                16.0711                 3.6594
 IR Inten    --      5.1290               207.3388                11.9954

                     34                     35                     36
                      A                      A                      A
 Frequencies --   1486.3910              1593.8880              1621.1494
 Red. masses --      2.9657                 6.3655                 7.8600
 Frc consts  --      3.8605                 9.5279                12.1708
 IR Inten    --      5.1226                 1.3916                76.1058

                     37                     38                     39
                      A                      A                      A
 Frequencies --   1666.9098              2346.6982              2353.9852
 Red. masses --     11.2619                12.6786                12.6782
 Frc consts  --     18.4369                41.1374                41.3920
 IR Inten    --    135.6344                 0.1163                 1.7576

                     40                     41                     42
                      A                      A                      A
 Frequencies --   3205.2643              3219.5425              3244.0594
 Red. masses --      1.0880                 1.0952                 1.0924
 Frc consts  --      6.5859                 6.6885                 6.7734
 IR Inten    --      1.0559                 0.6566                 8.5020

 - Thermochemistry -
 -------------------
 Temperature   298.150 Kelvin.  Pressure   1.00000 Atm.
 Atom     1 has atomic number  6 and mass  12.00000

 Molecular mass:   173.02253 amu.
 Principal axes and moments of inertia in atomic units:
                           1         2         3
     Eigenvalues --  1367.709412498.271273865.98068
           X            0.99999  -0.00484  -0.00000
           Y            0.00484   0.99999  -0.00000
           Z            0.00000   0.00000   1.00000
 This molecule is an asymmetric top.
 Rotational symmetry number  1.
 Warning -- assumption of classical behavior for rotation
           may cause significant error
 Rotational temperatures (Kelvin)      0.06333     0.03467     0.02240
 Rotational constants (GHZ):           1.31954     0.72240     0.46683
 Zero-point vibrational energy     261879.5 (Joules/Mol)
                                   62.59071 (Kcal/Mol)
 Warning -- explicit consideration of  16 degrees of freedom as
           vibrations may cause significant error
 Vibrational temperatures:     25.43    97.95   185.56   246.32   255.14
          (Kelvin)            276.38   376.68   512.54   551.16   621.46
                              626.49   650.56   743.59   835.34   847.64
                              871.61   933.17  1087.80  1120.07  1122.93
                             1172.83  1238.17  1334.16  1393.50  1446.07
                             1575.19  1697.12  1720.86  1756.92  1812.43
                             1912.57  1996.46  2112.41  2138.58  2293.25
                             2332.47  2398.31  3376.37  3386.86  4611.65
                             4632.20  4667.47

 Zero-point correction=                           0.099745 (Hartree/Particle)
 Thermal correction to Energy=                    0.110198
 Thermal correction to Enthalpy=                  0.111142
 Thermal correction to Gibbs Free Energy=         0.061864
 Sum of electronic and zero-point Energies=           -621.152676
 Sum of electronic and thermal Energies=              -621.142222
 Sum of electronic and thermal Enthalpies=            -621.141278
 Sum of electronic and thermal Free Energies=         -621.190556

                     E (Thermal)             CV                S
                      KCal/Mol        Cal/Mol-Kelvin    Cal/Mol-Kelvin
 Total                   69.150             37.848            103.715
 Electronic               0.000              0.000              0.000
 Translational            0.889              2.981             41.352
 Rotational               0.889              2.981             30.958
 Vibrational             67.373             31.886             31.405
 Vibration     1          0.593              1.986              6.880
 Vibration     2          0.598              1.969              4.208
 Vibration     3          0.611              1.924              2.961
 Vibration     4          0.626              1.878              2.422
 Vibration     5          0.628              1.870              2.356
 Vibration     6          0.634              1.851              2.208
 Vibration     7          0.669              1.743              1.650
 Vibration     8          0.732              1.562              1.138
 Vibration     9          0.752              1.506              1.027
 Vibration    10          0.793              1.401              0.852
 Vibration    11          0.796              1.393              0.841
 Vibration    12          0.811              1.356              0.789
 Vibration    13          0.872              1.213              0.617
 Vibration    14          0.937              1.073              0.484
 Vibration    15          0.946              1.055              0.469
 Vibration    16          0.964              1.020              0.440

 Optimization completed.
    -- Stationary point found.
 Normal termination of Gaussian 09 at Thu Aug 26 11:49:37 2021.

 -----------------------------------------------------------------
 #P Geom=AllCheck Guess=TCheck SCRF=Check CCSD(T,E4T,FrzG4)/GTBas1
 -----------------------------------------------------------------

 Structure from the checkpoint file:  "/public/home/users/caep010/.cache/gau_scr/Gau-86370.chk"
 ------
 BUXJAH
 ------
 Charge =  0 Multiplicity = 1

 SCF Done:  E(RHF) =  -617.606772212     A.U. after   17 cycles
 E2 =    -0.1865102134D+01 EUMP2 =    -0.61947187434524D+03
 CCSD(T)
 CCSD(T)= -0.61957099541D+03
 19.4865402\CCSD=-619.479224\CCSD(T)=-619.5709954\RMSD=3.035e-09\PG=C01
 Normal termination of Gaussian 09 at Thu Aug 26 12:54:12 2021.

 ---------------------------------------------------------
 #P Geom=AllCheck Guess=TCheck SCRF=Check MP4=FrzG4/GTBas2
 ---------------------------------------------------------

 Structure from the checkpoint file:  "/public/home/users/caep010/.cache/gau_scr/Gau-86370.chk"
 ------
 BUXJAH
 ------
 Charge =  0 Multiplicity = 1

 SCF Done:  E(RHF) =  -617.621923882     A.U. after   16 cycles
 E2 =    -0.1885759656D+01 EUMP2 =    -0.61950768353723D+03
 Normal termination of Gaussian 09 at Thu Aug 26 13:16:51 2021.

 ---------------------------------------------------------
 #P Geom=AllCheck Guess=TCheck SCRF=Check MP4=FrzG4/GTBas3
 ---------------------------------------------------------

 Structure from the checkpoint file:  "/public/home/users/caep010/.cache/gau_scr/Gau-86370.chk"
 ------
 BUXJAH
 ------
 Charge =  0 Multiplicity = 1

 SCF Done:  E(RHF) =  -617.662948796     A.U. after   13 cycles
 E2 =    -0.2186579280D+01 EUMP2 =    -0.61984952807644D+03
 Normal termination of Gaussian 09 at Thu Aug 26 15:47:15 2021.

 -----------------------------------------------------------
 #P Geom=AllCheck Guess=TCheck SCRF=Check MP2=Full/GTLargeXP
 -----------------------------------------------------------

 Structure from the checkpoint file:  "/public/home/users/caep010/.cache/gau_scr/Gau-86370.chk"
 ------
 BUXJAH
 ------
 Charge =  0 Multiplicity = 1

 SCF Done:  E(RHF) =  -617.807348504     A.U. after   15 cycles
 E2 =    -0.2878073664D+01 EUMP2 =    -0.62068542216787D+03
 Normal termination of Gaussian 09 at Thu Aug 26 16:08:03 2021.
 SCF Done:  E(RHF) =  -617.855008615     A.U. after   10 cycles
 Normal termination of Gaussian 09 at Thu Aug 26 16:14:15 2021.

                         Standard orientation:
 ---------------------------------------------------------------------
 Center     Atomic      Atomic             Coordinates (Angstroms)
 Number     Number       Type             X           Y           Z
 ---------------------------------------------------------------------
      1          6           0       -1.458437    0.483294    0.000002
      2          6           0       -0.284409   -0.306849    0.000001
      3          6           0       -2.750341   -0.130186    0.000003
      4          6           0       -0.436788   -1.727683   -0.000004
      5          6           0       -1.377420    1.879648    0.000000
      6          1           0       -2.294901    2.455519    0.000001
      7          6           0       -0.141188    2.511422   -0.000003
      8          6           0        1.023398    1.753498   -0.000001
      9          1           0        2.003539    2.209808   -0.000000
     10          1           0       -0.082882    3.593250   -0.000007
     11          7           0       -0.707867   -2.852432   -0.000008
     12          6           0        0.944865    0.367552    0.000004
     13          7           0        2.224214   -0.380630    0.000001
     14          8           0        2.166484   -1.598384    0.000009
     15          8           0        3.252148    0.280882   -0.000005
     16          7           0       -3.815331   -0.581616    0.000001
 ---------------------------------------------------------------------

 SCF Done:  E(RHF) =  -617.863706008     A.U. after    7 cycles

 The electronic state is 1-A.
 Alpha  occ. eigenvalues --  -20.63378 -20.62996 -15.88740 -15.60580 -15.60269
 Alpha  occ. eigenvalues --  -11.36734 -11.36466 -11.34902 -11.32435 -11.32135
 Alpha  occ. eigenvalues --  -11.31252 -11.30592 -11.30459  -1.64039  -1.43470
 Alpha  occ. eigenvalues --   -1.27502  -1.24597  -1.23463  -1.14574  -1.12369
 Alpha  occ. eigenvalues --   -1.01556  -0.95680  -0.90089  -0.84301  -0.79350
 Alpha  occ. eigenvalues --   -0.76784  -0.75520  -0.75216  -0.72183  -0.70827
 Alpha  occ. eigenvalues --   -0.61714  -0.61685  -0.61364  -0.58714  -0.58055
 Alpha  occ. eigenvalues --   -0.54292  -0.52999  -0.52366  -0.51704  -0.50082
 Alpha  occ. eigenvalues --   -0.48300  -0.47969  -0.41943  -0.40065
 Alpha virt. eigenvalues --   -0.00757   0.01137   0.01587   0.03263   0.03885
 Alpha virt. eigenvalues --    0.04471   0.05443   0.05896   0.06058   0.06092
 Alpha virt. eigenvalues --    0.06768   0.07596   0.08052   0.08720   0.08734

 Mulliken charges:
               1
     1  C    0.258201
     2  C    0.347182
     3  C    0.118560
     4  C    0.057734
     5  C   -0.232694
     6  H    0.247957
     7  C   -0.145193
     8  C   -0.186329
     9  H    0.277533
    10  H    0.240882
    11  N   -0.354985
    12  C    0.082664
    13  N    0.501782
    14  O   -0.383304
    15  O   -0.432478
    16  N   -0.397512
 Sum of Mulliken charges =  -0.00000

 Dipole moment (field-independent basis, Debye):
    X=              0.6771    Y=              8.1014    Z=              0.0000  Tot=              8.1297
 Quadrupole moment (field-independent basis, Debye-Ang):
   XX=            -96.5792   YY=            -74.6108   ZZ=            -72.6917
   XY=             -5.1093   XZ=             -0.0000   YZ=             -0.0000

 Normal termination of Gaussian 09 at Thu Aug 26 16:52:39 2021.
