 Gaussian 09, Revision E.01,
 Gaussian 09:  ES64L-G09RevE.01 30-Nov-2015

 ----------------
 #P G4 OPT=calcfc
 ----------------

 ------
 BUGKIY
 ------
 Symbolic Z-matrix:
 Charge =  0 Multiplicity = 1

 SCF Done:  E(RB3LYP) =  -690.483802054     A.U. after   16 cycles
 SCF Done:  E(RB3LYP) =  -690.549244263     A.U. after   15 cycles
 SCF Done:  E(RB3LYP) =  -690.499973354     A.U. after   17 cycles
 SCF Done:  E(RB3LYP) =  -690.553965353     A.U. after   13 cycles
 SCF Done:  E(RB3LYP) =  -690.560376618     A.U. after   15 cycles
 SCF Done:  E(RB3LYP) =  -690.564196629     A.U. after   16 cycles
 SCF Done:  E(RB3LYP) =  -690.566106451     A.U. after   17 cycles
 SCF Done:  E(RB3LYP) =  -690.542599540     A.U. after   16 cycles
 SCF Done:  E(RB3LYP) =  -690.566391795     A.U. after   11 cycles
 SCF Done:  E(RB3LYP) =  -690.542876147     A.U. after   15 cycles
 SCF Done:  E(RB3LYP) =  -690.571022421     A.U. after   10 cycles
 SCF Done:  E(RB3LYP) =  -690.571023366     A.U. after    9 cycles
 SCF Done:  E(RB3LYP) =  -690.571023538     A.U. after    9 cycles
 Optimization completed.
    -- Stationary point found.
 Normal termination of Gaussian 09 at Wed Aug 25 22:13:13 2021.

 ----------------------------------------------------------
 #P Geom=AllCheck Guess=TCheck SCRF=Check B3LYP/GTBas3 Freq
 ----------------------------------------------------------

 Structure from the checkpoint file:  "/public/home/users/caep010/.cache/gau_scr/Gau-104887.chk"
 ------
 BUGKIY
 ------
 Charge =  0 Multiplicity = 1

 SCF Done:  E(RB3LYP) =  -690.571023538     A.U. after    1 cycles

  Exact polarizability: 122.707  -0.147  95.990  -0.148  -0.074  40.090
 Approx polarizability: 192.864   0.427 204.816  -2.754  -4.644  66.256

                      1                      2                      3
                      A                      A                      A
 Frequencies --     57.5192                64.8046               129.8047
 Red. masses --     13.4522                11.0062                 9.7571
 Frc consts  --      0.0262                 0.0272                 0.0969
 IR Inten    --      0.3907                 1.3593                 2.5408

                      4                      5                      6
                      A                      A                      A
 Frequencies --    152.6911               171.9017               202.8484
 Red. masses --     11.5487                 1.0901                 5.3097
 Frc consts  --      0.1586                 0.0190                 0.1287
 IR Inten    --      2.2266                43.5088                 0.9672

                      7                      8                      9
                      A                      A                      A
 Frequencies --    275.1837               321.6655               353.4573
 Red. masses --      7.2524                 7.7783                12.3686
 Frc consts  --      0.3236                 0.4742                 0.9104
 IR Inten    --      4.1969                 1.8208                 0.4261

                     10                     11                     12
                      A                      A                      A
 Frequencies --    359.1346               467.6850               532.7804
 Red. masses --      6.4901                 9.9798                 9.5084
 Frc consts  --      0.4932                 1.2861                 1.5902
 IR Inten    --      6.2556                 1.1499                 5.9490

                     13                     14                     15
                      A                      A                      A
 Frequencies --    618.8461               635.0476               653.8060
 Red. masses --      4.2583                 5.2788                10.5114
 Frc consts  --      0.9608                 1.2543                 2.6473
 IR Inten    --      9.9746                 4.0068                10.0173

                     16                     17                     18
                      A                      A                      A
 Frequencies --    727.4474               770.8794               783.0395
 Red. masses --     10.3023                 9.5103                 4.8072
 Frc consts  --      3.2121                 3.3298                 1.7366
 IR Inten    --     15.1759                 0.5383                15.6437

                     19                     20                     21
                      A                      A                      A
 Frequencies --    834.1990               857.0378               870.2928
 Red. masses --     14.5234                 1.7627                11.0811
 Frc consts  --      5.9547                 0.7628                 4.9450
 IR Inten    --     34.1512                11.1023                75.6443

                     22                     23                     24
                      A                      A                      A
 Frequencies --   1007.9000              1015.9255              1150.4922
 Red. masses --      7.2032                 1.3624                 1.5494
 Frc consts  --      4.3113                 0.8285                 1.2083
 IR Inten    --     19.9521               130.1807                41.3028

                     25                     26                     27
                      A                      A                      A
 Frequencies --   1161.7744              1285.9305              1351.6907
 Red. masses --      5.6480                 2.7068                 8.3180
 Frc consts  --      4.4915                 2.6372                 8.9541
 IR Inten    --     11.3422                11.9813               176.7698

                     28                     29                     30
                      A                      A                      A
 Frequencies --   1380.9806              1396.3055              1427.3700
 Red. masses --     11.8420                 4.5528                 3.2090
 Frc consts  --     13.3061                 5.2299                 3.8521
 IR Inten    --    430.9233                 9.8333                11.0944

                     31                     32                     33
                      A                      A                      A
 Frequencies --   1460.4748              1523.2750              1537.8199
 Red. masses --      5.3349                 7.7328                 5.7560
 Frc consts  --      6.7045                10.5717                 8.0201
 IR Inten    --     20.0968                89.7974                11.6760

                     34                     35                     36
                      A                      A                      A
 Frequencies --   1638.6359              1651.5630              1698.6366
 Red. masses --      8.3787                12.4727                 1.1703
 Frc consts  --     13.2554                20.0448                 1.9895
 IR Inten    --    122.5191               286.8196                19.5459

                     37                     38                     39
                      A                      A                      A
 Frequencies --   3308.0440              3459.6357              3539.0865
 Red. masses --      1.1005                 1.0486                 1.0934
 Frc consts  --      7.0957                 7.3944                 8.0688
 IR Inten    --     16.3821                22.5750                52.5227

 - Thermochemistry -
 -------------------
 Temperature   298.150 Kelvin.  Pressure   1.00000 Atm.
 Atom     1 has atomic number  7 and mass  14.00307

 Molecular mass:   173.01850 amu.
 Principal axes and moments of inertia in atomic units:
                           1         2         3
     Eigenvalues --   909.919582888.456663781.38506
           X            0.99994   0.01119   0.00121
           Y           -0.01120   0.99991   0.00713
           Z           -0.00113  -0.00714   0.99997
 This molecule is an asymmetric top.
 Rotational symmetry number  1.
 Warning -- assumption of classical behavior for rotation
           may cause significant error
 Rotational temperatures (Kelvin)      0.09519     0.02999     0.02291
 Rotational constants (GHZ):           1.98341     0.62481     0.47727
 Zero-point vibrational energy     244251.2 (Joules/Mol)
                                   58.37744 (Kcal/Mol)
 Warning -- explicit consideration of  13 degrees of freedom as
           vibrations may cause significant error
 Vibrational temperatures:     82.76    93.24   186.76   219.69   247.33
          (Kelvin)            291.85   395.93   462.80   508.55   516.71
                              672.89   766.55   890.38   913.69   940.68
                             1046.63  1109.12  1126.62  1200.22  1233.08
                             1252.16  1450.14  1461.69  1655.30  1671.53
                             1850.16  1944.78  1986.92  2008.97  2053.66
                             2101.29  2191.65  2212.58  2357.63  2376.23
                             2443.96  4759.53  4977.64  5091.95

 Zero-point correction=                           0.093030 (Hartree/Particle)
 Thermal correction to Energy=                    0.103037
 Thermal correction to Enthalpy=                  0.103981
 Thermal correction to Gibbs Free Energy=         0.056328
 Sum of electronic and zero-point Energies=           -690.477993
 Sum of electronic and thermal Energies=              -690.467987
 Sum of electronic and thermal Enthalpies=            -690.467043
 Sum of electronic and thermal Free Energies=         -690.514696

                     E (Thermal)             CV                S
                      KCal/Mol        Cal/Mol-Kelvin    Cal/Mol-Kelvin
 Total                   64.656             35.288            100.294
 Electronic               0.000              0.000              0.000
 Translational            0.889              2.981             41.352
 Rotational               0.889              2.981             30.675
 Vibrational             62.879             29.326             28.266
 Vibration     1          0.596              1.974              4.541
 Vibration     2          0.597              1.971              4.305
 Vibration     3          0.612              1.923              2.949
 Vibration     4          0.619              1.900              2.638
 Vibration     5          0.626              1.877              2.415
 Vibration     6          0.639              1.836              2.107
 Vibration     7          0.677              1.719              1.563
 Vibration     8          0.707              1.632              1.302
 Vibration     9          0.730              1.568              1.151
 Vibration    10          0.734              1.556              1.126
 Vibration    11          0.825              1.322              0.744
 Vibration    12          0.888              1.177              0.581
 Vibration    13          0.979              0.992              0.418

 Optimization completed.
    -- Stationary point found.
 Normal termination of Gaussian 09 at Wed Aug 25 22:15:11 2021.

 -----------------------------------------------------------------
 #P Geom=AllCheck Guess=TCheck SCRF=Check CCSD(T,E4T,FrzG4)/GTBas1
 -----------------------------------------------------------------

 Structure from the checkpoint file:  "/public/home/users/caep010/.cache/gau_scr/Gau-104887.chk"
 ------
 BUGKIY
 ------
 Charge =  0 Multiplicity = 1

 SCF Done:  E(RHF) =  -686.714973482     A.U. after   16 cycles
 E2 =    -0.1959214777D+01 EUMP2 =    -0.68867418825907D+03
 CCSD(T)
 CCSD(T)= -0.68875360124D+03
 79\MP4SDTQ=-688.780405\MP4SDQ=-688.6752154\CCSD=-688.666404\CCSD(T)=-6
 Normal termination of Gaussian 09 at Wed Aug 25 23:05:53 2021.

 ---------------------------------------------------------
 #P Geom=AllCheck Guess=TCheck SCRF=Check MP4=FrzG4/GTBas2
 ---------------------------------------------------------

 Structure from the checkpoint file:  "/public/home/users/caep010/.cache/gau_scr/Gau-104887.chk"
 ------
 BUGKIY
 ------
 Charge =  0 Multiplicity = 1

 SCF Done:  E(RHF) =  -686.735180250     A.U. after   13 cycles
 E2 =    -0.1986462295D+01 EUMP2 =    -0.68872164254486D+03
 Normal termination of Gaussian 09 at Wed Aug 25 23:24:22 2021.

 ---------------------------------------------------------
 #P Geom=AllCheck Guess=TCheck SCRF=Check MP4=FrzG4/GTBas3
 ---------------------------------------------------------

 Structure from the checkpoint file:  "/public/home/users/caep010/.cache/gau_scr/Gau-104887.chk"
 ------
 BUGKIY
 ------
 Charge =  0 Multiplicity = 1

 SCF Done:  E(RHF) =  -686.788091084     A.U. after   13 cycles
 E2 =    -0.2325897610D+01 EUMP2 =    -0.68911398869353D+03
 Normal termination of Gaussian 09 at Thu Aug 26 01:27:40 2021.

 -----------------------------------------------------------
 #P Geom=AllCheck Guess=TCheck SCRF=Check MP2=Full/GTLargeXP
 -----------------------------------------------------------

 Structure from the checkpoint file:  "/public/home/users/caep010/.cache/gau_scr/Gau-104887.chk"
 ------
 BUGKIY
 ------
 Charge =  0 Multiplicity = 1

 SCF Done:  E(RHF) =  -686.967673178     A.U. after   14 cycles
 E2 =    -0.3011487788D+01 EUMP2 =    -0.68997916096568D+03
 Normal termination of Gaussian 09 at Thu Aug 26 01:40:57 2021.
 SCF Done:  E(RHF) =  -687.022295738     A.U. after   10 cycles
 Normal termination of Gaussian 09 at Thu Aug 26 01:45:30 2021.

                         Standard orientation:
 ---------------------------------------------------------------------
 Center     Atomic      Atomic             Coordinates (Angstroms)
 Number     Number       Type             X           Y           Z
 ---------------------------------------------------------------------
      1          7           0       -0.251052   -0.904167    0.002474
      2          6           0       -1.209095    0.042591   -0.001867
      3          7           0       -2.623358   -0.276531   -0.016283
      4          8           0       -3.380795    0.690832   -0.009078
      5          8           0       -2.947676   -1.448997   -0.033230
      6          6           0       -0.686398    1.321106   -0.006774
      7          7           0        0.658694    1.142638    0.011709
      8          7           0        1.566773    2.216896    0.024625
      9          1           0        1.738810    2.463529    0.998391
     10          1           0        2.439303    1.842733   -0.344390
     11          6           0        0.866886   -0.223209    0.018867
     12          7           0        2.177540   -0.829985   -0.011039
     13          8           0        2.246838   -2.027181    0.167253
     14          8           0        3.135473   -0.075728   -0.221263
     15          1           0       -1.137375    2.297451   -0.025221
 ---------------------------------------------------------------------

 SCF Done:  E(RHF) =  -687.033157359     A.U. after    9 cycles

 The electronic state is 1-A.
 Alpha  occ. eigenvalues --  -20.64916 -20.63704 -20.61901 -20.61040 -15.90110
 Alpha  occ. eigenvalues --  -15.87162 -15.73445 -15.65763 -15.63990 -11.40885
 Alpha  occ. eigenvalues --  -11.35589 -11.34982  -1.65079  -1.62211  -1.45800
 Alpha  occ. eigenvalues --   -1.44140  -1.41622  -1.32792  -1.16939  -1.15318
 Alpha  occ. eigenvalues --   -1.06341  -0.96651  -0.87399  -0.85792  -0.82602
 Alpha  occ. eigenvalues --   -0.78190  -0.77989  -0.76443  -0.75349  -0.74117
 Alpha  occ. eigenvalues --   -0.73785  -0.71416  -0.68721  -0.65092  -0.56421
 Alpha  occ. eigenvalues --   -0.54969  -0.54281  -0.51553  -0.51206  -0.51024
 Alpha  occ. eigenvalues --   -0.49347  -0.46854  -0.45362  -0.39900
 Alpha virt. eigenvalues --    0.00486   0.01960   0.03074   0.04049   0.04633
 Alpha virt. eigenvalues --    0.05003   0.06537   0.06642   0.06821   0.07065
 Alpha virt. eigenvalues --    0.07819   0.09219   0.09473   0.10321   0.10673

 Mulliken charges:
               1
     1  N   -0.394608
     2  C    0.238623
     3  N    0.496636
     4  O   -0.445332
     5  O   -0.368400
     6  C   -0.089588
     7  N    0.131380
     8  N   -0.605365
     9  H    0.333254
    10  H    0.361705
    11  C    0.319326
    12  N    0.497264
    13  O   -0.338175
    14  O   -0.438755
    15  H    0.302035
 Sum of Mulliken charges =  -0.00000

 Dipole moment (field-independent basis, Debye):
    X=              3.0646    Y=              5.2332    Z=              1.0562  Tot=              6.1558
 Quadrupole moment (field-independent basis, Debye-Ang):
   XX=            -86.7013   YY=            -70.4801   ZZ=            -63.5395
   XY=              3.5981   XZ=              1.8470   YZ=              3.5100

 Normal termination of Gaussian 09 at Thu Aug 26 02:20:19 2021.
