 Gaussian 09, Revision E.01,
 Gaussian 09:  ES64L-G09RevE.01 30-Nov-2015

 ----------------
 #P G4 OPT=calcfc
 ----------------

 ------
 BAZPOI
 ------
 Symbolic Z-matrix:
 Charge =  0 Multiplicity = 1

 SCF Done:  E(RB3LYP) =  -625.930246953     A.U. after   15 cycles
 SCF Done:  E(RB3LYP) =  -626.049731476     A.U. after   13 cycles
 SCF Done:  E(RB3LYP) =  -626.129791695     A.U. after   14 cycles
 SCF Done:  E(RB3LYP) =  -626.131488615     A.U. after   13 cycles
 SCF Done:  E(RB3LYP) =  -626.130951178     A.U. after   13 cycles
 SCF Done:  E(RB3LYP) =  -626.130410747     A.U. after   12 cycles
 SCF Done:  E(RB3LYP) =  -626.131816226     A.U. after   10 cycles
 SCF Done:  E(RB3LYP) =  -626.132024064     A.U. after   11 cycles
 SCF Done:  E(RB3LYP) =  -626.131877328     A.U. after   11 cycles
 SCF Done:  E(RB3LYP) =  -626.132072717     A.U. after   11 cycles
 SCF Done:  E(RB3LYP) =  -626.132129665     A.U. after    8 cycles
 SCF Done:  E(RB3LYP) =  -626.132129812     A.U. after    7 cycles
 SCF Done:  E(RB3LYP) =  -626.132129830     A.U. after    6 cycles
 Optimization completed.
    -- Stationary point found.
 Normal termination of Gaussian 09 at Thu Aug 26 18:32:02 2021.

 ----------------------------------------------------------
 #P Geom=AllCheck Guess=TCheck SCRF=Check B3LYP/GTBas3 Freq
 ----------------------------------------------------------

 Structure from the checkpoint file:  "/public/home/users/caep010/.cache/gau_scr/Gau-153007.chk"
 ------
 BAZPOI
 ------
 Charge =  0 Multiplicity = 1

 SCF Done:  E(RB3LYP) =  -626.132129830     A.U. after    1 cycles

  Exact polarizability: 198.507  -1.693 130.525   0.023   0.179  58.137
 Approx polarizability: 314.306  -6.342 235.980   0.352  -0.098  93.988

                      1                      2                      3
                      A                      A                      A
 Frequencies --     57.0859                59.3651                81.1288
 Red. masses --      3.1342                 2.7217                 7.6696
 Frc consts  --      0.0060                 0.0057                 0.0297
 IR Inten    --      0.4969                 0.9098                 0.5235

                      4                      5                      6
                      A                      A                      A
 Frequencies --     86.0975               167.8130               186.8858
 Red. masses --      2.1116                 1.7572                 3.9795
 Frc consts  --      0.0092                 0.0292                 0.0819
 IR Inten    --      0.3874                 1.8799                 0.2787

                      7                      8                      9
                      A                      A                      A
 Frequencies --    193.5615               250.2731               254.9467
 Red. masses --      1.4618                 2.5512                 1.2893
 Frc consts  --      0.0323                 0.0941                 0.0494
 IR Inten    --      1.7996                 0.3431               162.3515

                     10                     11                     12
                      A                      A                      A
 Frequencies --    299.2044               318.6596               326.5202
 Red. masses --      4.5632                 4.0998                 4.3630
 Frc consts  --      0.2407                 0.2453                 0.2741
 IR Inten    --      8.3764                 8.3626                16.3666

                     13                     14                     15
                      A                      A                      A
 Frequencies --    379.8033               458.2234               461.1528
 Red. masses --      3.2461                 3.9578                 3.4795
 Frc consts  --      0.2759                 0.4896                 0.4360
 IR Inten    --     13.4615                 0.9474                 1.7349

                     16                     17                     18
                      A                      A                      A
 Frequencies --    478.5119               563.4887               581.1909
 Red. masses --      4.0006                 4.5377                 1.3033
 Frc consts  --      0.5397                 0.8489                 0.2594
 IR Inten    --      0.8434                 1.7293                15.7242

                     19                     20                     21
                      A                      A                      A
 Frequencies --    609.1440               622.2115               659.0315
 Red. masses --      2.6851                 4.4799                 4.2071
 Frc consts  --      0.5870                 1.0219                 1.0766
 IR Inten    --      6.4925                 5.2205                 0.3567

                     22                     23                     24
                      A                      A                      A
 Frequencies --    707.3908               730.1576               766.3721
 Red. masses --      2.3194                 5.9474                 2.2906
 Frc consts  --      0.6838                 1.8681                 0.7926
 IR Inten    --      3.1695                 6.6752                17.2837

                     25                     26                     27
                      A                      A                      A
 Frequencies --    810.5383               822.8283               850.3150
 Red. masses --      2.5053                 2.3472                 8.6699
 Frc consts  --      0.9697                 0.9363                 3.6934
 IR Inten    --      3.0143                36.3411                12.1855

                     28                     29                     30
                      A                      A                      A
 Frequencies --    920.1492               966.9243               989.0639
 Red. masses --      4.6936                 1.2896                 2.3916
 Frc consts  --      2.3414                 0.7104                 1.3785
 IR Inten    --      1.7407                 0.7562                14.9148

                     31                     32                     33
                      A                      A                      A
 Frequencies --   1083.7681              1095.1168              1123.9349
 Red. masses --      1.5220                 1.6349                 2.7609
 Frc consts  --      1.0533                 1.1552                 2.0549
 IR Inten    --     26.5246                 2.6849               125.7448

                     34                     35                     36
                      A                      A                      A
 Frequencies --   1144.8519              1150.3391              1190.4074
 Red. masses --      1.3171                 1.2375                 1.5595
 Frc consts  --      1.0171                 0.9649                 1.3020
 IR Inten    --      0.1574                 0.0031                 7.9217

                     37                     38                     39
                      A                      A                      A
 Frequencies --   1211.0930              1272.3923              1301.2423
 Red. masses --      1.5263                 2.6562                 2.0734
 Frc consts  --      1.3190                 2.5337                 2.0685
 IR Inten    --     28.1295                56.8932                32.3258

                     40                     41                     42
                      A                      A                      A
 Frequencies --   1320.9088              1349.2803              1399.3163
 Red. masses --      3.2515                 3.4616                 5.3009
 Frc consts  --      3.3425                 3.7131                 6.1155
 IR Inten    --    188.8438               765.7748                27.4753

                     43                     44                     45
                      A                      A                      A
 Frequencies --   1414.3595              1450.4379              1479.8098
 Red. masses --      3.1167                 1.1829                 1.0395
 Frc consts  --      3.6733                 1.4663                 1.3412
 IR Inten    --     53.4726                 0.7665                 0.2895

                     46                     47                     48
                      A                      A                      A
 Frequencies --   1480.6773              1488.7955              1496.3048
 Red. masses --      2.1521                 1.0440                 1.4900
 Frc consts  --      2.7800                 1.3634                 1.9655
 IR Inten    --     46.5537                 9.5041                74.7221

                     49                     50                     51
                      A                      A                      A
 Frequencies --   1516.5628              1531.1130              1539.9876
 Red. masses --      1.1795                 1.1949                 3.3057
 Frc consts  --      1.5984                 1.6505                 4.6189
 IR Inten    --     15.1997                10.2353               127.8284

                     52                     53                     54
                      A                      A                      A
 Frequencies --   1554.0435              1608.9315              1616.7828
 Red. masses --      2.5860                 6.1545                 1.6675
 Frc consts  --      3.6797                 9.3868                 2.5681
 IR Inten    --     83.3324               241.8262               109.3597

                     55                     56                     57
                      A                      A                      A
 Frequencies --   1661.7954              2999.2695              3010.1322
 Red. masses --      6.4347                 1.0385                 1.0404
 Frc consts  --     10.4697                 5.5039                 5.5543
 IR Inten    --    536.0811                66.4511                60.4968

                     58                     59                     60
                      A                      A                      A
 Frequencies --   3043.2630              3054.5756              3133.0710
 Red. masses --      1.1028                 1.1036                 1.0967
 Frc consts  --      6.0175                 6.0671                 6.3426
 IR Inten    --     29.0440                32.1417                 1.7102

                     61                     62                     63
                      A                      A                      A
 Frequencies --   3145.9409              3206.1516              3226.3805
 Red. masses --      1.0940                 1.0877                 1.0859
 Frc consts  --      6.3793                 6.5879                 6.6601
 IR Inten    --     31.5018                 9.5476                 2.3118

                     64                     65                     66
                      A                      A                      A
 Frequencies --   3240.2713              3556.4874              3717.8378
 Red. masses --      1.0938                 1.0479                 1.1005
 Frc consts  --      6.7666                 7.8096                 8.9627
 IR Inten    --      4.3276                89.9580                59.5374

 - Thermochemistry -
 -------------------
 Temperature   298.150 Kelvin.  Pressure   1.00000 Atm.
 Atom     1 has atomic number  7 and mass  14.00307

 Molecular mass:   181.08513 amu.
 Principal axes and moments of inertia in atomic units:
                           1         2         3
     Eigenvalues --   974.884513900.468344852.03128
           X            0.99997  -0.00811  -0.00013
           Y            0.00811   0.99997   0.00204
           Z            0.00011  -0.00204   1.00000
 This molecule is an asymmetric top.
 Rotational symmetry number  1.
 Warning -- assumption of classical behavior for rotation
           may cause significant error
 Rotational temperatures (Kelvin)      0.08885     0.02221     0.01785
 Rotational constants (GHZ):           1.85124     0.46270     0.37196
 Zero-point vibrational energy     505264.8 (Joules/Mol)
                                  120.76118 (Kcal/Mol)
 Warning -- explicit consideration of  19 degrees of freedom as
           vibrations may cause significant error
 Vibrational temperatures:     82.13    85.41   116.73   123.87   241.45
          (Kelvin)            268.89   278.49   360.09   366.81   430.49
                              458.48   469.79   546.45   659.28   663.50
                              688.47   810.73   836.20   876.42   895.22
                              948.20  1017.78  1050.53  1102.64  1166.18
                             1183.86  1223.41  1323.89  1391.19  1423.04
                             1559.30  1575.63  1617.09  1647.18  1655.08
                             1712.73  1742.49  1830.69  1872.20  1900.49
                             1941.31  2013.30  2034.95  2086.85  2129.11
                             2130.36  2142.04  2152.85  2181.99  2202.93
                             2215.70  2235.92  2314.89  2326.19  2390.95
                             4315.27  4330.90  4378.57  4394.85  4507.78
                             4526.30  4612.93  4642.04  4662.02  5116.99
                             5349.13

 Zero-point correction=                           0.192445 (Hartree/Particle)
 Thermal correction to Energy=                    0.205152
 Thermal correction to Enthalpy=                  0.206096
 Thermal correction to Gibbs Free Energy=         0.153070
 Sum of electronic and zero-point Energies=           -625.939685
 Sum of electronic and thermal Energies=              -625.926978
 Sum of electronic and thermal Enthalpies=            -625.926033
 Sum of electronic and thermal Free Energies=         -625.979060

                     E (Thermal)             CV                S
                      KCal/Mol        Cal/Mol-Kelvin    Cal/Mol-Kelvin
 Total                  128.735             47.166            111.604
 Electronic               0.000              0.000              0.000
 Translational            0.889              2.981             41.488
 Rotational               0.889              2.981             31.290
 Vibrational            126.958             41.204             38.825
 Vibration     1          0.596              1.975              4.555
 Vibration     2          0.597              1.974              4.478
 Vibration     3          0.600              1.962              3.863
 Vibration     4          0.601              1.959              3.747
 Vibration     5          0.625              1.882              2.460
 Vibration     6          0.632              1.858              2.259
 Vibration     7          0.635              1.849              2.193
 Vibration     8          0.663              1.762              1.729
 Vibration     9          0.665              1.754              1.696
 Vibration    10          0.692              1.675              1.421
 Vibration    11          0.705              1.638              1.317
 Vibration    12          0.710              1.622              1.277
 Vibration    13          0.750              1.513              1.040
 Vibration    14          0.816              1.343              0.771
 Vibration    15          0.819              1.336              0.763
 Vibration    16          0.835              1.298              0.714
 Vibration    17          0.919              1.110              0.517
 Vibration    18          0.938              1.072              0.483
 Vibration    19          0.968              1.012              0.434

 Optimization completed.
    -- Stationary point found.
 Normal termination of Gaussian 09 at Thu Aug 26 18:35:30 2021.

 -----------------------------------------------------------------
 #P Geom=AllCheck Guess=TCheck SCRF=Check CCSD(T,E4T,FrzG4)/GTBas1
 -----------------------------------------------------------------

 Structure from the checkpoint file:  "/public/home/users/caep010/.cache/gau_scr/Gau-153007.chk"
 ------
 BAZPOI
 ------
 Charge =  0 Multiplicity = 1

 SCF Done:  E(RHF) =  -622.283679042     A.U. after   15 cycles
 E2 =    -0.1888306208D+01 EUMP2 =    -0.62417198525000D+03
 CCSD(T)
 CCSD(T)= -0.62430578337D+03
 Q=-624.2271564\CCSD=-624.2243792\CCSD(T)=-624.3057834\RMSD=3.381e-09\P
 Normal termination of Gaussian 09 at Thu Aug 26 20:37:49 2021.

 ---------------------------------------------------------
 #P Geom=AllCheck Guess=TCheck SCRF=Check MP4=FrzG4/GTBas2
 ---------------------------------------------------------

 Structure from the checkpoint file:  "/public/home/users/caep010/.cache/gau_scr/Gau-153007.chk"
 ------
 BAZPOI
 ------
 Charge =  0 Multiplicity = 1

 SCF Done:  E(RHF) =  -622.300950863     A.U. after   19 cycles
 E2 =    -0.1913321542D+01 EUMP2 =    -0.62421427240512D+03
 Normal termination of Gaussian 09 at Thu Aug 26 21:19:08 2021.

 ---------------------------------------------------------
 #P Geom=AllCheck Guess=TCheck SCRF=Check MP4=FrzG4/GTBas3
 ---------------------------------------------------------

 Structure from the checkpoint file:  "/public/home/users/caep010/.cache/gau_scr/Gau-153007.chk"
 ------
 BAZPOI
 ------
 Charge =  0 Multiplicity = 1

 SCF Done:  E(RHF) =  -622.352830964     A.U. after   13 cycles
 E2 =    -0.2274134183D+01 EUMP2 =    -0.62462696514724D+03
 Normal termination of Gaussian 09 at Fri Aug 27 02:16:10 2021.

 -----------------------------------------------------------
 #P Geom=AllCheck Guess=TCheck SCRF=Check MP2=Full/GTLargeXP
 -----------------------------------------------------------

 Structure from the checkpoint file:  "/public/home/users/caep010/.cache/gau_scr/Gau-153007.chk"
 ------
 BAZPOI
 ------
 Charge =  0 Multiplicity = 1

 SCF Done:  E(RHF) =  -622.501948793     A.U. after   14 cycles
 E2 =    -0.2983141067D+01 EUMP2 =    -0.62548508985994D+03
 Normal termination of Gaussian 09 at Fri Aug 27 02:29:29 2021.
 SCF Done:  E(RHF) =  -622.551326461     A.U. after   10 cycles
 Normal termination of Gaussian 09 at Fri Aug 27 02:37:54 2021.

                         Standard orientation:
 ---------------------------------------------------------------------
 Center     Atomic      Atomic             Coordinates (Angstroms)
 Number     Number       Type             X           Y           Z
 ---------------------------------------------------------------------
      1          7           0        2.817363   -0.050281    0.008807
      2          6           0        1.446822   -0.116243    0.000524
      3          6           0        0.663950    1.045252   -0.003247
      4          6           0        3.485004    1.237381    0.008275
      5          1           0        4.564225    1.084679    0.017042
      6          1           0        3.220506    1.833317    0.892012
      7          1           0        3.233511    1.827299   -0.883433
      8          1           0        1.133922    2.020014   -0.008098
      9          6           0       -0.741049    1.017202   -0.013289
     10          7           0       -1.433797    2.185109   -0.054198
     11          1           0       -0.944790    3.045411    0.118603
     12          1           0       -2.433789    2.130089    0.069371
     13          6           0       -1.373233   -0.258457   -0.009946
     14          7           0       -2.799233   -0.418742    0.006122
     15          8           0       -3.523672    0.593265    0.035701
     16          8           0       -3.266566   -1.556032   -0.005561
     17          6           0       -0.589261   -1.421367   -0.009647
     18          1           0       -1.110884   -2.368808   -0.009359
     19          6           0        0.780847   -1.374789   -0.005262
     20          1           0        1.341266   -2.298168   -0.004240
     21          6           0        3.613041   -1.265880    0.004420
     22          1           0        3.426348   -1.874823   -0.889335
     23          1           0        4.670208   -1.000312    0.013820
     24          1           0        3.414325   -1.887762    0.886411
 ---------------------------------------------------------------------

 SCF Done:  E(RHF) =  -622.560971784     A.U. after    8 cycles

 The electronic state is 1-A.
 Alpha  occ. eigenvalues --  -20.57545 -20.57362 -15.83414 -15.59516 -15.57445
 Alpha  occ. eigenvalues --  -11.32089 -11.31147 -11.27660 -11.27608 -11.27230
 Alpha  occ. eigenvalues --  -11.26251 -11.22909 -11.22684  -1.57643  -1.36812
 Alpha  occ. eigenvalues --   -1.28464  -1.24859  -1.14982  -1.07449  -1.02242
 Alpha  occ. eigenvalues --   -0.98712  -0.96347  -0.88268  -0.84673  -0.81131
 Alpha  occ. eigenvalues --   -0.75696  -0.72353  -0.72052  -0.70451  -0.69867
 Alpha  occ. eigenvalues --   -0.66964  -0.65920  -0.65001  -0.61481  -0.59440
 Alpha  occ. eigenvalues --   -0.58787  -0.58159  -0.56700  -0.55280  -0.55096
 Alpha  occ. eigenvalues --   -0.51012  -0.48002  -0.47906  -0.47050  -0.44113
 Alpha  occ. eigenvalues --   -0.41922  -0.32278  -0.30651
 Alpha virt. eigenvalues --    0.02588   0.02971   0.03996   0.04407   0.05052
 Alpha virt. eigenvalues --    0.05806   0.05910   0.06557   0.06643   0.07416
 Alpha virt. eigenvalues --    0.07840   0.07888   0.08989   0.09285   0.09723

 Mulliken charges:
               1
     1  N    0.021933
     2  C    0.262442
     3  C   -0.287541
     4  C   -0.548952
     5  H    0.200655
     6  H    0.180247
     7  H    0.181721
     8  H    0.160094
     9  C    0.305105
    10  N   -0.759412
    11  H    0.318747
    12  H    0.378201
    13  C    0.057437
    14  N    0.478778
    15  O   -0.481095
    16  O   -0.466239
    17  C   -0.173474
    18  H    0.261649
    19  C   -0.305099
    20  H    0.204453
    21  C   -0.557027
    22  H    0.184530
    23  H    0.198563
    24  H    0.184283
 Sum of Mulliken charges =  -0.00000

 Dipole moment (field-independent basis, Debye):
    X=              7.6588    Y=              2.0042    Z=              0.3712  Tot=              7.9254
 Quadrupole moment (field-independent basis, Debye-Ang):
   XX=            -84.4185   YY=            -68.5498   ZZ=            -80.5887
   XY=             -5.2491   XZ=             -0.5273   YZ=              1.2346

 Normal termination of Gaussian 09 at Fri Aug 27 03:32:50 2021.
