 Gaussian 09, Revision E.01,
 Gaussian 09:  ES64L-G09RevE.01 30-Nov-2015

 ----------------
 #P G4 OPT=calcfc
 ----------------

 ------
 BAZPIC
 ------
 Symbolic Z-matrix:
 Charge =  0 Multiplicity = 1

 SCF Done:  E(RB3LYP) =  -625.977278749     A.U. after   15 cycles
 SCF Done:  E(RB3LYP) =  -626.073862637     A.U. after   13 cycles
 SCF Done:  E(RB3LYP) =  -626.120800449     A.U. after   14 cycles
 SCF Done:  E(RB3LYP) =  -626.122697534     A.U. after   13 cycles
 SCF Done:  E(RB3LYP) =  -626.122976073     A.U. after   12 cycles
 SCF Done:  E(RB3LYP) =  -626.123013024     A.U. after   11 cycles
 SCF Done:  E(RB3LYP) =  -626.123017440     A.U. after    9 cycles
 SCF Done:  E(RB3LYP) =  -626.123018066     A.U. after    8 cycles
 Optimization completed.
    -- Stationary point found.
 Normal termination of Gaussian 09 at Fri Aug 27 01:24:40 2021.

 ----------------------------------------------------------
 #P Geom=AllCheck Guess=TCheck SCRF=Check B3LYP/GTBas3 Freq
 ----------------------------------------------------------

 Structure from the checkpoint file:  "/public/home/users/caep010/.cache/gau_scr/Gau-184451.chk"
 ------
 BAZPIC
 ------
 Charge =  0 Multiplicity = 1

 SCF Done:  E(RB3LYP) =  -626.123018066     A.U. after    1 cycles

  Exact polarizability: 181.086  -0.083 125.414   0.042  -3.248  64.036
 Approx polarizability: 272.535  -4.231 236.686   3.985  -8.574 100.795

                      1                      2                      3
                      A                      A                      A
 Frequencies --     58.6138                78.6418                96.2784
 Red. masses --      8.9891                 4.6292                 3.1387
 Frc consts  --      0.0182                 0.0169                 0.0171
 IR Inten    --      0.1206                 0.4996                 1.3326

                      4                      5                      6
                      A                      A                      A
 Frequencies --    171.3158               196.6563               223.7213
 Red. masses --      3.7729                 3.6678                 3.1677
 Frc consts  --      0.0652                 0.0836                 0.0934
 IR Inten    --      0.9202                 2.1321                 2.8637

                      7                      8                      9
                      A                      A                      A
 Frequencies --    250.0018               266.5461               287.8063
 Red. masses --      1.6220                 1.8653                 1.1627
 Frc consts  --      0.0597                 0.0781                 0.0567
 IR Inten    --      2.9919                 0.4268                 0.4303

                     10                     11                     12
                      A                      A                      A
 Frequencies --    298.8843               354.9603               388.4198
 Red. masses --      4.6875                 3.3857                 3.7363
 Frc consts  --      0.2467                 0.2513                 0.3321
 IR Inten    --      0.3346                 4.4354                 5.0694

                     13                     14                     15
                      A                      A                      A
 Frequencies --    419.1224               439.1483               463.3785
 Red. masses --      3.0061                 1.2018                 4.5303
 Frc consts  --      0.3111                 0.1365                 0.5731
 IR Inten    --      1.9665                30.1891                 2.9670

                     16                     17                     18
                      A                      A                      A
 Frequencies --    500.0389               548.4561               584.0630
 Red. masses --      3.2665                 6.4819                 4.0248
 Frc consts  --      0.4812                 1.1488                 0.8089
 IR Inten    --     19.7034                 1.7527                 2.7328

                     19                     20                     21
                      A                      A                      A
 Frequencies --    590.2012               632.3185               706.0919
 Red. masses --      4.0013                 5.4921                 1.5171
 Frc consts  --      0.8212                 1.2938                 0.4456
 IR Inten    --      2.4399                 6.0858               199.0714

                     22                     23                     24
                      A                      A                      A
 Frequencies --    733.3951               766.4163               786.0411
 Red. masses --      5.0457                 2.9073                 3.7170
 Frc consts  --      1.5990                 1.0062                 1.3531
 IR Inten    --      3.0672                86.2381                13.8183

                     25                     26                     27
                      A                      A                      A
 Frequencies --    830.9060               854.9359               908.0089
 Red. masses --      6.1179                 1.9192                 1.5428
 Frc consts  --      2.4886                 0.8265                 0.7495
 IR Inten    --     19.5532                 5.6499                20.4613

                     28                     29                     30
                      A                      A                      A
 Frequencies --    946.0428               951.4921               973.2215
 Red. masses --      3.2940                 1.3856                 4.3300
 Frc consts  --      1.7370                 0.7391                 2.4164
 IR Inten    --      5.7281                 4.9343                50.1327

                     31                     32                     33
                      A                      A                      A
 Frequencies --   1072.9051              1085.7585              1120.2033
 Red. masses --      1.6512                 1.8664                 1.3448
 Frc consts  --      1.1199                 1.2964                 0.9942
 IR Inten    --     11.8628                40.9287                45.5071

                     34                     35                     36
                      A                      A                      A
 Frequencies --   1124.3685              1161.8229              1180.2397
 Red. masses --      1.3752                 1.4744                 1.9552
 Frc consts  --      1.0243                 1.1726                 1.6047
 IR Inten    --     18.6480                25.0845                48.2955

                     37                     38                     39
                      A                      A                      A
 Frequencies --   1182.1577              1217.7746              1291.2516
 Red. masses --      1.4450                 2.5798                 2.6142
 Frc consts  --      1.1898                 2.2541                 2.5681
 IR Inten    --     16.9898                17.0244                44.2404

                     40                     41                     42
                      A                      A                      A
 Frequencies --   1306.2516              1350.7447              1383.5093
 Red. masses --      1.7117                 3.1878                 7.3887
 Frc consts  --      1.7208                 3.4268                 8.3327
 IR Inten    --     18.7875               150.7160               216.0480

                     43                     44                     45
                      A                      A                      A
 Frequencies --   1390.9344              1444.6901              1462.4238
 Red. masses --      7.4578                 1.1562                 2.5351
 Frc consts  --      8.5010                 1.4217                 3.1944
 IR Inten    --    209.6782                 0.2657                 8.4595

                     46                     47                     48
                      A                      A                      A
 Frequencies --   1473.6347              1483.9596              1500.0900
 Red. masses --      1.3837                 1.0575                 1.0906
 Frc consts  --      1.7704                 1.3721                 1.4459
 IR Inten    --      5.0884                11.9675                26.8033

                     49                     50                     51
                      A                      A                      A
 Frequencies --   1503.7006              1519.6423              1537.7697
 Red. masses --      1.0644                 1.1923                 2.1461
 Frc consts  --      1.4180                 1.6223                 2.9901
 IR Inten    --      7.0691                 7.7358                87.4004

                     52                     53                     54
                      A                      A                      A
 Frequencies --   1600.9208              1618.3274              1641.8478
 Red. masses --      8.1271                 2.0334                 2.9939
 Frc consts  --     12.2723                 3.1376                 4.7550
 IR Inten    --    153.0198                45.4734               175.0401

                     55                     56                     57
                      A                      A                      A
 Frequencies --   1659.6075              2960.1795              2976.1320
 Red. masses --      3.5911                 1.0566                 1.0544
 Frc consts  --      5.8275                 5.4550                 5.5026
 IR Inten    --     10.1125                57.4751                91.0844

                     58                     59                     60
                      A                      A                      A
 Frequencies --   3068.4184              3072.9351              3121.6613
 Red. masses --      1.0767                 1.0829                 1.1020
 Frc consts  --      5.9726                 6.0249                 6.3270
 IR Inten    --     28.0928                38.7513                17.1669

                     61                     62                     63
                      A                      A                      A
 Frequencies --   3141.0861              3206.7397              3220.3291
 Red. masses --      1.0991                 1.0881                 1.0901
 Frc consts  --      6.3894                 6.5927                 6.6604
 IR Inten    --      4.9874                 6.8829                 2.9424

                     64                     65                     66
                      A                      A                      A
 Frequencies --   3242.0476              3530.6207              3641.9823
 Red. masses --      1.0925                 1.0481                 1.0964
 Frc consts  --      6.7654                 7.6973                 8.5682
 IR Inten    --      1.5301                13.2641                20.2219

 - Thermochemistry -
 -------------------
 Temperature   298.150 Kelvin.  Pressure   1.00000 Atm.
 Atom     1 has atomic number  7 and mass  14.00307

 Molecular mass:   181.08513 amu.
 Principal axes and moments of inertia in atomic units:
                           1         2         3
     Eigenvalues --   980.384853954.742874722.42642
           X            0.99996   0.00800  -0.00367
           Y           -0.00799   0.99997   0.00203
           Z            0.00369  -0.00200   0.99999
 This molecule is an asymmetric top.
 Rotational symmetry number  1.
 Warning -- assumption of classical behavior for rotation
           may cause significant error
 Rotational temperatures (Kelvin)      0.08835     0.02190     0.01834
 Rotational constants (GHZ):           1.84085     0.45635     0.38216
 Zero-point vibrational energy     507227.4 (Joules/Mol)
                                  121.23025 (Kcal/Mol)
 Warning -- explicit consideration of  19 degrees of freedom as
           vibrations may cause significant error
 Vibrational temperatures:     84.33   113.15   138.52   246.48   282.94
          (Kelvin)            321.88   359.70   383.50   414.09   430.03
                              510.71   558.85   603.02   631.84   666.70
                              719.44   789.11   840.34   849.17   909.76
                             1015.91  1055.19  1102.70  1130.94  1195.49
                             1230.06  1306.42  1361.14  1368.98  1400.25
                             1543.67  1562.16  1611.72  1617.71  1671.60
                             1698.10  1700.86  1752.10  1857.82  1879.40
                             1943.42  1990.56  2001.24  2078.58  2104.10
                             2120.23  2135.08  2158.29  2163.49  2186.42
                             2212.50  2303.37  2328.41  2362.25  2387.80
                             4259.03  4281.98  4414.76  4421.26  4491.37
                             4519.32  4613.78  4633.33  4664.58  5079.77
                             5239.99

 Zero-point correction=                           0.193193 (Hartree/Particle)
 Thermal correction to Energy=                    0.205220
 Thermal correction to Enthalpy=                  0.206164
 Thermal correction to Gibbs Free Energy=         0.155236
 Sum of electronic and zero-point Energies=           -625.929825
 Sum of electronic and thermal Energies=              -625.917798
 Sum of electronic and thermal Enthalpies=            -625.916854
 Sum of electronic and thermal Free Energies=         -625.967782

                     E (Thermal)             CV                S
                      KCal/Mol        Cal/Mol-Kelvin    Cal/Mol-Kelvin
 Total                  128.778             46.265            107.188
 Electronic               0.000              0.000              0.000
 Translational            0.889              2.981             41.488
 Rotational               0.889              2.981             31.282
 Vibrational            127.000             40.303             34.417
 Vibration     1          0.596              1.974              4.503
 Vibration     2          0.600              1.964              3.924
 Vibration     3          0.603              1.952              3.528
 Vibration     4          0.626              1.878              2.421
 Vibration     5          0.636              1.845              2.164
 Vibration     6          0.649              1.805              1.929
 Vibration     7          0.663              1.763              1.731
 Vibration     8          0.672              1.734              1.619
 Vibration     9          0.685              1.696              1.487
 Vibration    10          0.692              1.676              1.423
 Vibration    11          0.731              1.565              1.144
 Vibration    12          0.757              1.495              1.006
 Vibration    13          0.782              1.429              0.895
 Vibration    14          0.799              1.385              0.829
 Vibration    15          0.821              1.331              0.756
 Vibration    16          0.855              1.250              0.658
 Vibration    17          0.904              1.143              0.547
 Vibration    18          0.941              1.066              0.478
 Vibration    19          0.948              1.053              0.467

 Optimization completed.
    -- Stationary point found.
 Normal termination of Gaussian 09 at Fri Aug 27 01:28:12 2021.

 -----------------------------------------------------------------
 #P Geom=AllCheck Guess=TCheck SCRF=Check CCSD(T,E4T,FrzG4)/GTBas1
 -----------------------------------------------------------------

 Structure from the checkpoint file:  "/public/home/users/caep010/.cache/gau_scr/Gau-184451.chk"
 ------
 BAZPIC
 ------
 Charge =  0 Multiplicity = 1

 SCF Done:  E(RHF) =  -622.278535543     A.U. after   15 cycles
 E2 =    -0.1897640965D+01 EUMP2 =    -0.62417617650814D+03
 CCSD(T)
 CCSD(T)= -0.62430718429D+03
 MP4SDQ=-624.227926\CCSD=-624.2252148\CCSD(T)=-624.3071843\RMSD=3.419e-
 Normal termination of Gaussian 09 at Fri Aug 27 03:20:29 2021.

 ---------------------------------------------------------
 #P Geom=AllCheck Guess=TCheck SCRF=Check MP4=FrzG4/GTBas2
 ---------------------------------------------------------

 Structure from the checkpoint file:  "/public/home/users/caep010/.cache/gau_scr/Gau-184451.chk"
 ------
 BAZPIC
 ------
 Charge =  0 Multiplicity = 1

 SCF Done:  E(RHF) =  -622.295501528     A.U. after   18 cycles
 E2 =    -0.1923713662D+01 EUMP2 =    -0.62421921519058D+03
 Normal termination of Gaussian 09 at Fri Aug 27 04:02:42 2021.

 ---------------------------------------------------------
 #P Geom=AllCheck Guess=TCheck SCRF=Check MP4=FrzG4/GTBas3
 ---------------------------------------------------------

 Structure from the checkpoint file:  "/public/home/users/caep010/.cache/gau_scr/Gau-184451.chk"
 ------
 BAZPIC
 ------
 Charge =  0 Multiplicity = 1

 SCF Done:  E(RHF) =  -622.346987538     A.U. after   12 cycles
 E2 =    -0.2282181903D+01 EUMP2 =    -0.62462916944106D+03
 Normal termination of Gaussian 09 at Fri Aug 27 09:05:28 2021.

 -----------------------------------------------------------
 #P Geom=AllCheck Guess=TCheck SCRF=Check MP2=Full/GTLargeXP
 -----------------------------------------------------------

 Structure from the checkpoint file:  "/public/home/users/caep010/.cache/gau_scr/Gau-184451.chk"
 ------
 BAZPIC
 ------
 Charge =  0 Multiplicity = 1

 SCF Done:  E(RHF) =  -622.495431689     A.U. after   14 cycles
 E2 =    -0.2990238877D+01 EUMP2 =    -0.62548567056558D+03
 Normal termination of Gaussian 09 at Fri Aug 27 09:19:03 2021.
 SCF Done:  E(RHF) =  -622.544454238     A.U. after   11 cycles
 Normal termination of Gaussian 09 at Fri Aug 27 09:28:13 2021.

                         Standard orientation:
 ---------------------------------------------------------------------
 Center     Atomic      Atomic             Coordinates (Angstroms)
 Number     Number       Type             X           Y           Z
 ---------------------------------------------------------------------
      1          7           0       -2.599180   -0.160257   -0.146126
      2          6           0       -3.267395    0.410281    1.029602
      3          1           0       -4.314907    0.613727    0.785217
      4          1           0       -3.241209   -0.279256    1.888961
      5          6           0       -1.185724   -0.185714   -0.077997
      6          6           0       -0.491748    1.052258   -0.166977
      7          7           0       -1.218265    2.234829   -0.297144
      8          1           0       -2.092164    2.096334   -0.790444
      9          1           0       -0.686521    3.006963   -0.673519
     10          1           0       -2.788623    1.346437    1.319505
     11          6           0       -3.254581   -1.375404   -0.605554
     12          1           0       -4.296660   -1.142508   -0.846004
     13          1           0       -3.260982   -2.183333    0.145846
     14          1           0       -2.765352   -1.745445   -1.509598
     15          6           0        0.898575    1.059864   -0.107490
     16          1           0        1.456030    1.984769   -0.180056
     17          6           0        1.592146   -0.139758    0.011408
     18          7           0        3.056971   -0.103786    0.062439
     19          8           0        3.652696   -1.172662    0.141215
     20          8           0        3.604235    0.993767    0.023367
     21          6           0       -0.447704   -1.369284    0.018849
     22          6           0        0.941708   -1.363849    0.062565
     23          1           0        1.515552   -2.275571    0.148546
     24          1           0       -0.968956   -2.316811    0.074280
 ---------------------------------------------------------------------

 SCF Done:  E(RHF) =  -622.554079125     A.U. after    8 cycles

 The electronic state is 1-A.
 Alpha  occ. eigenvalues --  -20.58973 -20.58968 -15.84317 -15.58147 -15.57592
 Alpha  occ. eigenvalues --  -11.29743 -11.29648 -11.29431 -11.26667 -11.26297
 Alpha  occ. eigenvalues --  -11.25697 -11.25690 -11.25314  -1.59355  -1.38705
 Alpha  occ. eigenvalues --   -1.27878  -1.22659  -1.16889  -1.06946  -1.02119
 Alpha  occ. eigenvalues --   -0.97523  -0.96319  -0.87779  -0.85109  -0.80448
 Alpha  occ. eigenvalues --   -0.76987  -0.73175  -0.70959  -0.70595  -0.69961
 Alpha  occ. eigenvalues --   -0.66759  -0.64512  -0.63632  -0.62422  -0.60844
 Alpha  occ. eigenvalues --   -0.59863  -0.56770  -0.55747  -0.53762  -0.53399
 Alpha  occ. eigenvalues --   -0.52498  -0.48842  -0.48525  -0.47302  -0.44672
 Alpha  occ. eigenvalues --   -0.41683  -0.34886  -0.31125
 Alpha virt. eigenvalues --    0.02637   0.03317   0.03740   0.04087   0.04396
 Alpha virt. eigenvalues --    0.05393   0.05965   0.06013   0.06498   0.06985
 Alpha virt. eigenvalues --    0.07882   0.08030   0.08891   0.09059   0.09453

 Mulliken charges:
               1
     1  N   -0.043360
     2  C   -0.535753
     3  H    0.174747
     4  H    0.159622
     5  C    0.270640
     6  C    0.170563
     7  N   -0.764741
     8  H    0.339902
     9  H    0.304010
    10  H    0.217505
    11  C   -0.593086
    12  H    0.187961
    13  H    0.154955
    14  H    0.201433
    15  C   -0.246695
    16  H    0.235380
    17  C    0.091191
    18  N    0.525916
    19  O   -0.440878
    20  O   -0.447052
    21  C   -0.207162
    22  C   -0.237401
    23  H    0.260200
    24  H    0.222102
 Sum of Mulliken charges =  -0.00000

 Dipole moment (field-independent basis, Debye):
    X=             -6.7402    Y=              0.1727    Z=             -0.8270  Tot=              6.7929
 Quadrupole moment (field-independent basis, Debye-Ang):
   XX=            -91.9200   YY=            -70.9822   ZZ=            -77.9903
   XY=              1.9796   XZ=             -0.1030   YZ=             -2.6809

 Normal termination of Gaussian 09 at Fri Aug 27 10:23:42 2021.
