 Gaussian 09, Revision E.01,
 Gaussian 09:  ES64L-G09RevE.01 30-Nov-2015

 ----------------
 #P G4 OPT=calcfc
 ----------------

 ------
 BANFIG
 ------
 Symbolic Z-matrix:
 Charge =  0 Multiplicity = 1

 SCF Done:  E(RB3LYP) =  -660.794078864     A.U. after   18 cycles
 SCF Done:  E(RB3LYP) =  -660.816822833     A.U. after   14 cycles
 SCF Done:  E(RB3LYP) =  -660.817292070     A.U. after   14 cycles
 SCF Done:  E(RB3LYP) =  -660.758812150     A.U. after   14 cycles
 SCF Done:  E(RB3LYP) =  -660.775459953     A.U. after   12 cycles
 SCF Done:  E(RB3LYP) =  -660.789514406     A.U. after   12 cycles
 SCF Done:  E(RB3LYP) =  -660.801144910     A.U. after   12 cycles
 SCF Done:  E(RB3LYP) =  -660.810424512     A.U. after   12 cycles
 SCF Done:  E(RB3LYP) =  -660.817295109     A.U. after    8 cycles
 SCF Done:  E(RB3LYP) =  -660.817194053     A.U. after   15 cycles
 SCF Done:  E(RB3LYP) =  -660.819817767     A.U. after    9 cycles
 SCF Done:  E(RB3LYP) =  -660.819817987     A.U. after    8 cycles
 SCF Done:  E(RB3LYP) =  -660.819818002     A.U. after    8 cycles
 Optimization completed.
    -- Stationary point found.
 Normal termination of Gaussian 09 at Thu Aug 26 08:04:54 2021.

 ----------------------------------------------------------
 #P Geom=AllCheck Guess=TCheck SCRF=Check B3LYP/GTBas3 Freq
 ----------------------------------------------------------

 Structure from the checkpoint file:  "/public/home/users/caep010/.cache/gau_scr/Gau-92683.chk"
 ------
 BANFIG
 ------
 Charge =  0 Multiplicity = 1

 SCF Done:  E(RB3LYP) =  -660.819818002     A.U. after    1 cycles

  Exact polarizability: 150.549  -3.837 121.442   2.899  -2.001  49.297
 Approx polarizability: 233.595  -5.411 223.537   8.018  -3.201  81.945

                      1                      2                      3
                      A                      A                      A
 Frequencies --     48.4911                58.1003               109.8509
 Red. masses --      8.7699                 8.7758                 5.7437
 Frc consts  --      0.0121                 0.0175                 0.0408
 IR Inten    --      1.8179                 3.0902                 2.5982

                      4                      5                      6
                      A                      A                      A
 Frequencies --    111.8152               164.6734               181.1258
 Red. masses --      4.9139                 1.2538                 4.7670
 Frc consts  --      0.0362                 0.0200                 0.0921
 IR Inten    --      0.9422                21.7801                 1.8862

                      7                      8                      9
                      A                      A                      A
 Frequencies --    225.8105               263.6670               322.7612
 Red. masses --      3.7510                 5.6110                 4.2567
 Frc consts  --      0.1127                 0.2298                 0.2613
 IR Inten    --      5.8456                 3.9898                27.1371

                     10                     11                     12
                      A                      A                      A
 Frequencies --    334.5610               387.2435               436.2272
 Red. masses --      8.4042                 6.7615                 3.3972
 Frc consts  --      0.5542                 0.5974                 0.3809
 IR Inten    --      7.6720                 3.5891                 2.3657

                     13                     14                     15
                      A                      A                      A
 Frequencies --    456.5020               509.8353               532.4364
 Red. masses --      6.2318                 5.6987                 1.6070
 Frc consts  --      0.7652                 0.8727                 0.2684
 IR Inten    --      7.9628                 4.9581                84.9813

                     16                     17                     18
                      A                      A                      A
 Frequencies --    564.3813               664.9914               689.4591
 Red. masses --      3.0812                 6.9755                 3.5784
 Frc consts  --      0.5783                 1.8174                 1.0022
 IR Inten    --     28.5460                 3.9605                 0.9156

                     19                     20                     21
                      A                      A                      A
 Frequencies --    741.5968               746.7248               793.4578
 Red. masses --      3.5254                 4.1084                 7.6224
 Frc consts  --      1.1424                 1.3497                 2.8274
 IR Inten    --     31.5224                34.7413                 0.7621

                     22                     23                     24
                      A                      A                      A
 Frequencies --    852.0193               866.6343               927.1080
 Red. masses --      1.5938                 7.3742                 3.4754
 Frc consts  --      0.6817                 3.2632                 1.7600
 IR Inten    --      7.2006                33.2654                20.2824

                     25                     26                     27
                      A                      A                      A
 Frequencies --    946.1884               980.4383               981.4032
 Red. masses --      1.6529                 2.7073                 1.4585
 Frc consts  --      0.8719                 1.5333                 0.8277
 IR Inten    --     16.2377                87.9402                 2.1464

                     28                     29                     30
                      A                      A                      A
 Frequencies --   1008.8506              1015.4645              1095.1892
 Red. masses --      1.3620                 6.0732                 1.6793
 Frc consts  --      0.8167                 3.6898                 1.1868
 IR Inten    --      3.1577                 0.8508                11.6677

                     31                     32                     33
                      A                      A                      A
 Frequencies --   1109.8384              1139.6398              1184.1978
 Red. masses --      1.7040                 2.3463                 1.1307
 Frc consts  --      1.2366                 1.7954                 0.9342
 IR Inten    --     27.0330                28.1048                 4.5685

                     34                     35                     36
                      A                      A                      A
 Frequencies --   1222.2655              1302.7512              1313.1086
 Red. masses --      2.9967                 1.5248                 2.0145
 Frc consts  --      2.6377                 1.5247                 2.0465
 IR Inten    --      5.1937                44.0977               103.4002

                     37                     38                     39
                      A                      A                      A
 Frequencies --   1360.3517              1362.9339              1394.8489
 Red. masses --      2.4879                 1.6832                13.7436
 Frc consts  --      2.7126                 1.8422                15.7546
 IR Inten    --     15.6787                 2.3829               260.5360

                     40                     41                     42
                      A                      A                      A
 Frequencies --   1456.1448              1488.0142              1516.4863
 Red. masses --      3.0857                 1.8044                 2.3334
 Frc consts  --      3.8549                 2.3540                 3.1617
 IR Inten    --      4.2756               104.6438                70.2696

                     43                     44                     45
                      A                      A                      A
 Frequencies --   1611.6093              1624.6861              1666.2327
 Red. masses --      7.0259                 7.9872                 9.0241
 Frc consts  --     10.7516                12.4218                14.7613
 IR Inten    --     42.9943                71.8479                98.1706

                     46                     47                     48
                      A                      A                      A
 Frequencies --   1703.1594              1760.2307              3196.1138
 Red. masses --      1.0970                 8.2697                 1.0881
 Frc consts  --      1.8749                15.0965                 6.5490
 IR Inten    --     54.5191               162.1013                 5.2627

                     49                     50                     51
                      A                      A                      A
 Frequencies --   3216.9415              3231.4064              3237.6801
 Red. masses --      1.0928                 1.0901                 1.0926
 Frc consts  --      6.6628                 6.7068                 6.7483
 IR Inten    --      2.5040                 2.8423                 2.3550

                     52                     53                     54
                      A                      A                      A
 Frequencies --   3441.1962              3507.2290              3621.0577
 Red. masses --      1.0476                 1.0928                 1.0776
 Frc consts  --      7.3094                 7.9199                 8.3251
 IR Inten    --      4.3365                 5.1881                34.5679

 - Thermochemistry -
 -------------------
 Temperature   298.150 Kelvin.  Pressure   1.00000 Atm.
 Atom     1 has atomic number  8 and mass  15.99491

 Molecular mass:   181.04874 amu.
 Principal axes and moments of inertia in atomic units:
                           1         2         3
     Eigenvalues --  1175.999203868.500944995.36261
           X            0.99969  -0.02485  -0.00006
           Y            0.02485   0.99968  -0.00374
           Z            0.00015   0.00374   0.99999
 This molecule is an asymmetric top.
 Rotational symmetry number  1.
 Warning -- assumption of classical behavior for rotation
           may cause significant error
 Rotational temperatures (Kelvin)      0.07365     0.02239     0.01734
 Rotational constants (GHZ):           1.53464     0.46652     0.36128
 Zero-point vibrational energy     386903.0 (Joules/Mol)
                                   92.47204 (Kcal/Mol)
 Warning -- explicit consideration of  16 degrees of freedom as
           vibrations may cause significant error
 Vibrational temperatures:     69.77    83.59   158.05   160.88   236.93
          (Kelvin)            260.60   324.89   379.36   464.38   481.36
                              557.16   627.63   656.80   733.54   766.06
                              812.02   956.77   991.98  1066.99  1074.37
                             1141.61  1225.86  1246.89  1333.90  1361.35
                             1410.63  1412.02  1451.51  1461.03  1575.73
                             1596.81  1639.69  1703.79  1758.57  1874.37
                             1889.27  1957.24  1960.96  2006.87  2095.06
                             2140.92  2181.88  2318.74  2337.56  2397.33
                             2450.46  2532.58  4598.49  4628.46  4649.27
                             4658.29  4951.11  5046.11  5209.89

 Zero-point correction=                           0.147364 (Hartree/Particle)
 Thermal correction to Energy=                    0.158769
 Thermal correction to Enthalpy=                  0.159714
 Thermal correction to Gibbs Free Energy=         0.108908
 Sum of electronic and zero-point Energies=           -660.672454
 Sum of electronic and thermal Energies=              -660.661049
 Sum of electronic and thermal Enthalpies=            -660.660104
 Sum of electronic and thermal Free Energies=         -660.710910

                     E (Thermal)             CV                S
                      KCal/Mol        Cal/Mol-Kelvin    Cal/Mol-Kelvin
 Total                   99.629             41.811            106.930
 Electronic               0.000              0.000              0.000
 Translational            0.889              2.981             41.487
 Rotational               0.889              2.981             31.497
 Vibrational             97.852             35.850             33.945
 Vibration     1          0.595              1.978              4.878
 Vibration     2          0.596              1.974              4.521
 Vibration     3          0.606              1.941              3.272
 Vibration     4          0.607              1.940              3.237
 Vibration     5          0.623              1.886              2.495
 Vibration     6          0.630              1.865              2.317
 Vibration     7          0.650              1.802              1.912
 Vibration     8          0.670              1.739              1.637
 Vibration     9          0.708              1.630              1.296
 Vibration    10          0.716              1.606              1.238
 Vibration    11          0.756              1.497              1.011
 Vibration    12          0.797              1.391              0.839
 Vibration    13          0.815              1.347              0.776
 Vibration    14          0.865              1.228              0.634
 Vibration    15          0.887              1.178              0.582
 Vibration    16          0.920              1.108              0.515

 Optimization completed.
    -- Stationary point found.
 Normal termination of Gaussian 09 at Thu Aug 26 08:07:38 2021.

 -----------------------------------------------------------------
 #P Geom=AllCheck Guess=TCheck SCRF=Check CCSD(T,E4T,FrzG4)/GTBas1
 -----------------------------------------------------------------

 Structure from the checkpoint file:  "/public/home/users/caep010/.cache/gau_scr/Gau-92683.chk"
 ------
 BANFIG
 ------
 Charge =  0 Multiplicity = 1

 SCF Done:  E(RHF) =  -656.943689413     A.U. after   15 cycles
 E2 =    -0.1923775127D+01 EUMP2 =    -0.65886746454014D+03
 CCSD(T)
 CCSD(T)= -0.65898393762D+03
 6\CCSD(T)=-658.9839376\RMSD=4.172e-09\PG=C01 [X(C7H7N3O3)]\\@
 Normal termination of Gaussian 09 at Thu Aug 26 09:39:41 2021.

 ---------------------------------------------------------
 #P Geom=AllCheck Guess=TCheck SCRF=Check MP4=FrzG4/GTBas2
 ---------------------------------------------------------

 Structure from the checkpoint file:  "/public/home/users/caep010/.cache/gau_scr/Gau-92683.chk"
 ------
 BANFIG
 ------
 Charge =  0 Multiplicity = 1

 SCF Done:  E(RHF) =  -656.963572279     A.U. after   16 cycles
 E2 =    -0.1949928754D+01 EUMP2 =    -0.65891350103258D+03
 Normal termination of Gaussian 09 at Thu Aug 26 10:11:49 2021.

 ---------------------------------------------------------
 #P Geom=AllCheck Guess=TCheck SCRF=Check MP4=FrzG4/GTBas3
 ---------------------------------------------------------

 Structure from the checkpoint file:  "/public/home/users/caep010/.cache/gau_scr/Gau-92683.chk"
 ------
 BANFIG
 ------
 Charge =  0 Multiplicity = 1

 SCF Done:  E(RHF) =  -657.012383359     A.U. after   13 cycles
 E2 =    -0.2299465076D+01 EUMP2 =    -0.65931184843447D+03
 Normal termination of Gaussian 09 at Thu Aug 26 15:07:53 2021.

 -----------------------------------------------------------
 #P Geom=AllCheck Guess=TCheck SCRF=Check MP2=Full/GTLargeXP
 -----------------------------------------------------------

 Structure from the checkpoint file:  "/public/home/users/caep010/.cache/gau_scr/Gau-92683.chk"
 ------
 BANFIG
 ------
 Charge =  0 Multiplicity = 1

 SCF Done:  E(RHF) =  -657.176717692     A.U. after   15 cycles
 E2 =    -0.3013779717D+01 EUMP2 =    -0.66019049740917D+03
 Normal termination of Gaussian 09 at Thu Aug 26 15:20:10 2021.
 SCF Done:  E(RHF) =  -657.228698676     A.U. after   10 cycles
 Normal termination of Gaussian 09 at Thu Aug 26 15:26:52 2021.

                         Standard orientation:
 ---------------------------------------------------------------------
 Center     Atomic      Atomic             Coordinates (Angstroms)
 Number     Number       Type             X           Y           Z
 ---------------------------------------------------------------------
      1          8           0       -2.369536   -2.120633    0.144855
      2          7           0       -2.686805   -0.942082    0.047513
      3          8           0       -3.836545   -0.528537   -0.013244
      4          6           0       -1.600210    0.054494   -0.003742
      5          6           0       -1.925748    1.400620   -0.117853
      6          6           0       -0.891674    2.331267   -0.149734
      7          1           0       -1.121515    3.387487   -0.232206
      8          1           0       -2.965839    1.691992   -0.172320
      9          6           0       -0.286176   -0.388747    0.072290
     10          6           0        0.744747    0.549883    0.027907
     11          1           0       -0.104682   -1.448021    0.194157
     12          6           0        0.431496    1.910101   -0.071540
     13          1           0        1.249913    2.620191   -0.079619
     14          6           0        2.197590    0.179960    0.118122
     15          8           0        3.054578    0.992112    0.427084
     16          7           0        2.503898   -1.123240   -0.171932
     17          1           0        1.881574   -1.650550   -0.764831
     18          7           0        3.856324   -1.516176   -0.283546
     19          1           0        4.154509   -1.842394    0.634402
     20          1           0        4.383997   -0.657225   -0.446091
 ---------------------------------------------------------------------

 SCF Done:  E(RHF) =  -657.238818589     A.U. after    8 cycles

 The electronic state is 1-A.
 Alpha  occ. eigenvalues --  -20.61099 -20.61031 -20.54463 -15.86413 -15.62674
 Alpha  occ. eigenvalues --  -15.60040 -11.37828 -11.32351 -11.29529 -11.29144
 Alpha  occ. eigenvalues --  -11.28573 -11.28428 -11.27535  -1.61602  -1.41533
 Alpha  occ. eigenvalues --   -1.41022  -1.30691  -1.21660  -1.11929  -1.09769
 Alpha  occ. eigenvalues --   -1.05886  -0.97415  -0.90496  -0.85324  -0.82174
 Alpha  occ. eigenvalues --   -0.79663  -0.74302  -0.73108  -0.72669  -0.71522
 Alpha  occ. eigenvalues --   -0.69618  -0.69434  -0.66059  -0.65047  -0.62339
 Alpha  occ. eigenvalues --   -0.58726  -0.56847  -0.55791  -0.54050  -0.50823
 Alpha  occ. eigenvalues --   -0.50678  -0.48133  -0.46651  -0.45756  -0.41505
 Alpha  occ. eigenvalues --   -0.38950  -0.38399
 Alpha virt. eigenvalues --    0.02335   0.03077   0.03782   0.04410   0.04460
 Alpha virt. eigenvalues --    0.05307   0.05778   0.05937   0.06782   0.07050
 Alpha virt. eigenvalues --    0.07550   0.07985   0.08111   0.08897   0.09202

 Mulliken charges:
               1
     1  O   -0.439119
     2  N    0.540893
     3  O   -0.438013
     4  C    0.080610
     5  C   -0.207822
     6  C   -0.153863
     7  H    0.230182
     8  H    0.264293
     9  C   -0.250433
    10  C    0.261852
    11  H    0.259614
    12  C   -0.250042
    13  H    0.256113
    14  C    0.441356
    15  O   -0.629132
    16  N   -0.339071
    17  H    0.353813
    18  N   -0.616977
    19  H    0.308624
    20  H    0.327120
 Sum of Mulliken charges =  -0.00000

 Dipole moment (field-independent basis, Debye):
    X=              1.2562    Y=              2.0734    Z=             -0.6126  Tot=              2.5005
 Quadrupole moment (field-independent basis, Debye-Ang):
   XX=            -90.9460   YY=            -73.7344   ZZ=            -75.6229
   XY=            -13.6084   XZ=              0.9299   YZ=             -2.8416

 Normal termination of Gaussian 09 at Thu Aug 26 16:12:09 2021.
