 Gaussian 09, Revision E.01,
 Gaussian 09:  ES64L-G09RevE.01 30-Nov-2015

 ----------------
 #P G4 OPT=calcfc
 ----------------

 ------
 CIFROY
 ------
 Symbolic Z-matrix:
 Charge =  0 Multiplicity = 1

 SCF Done:  E(RB3LYP) =  -446.763775023     A.U. after   15 cycles
 SCF Done:  E(RB3LYP) =  -446.767875644     A.U. after   13 cycles
 SCF Done:  E(RB3LYP) =  -446.767976648     A.U. after   13 cycles
 SCF Done:  E(RB3LYP) =  -446.767977484     A.U. after   10 cycles
 Optimization completed.
    -- Stationary point found.
 Normal termination of Gaussian 09 at Thu Aug 26 07:37:53 2021.

 ----------------------------------------------------------
 #P Geom=AllCheck Guess=TCheck SCRF=Check B3LYP/GTBas3 Freq
 ----------------------------------------------------------

 Structure from the checkpoint file:  "/public/home/users/caep010/.cache/gau_scr/Gau-215742.chk"
 ------
 CIFROY
 ------
 Charge =  0 Multiplicity = 1

 SCF Done:  E(RB3LYP) =  -446.767977484     A.U. after    1 cycles

  Exact polarizability:  71.807   0.005  56.947  -0.000  -0.000  26.126
 Approx polarizability: 108.565  -3.884 126.071   0.000   0.008  42.248

                      1                      2                      3
                      A                      A                      A
 Frequencies --     43.7899               228.8803               245.6717
 Red. masses --     10.4462                 6.4025                 9.1599
 Frc consts  --      0.0118                 0.1976                 0.3257
 IR Inten    --      0.2526                 2.2483                 1.5214

                      4                      5                      6
                      A                      A                      A
 Frequencies --    442.0979               540.6158               601.3050
 Red. masses --     12.3837                11.4215                 2.0902
 Frc consts  --      1.4261                 1.9668                 0.4453
 IR Inten    --      0.5878                 2.5071                51.8793

                      7                      8                      9
                      A                      A                      A
 Frequencies --    676.0062               692.0349               813.4775
 Red. masses --      7.8951                 1.6775                12.6266
 Frc consts  --      2.1257                 0.4733                 4.9230
 IR Inten    --     24.0670                34.0761                 0.0328

                     10                     11                     12
                      A                      A                      A
 Frequencies --    848.7745               869.4220               990.6691
 Red. masses --     14.6035                 1.3975                 8.1742
 Frc consts  --      6.1986                 0.6224                 4.7267
 IR Inten    --     64.1925                12.9678                11.1851

                     13                     14                     15
                      A                      A                      A
 Frequencies --   1008.3511              1116.4517              1181.8813
 Red. masses --      4.9884                 2.1476                 2.6733
 Frc consts  --      2.9884                 1.5772                 2.2001
 IR Inten    --      4.8968                18.5552                16.4610

                     16                     17                     18
                      A                      A                      A
 Frequencies --   1296.3212              1354.1944              1407.8216
 Red. masses --      2.3778                 9.6330                 8.9713
 Frc consts  --      2.3542                10.4082                10.4761
 IR Inten    --     13.8377                55.6643                58.8368

                     19                     20                     21
                      A                      A                      A
 Frequencies --   1438.3044              1462.8644              1550.2870
 Red. masses --      7.1462                 2.4842                 4.1664
 Frc consts  --      8.7102                 3.1322                 5.8998
 IR Inten    --     95.1177                16.6876                27.3760

                     22                     23                     24
                      A                      A                      A
 Frequencies --   1662.4558              3266.8208              3644.6376
 Red. masses --     14.3142                 1.0993                 1.0826
 Frc consts  --     23.3087                 6.9122                 8.4730
 IR Inten    --    220.8025                 0.7053                99.9879

 - Thermochemistry -
 -------------------
 Temperature   298.150 Kelvin.  Pressure   1.00000 Atm.
 Atom     1 has atomic number  7 and mass  14.00307

 Molecular mass:   114.01778 amu.
 Principal axes and moments of inertia in atomic units:
                           1         2         3
     Eigenvalues --   319.672781023.505321343.17799
           X            1.00000   0.00088   0.00000
           Y           -0.00088   1.00000  -0.00001
           Z           -0.00000   0.00001   1.00000
 This molecule is an asymmetric top.
 Rotational symmetry number  1.
 Rotational temperatures (Kelvin)      0.27095     0.08462     0.06448
 Rotational constants (GHZ):           5.64559     1.76329     1.34364
 Zero-point vibrational energy     163787.5 (Joules/Mol)
                                   39.14616 (Kcal/Mol)
 Warning -- explicit consideration of   6 degrees of freedom as
           vibrations may cause significant error
 Vibrational temperatures:     63.00   329.31   353.47   636.08   777.82
          (Kelvin)            865.14   972.62   995.68  1170.41  1221.20
                             1250.90  1425.35  1450.79  1606.32  1700.46
                             1865.11  1948.38  2025.54  2069.40  2104.73
                             2230.51  2391.90  4700.22  5243.81

 Zero-point correction=                           0.062383 (Hartree/Particle)
 Thermal correction to Energy=                    0.068299
 Thermal correction to Enthalpy=                  0.069244
 Thermal correction to Gibbs Free Energy=         0.031316
 Sum of electronic and zero-point Energies=           -446.705594
 Sum of electronic and thermal Energies=              -446.699678
 Sum of electronic and thermal Enthalpies=            -446.698734
 Sum of electronic and thermal Free Energies=         -446.736661

                     E (Thermal)             CV                S
                      KCal/Mol        Cal/Mol-Kelvin    Cal/Mol-Kelvin
 Total                   42.859             20.440             79.825
 Electronic               0.000              0.000              0.000
 Translational            0.889              2.981             40.109
 Rotational               0.889              2.981             27.577
 Vibrational             41.081             14.479             12.139
 Vibration     1          0.595              1.980              5.080
 Vibration     2          0.652              1.797              1.888
 Vibration     3          0.660              1.770              1.761
 Vibration     4          0.802              1.378              0.820
 Vibration     5          0.896              1.160              0.564
 Vibration     6          0.960              1.029              0.447

 Optimization completed.
    -- Stationary point found.
 Normal termination of Gaussian 09 at Thu Aug 26 07:38:29 2021.

 -----------------------------------------------------------------
 #P Geom=AllCheck Guess=TCheck SCRF=Check CCSD(T,E4T,FrzG4)/GTBas1
 -----------------------------------------------------------------

 Structure from the checkpoint file:  "/public/home/users/caep010/.cache/gau_scr/Gau-215742.chk"
 ------
 CIFROY
 ------
 Charge =  0 Multiplicity = 1

 SCF Done:  E(RHF) =  -444.253171400     A.U. after   15 cycles
 E2 =    -0.1285009876D+01 EUMP2 =    -0.44553818127649D+03
 CCSD(T)
 CCSD(T)= -0.44559268330D+03
 Q=-445.6087238\MP4SDQ=-445.5403264\CCSD=-445.5353501\CCSD(T)=-445.5926
 Normal termination of Gaussian 09 at Thu Aug 26 07:43:35 2021.

 ---------------------------------------------------------
 #P Geom=AllCheck Guess=TCheck SCRF=Check MP4=FrzG4/GTBas2
 ---------------------------------------------------------

 Structure from the checkpoint file:  "/public/home/users/caep010/.cache/gau_scr/Gau-215742.chk"
 ------
 CIFROY
 ------
 Charge =  0 Multiplicity = 1

 SCF Done:  E(RHF) =  -444.266386065     A.U. after   13 cycles
 E2 =    -0.1301888295D+01 EUMP2 =    -0.44556827435966D+03
 Normal termination of Gaussian 09 at Thu Aug 26 07:45:01 2021.

 ---------------------------------------------------------
 #P Geom=AllCheck Guess=TCheck SCRF=Check MP4=FrzG4/GTBas3
 ---------------------------------------------------------

 Structure from the checkpoint file:  "/public/home/users/caep010/.cache/gau_scr/Gau-215742.chk"
 ------
 CIFROY
 ------
 Charge =  0 Multiplicity = 1

 SCF Done:  E(RHF) =  -444.299218471     A.U. after   13 cycles
 E2 =    -0.1517005538D+01 EUMP2 =    -0.44581622400881D+03
 Normal termination of Gaussian 09 at Thu Aug 26 07:52:31 2021.

 -----------------------------------------------------------
 #P Geom=AllCheck Guess=TCheck SCRF=Check MP2=Full/GTLargeXP
 -----------------------------------------------------------

 Structure from the checkpoint file:  "/public/home/users/caep010/.cache/gau_scr/Gau-215742.chk"
 ------
 CIFROY
 ------
 Charge =  0 Multiplicity = 1

 SCF Done:  E(RHF) =  -444.414838080     A.U. after   14 cycles
 E2 =    -0.1968327290D+01 EUMP2 =    -0.44638316537022D+03
 Normal termination of Gaussian 09 at Thu Aug 26 07:55:56 2021.
 SCF Done:  E(RHF) =  -444.449880352     A.U. after   10 cycles
 Normal termination of Gaussian 09 at Thu Aug 26 07:58:36 2021.

                         Standard orientation:
 ---------------------------------------------------------------------
 Center     Atomic      Atomic             Coordinates (Angstroms)
 Number     Number       Type             X           Y           Z
 ---------------------------------------------------------------------
      1          7           0        1.973666   -0.649229    0.000178
      2          7           0        0.713465   -1.117332    0.000408
      3          6           0        1.982156    0.704085   -0.000243
      4          1           0        2.885163    1.295385   -0.000396
      5          6           0        0.029490    0.012012    0.000026
      6          7           0       -1.433877    0.001245    0.000005
      7          7           0        0.745359    1.157436   -0.000398
      8          8           0       -1.986233    1.087997    0.000530
      9          1           0        2.744993   -1.299317    0.000505
     10          8           0       -1.975058   -1.092683   -0.000550
 ---------------------------------------------------------------------

 SCF Done:  E(RHF) =  -444.456771684     A.U. after    8 cycles

 The electronic state is 1-A.
 Alpha  occ. eigenvalues --  -20.60963 -20.60676 -15.86382 -15.70121 -15.65384
 Alpha  occ. eigenvalues --  -15.60743 -11.37412 -11.36286  -1.61687  -1.46961
 Alpha  occ. eigenvalues --   -1.41054  -1.25501  -1.17715  -1.02779  -0.91346
 Alpha  occ. eigenvalues --   -0.83480  -0.81575  -0.74723  -0.73851  -0.73087
 Alpha  occ. eigenvalues --   -0.67590  -0.67322  -0.55907  -0.51270  -0.50740
 Alpha  occ. eigenvalues --   -0.49404  -0.46901  -0.45582  -0.42029
 Alpha virt. eigenvalues --    0.01555   0.03835   0.04106   0.04557   0.05283
 Alpha virt. eigenvalues --    0.07051   0.07371   0.07383   0.08722   0.10334
 Alpha virt. eigenvalues --    0.10693   0.11660   0.11981   0.12333   0.12860

 Mulliken charges:
               1
     1  N   -0.236852
     2  N   -0.275702
     3  C    0.120525
     4  H    0.258301
     5  C    0.401261
     6  N    0.504503
     7  N   -0.422990
     8  O   -0.365216
     9  H    0.394965
    10  O   -0.378795
 Sum of Mulliken charges =  -0.00000

 Dipole moment (field-independent basis, Debye):
    X=              7.4223    Y=             -0.6057    Z=              0.0005  Tot=              7.4470
 Quadrupole moment (field-independent basis, Debye-Ang):
   XX=            -35.5110   YY=            -50.4022   ZZ=            -43.8911
   XY=             -1.5527   XZ=              0.0010   YZ=             -0.0017

 Normal termination of Gaussian 09 at Thu Aug 26 08:09:13 2021.
