 Gaussian 09, Revision E.01,
 Gaussian 09:  ES64L-G09RevE.01 30-Nov-2015

 ----------------
 #P G4 OPT=calcfc
 ----------------

 ------
 CUZMUF
 ------
 Symbolic Z-matrix:
 Charge =  0 Multiplicity = 1

 SCF Done:  E(RB3LYP) =  -469.977267064     A.U. after   14 cycles
 SCF Done:  E(RB3LYP) =  -470.030825785     A.U. after   13 cycles
 SCF Done:  E(RB3LYP) =  -470.044308065     A.U. after   14 cycles
 SCF Done:  E(RB3LYP) =  -470.046295983     A.U. after   12 cycles
 SCF Done:  E(RB3LYP) =  -470.046564439     A.U. after   12 cycles
 SCF Done:  E(RB3LYP) =  -470.046573366     A.U. after   10 cycles
 SCF Done:  E(RB3LYP) =  -470.046575481     A.U. after   10 cycles
 SCF Done:  E(RB3LYP) =  -470.046576361     A.U. after    9 cycles
 Optimization completed.
    -- Stationary point found.
 Normal termination of Gaussian 09 at Thu Aug 26 18:45:57 2021.

 ----------------------------------------------------------
 #P Geom=AllCheck Guess=TCheck SCRF=Check B3LYP/GTBas3 Freq
 ----------------------------------------------------------

 Structure from the checkpoint file:  "/public/home/users/caep010/.cache/gau_scr/Gau-177700.chk"
 ------
 CUZMUF
 ------
 Charge =  0 Multiplicity = 1

 SCF Done:  E(RB3LYP) =  -470.046576361     A.U. after    1 cycles

  Exact polarizability:  98.992   2.858  73.814   0.000   0.000  36.543
 Approx polarizability: 148.976   5.140 144.632   0.001   0.001  57.432

                      1                      2                      3
                      A                      A                      A
 Frequencies --     53.9278                86.1187               160.9771
 Red. masses --      1.1078                 6.4893                 4.0553
 Frc consts  --      0.0019                 0.0284                 0.0619
 IR Inten    --      0.0467                 0.6462                 1.0505

                      4                      5                      6
                      A                      A                      A
 Frequencies --    183.1423               267.8473               365.4929
 Red. masses --      5.7098                 4.9981                 3.6420
 Frc consts  --      0.1128                 0.2113                 0.2866
 IR Inten    --      1.8004                 8.4651                 3.2605

                      7                      8                      9
                      A                      A                      A
 Frequencies --    422.1122               555.3630               610.6485
 Red. masses --      7.7282                 6.1727                 3.2742
 Frc consts  --      0.8113                 1.1217                 0.7193
 IR Inten    --      2.0138                 4.6295                 4.0116

                     10                     11                     12
                      A                      A                      A
 Frequencies --    668.0408               713.9235               779.9443
 Red. masses --      6.2698                 4.5396                 4.5205
 Frc consts  --      1.6486                 1.3632                 1.6202
 IR Inten    --      2.1045                 1.8526                26.5972

                     13                     14                     15
                      A                      A                      A
 Frequencies --    835.9421               845.0524               917.2102
 Red. masses --     11.1911                 1.4924                 1.4416
 Frc consts  --      4.6076                 0.6279                 0.7146
 IR Inten    --     47.8175                 2.6098                11.0549

                     16                     17                     18
                      A                      A                      A
 Frequencies --    985.6008              1023.7118              1078.0716
 Red. masses --      3.6427                 4.9435                 1.5106
 Frc consts  --      2.0849                 3.0524                 1.0344
 IR Inten    --     19.0823                 9.3837                27.5497

                     19                     20                     21
                      A                      A                      A
 Frequencies --   1149.1237              1153.4455              1209.2038
 Red. masses --      2.0411                 1.3214                 1.4157
 Frc consts  --      1.5880                 1.0358                 1.2196
 IR Inten    --     21.5072                 0.0529                 3.1334

                     22                     23                     24
                      A                      A                      A
 Frequencies --   1303.8726              1368.8703              1439.9738
 Red. masses --      3.9829                 7.9583                 2.9862
 Frc consts  --      3.9895                 8.7861                 3.6482
 IR Inten    --      0.0561               187.2572               161.2349

                     25                     26                     27
                      A                      A                      A
 Frequencies --   1445.3966              1463.4004              1473.2323
 Red. masses --      5.2133                 2.0556                 1.0401
 Frc consts  --      6.4171                 2.5936                 1.3300
 IR Inten    --      6.7198                11.5121                 7.8021

                     28                     29                     30
                      A                      A                      A
 Frequencies --   1486.9689              1537.2812              1569.3130
 Red. masses --      1.5511                 1.9504                 4.9009
 Frc consts  --      2.0207                 2.7156                 7.1112
 IR Inten    --     19.3008                 0.1117                81.1718

                     31                     32                     33
                      A                      A                      A
 Frequencies --   1619.9706              3060.3552              3133.1518
 Red. masses --     13.9012                 1.0323                 1.1049
 Frc consts  --     21.4939                 5.6965                 6.3905
 IR Inten    --    246.5104                25.8249                 6.6513

                     34                     35                     36
                      A                      A                      A
 Frequencies --   3158.2104              3279.0969              3289.8372
 Red. masses --      1.1043                 1.0976                 1.0995
 Frc consts  --      6.4894                 6.9534                 7.0115
 IR Inten    --      4.6763                 1.3144                 5.1561

 - Thermochemistry -
 -------------------
 Temperature   298.150 Kelvin.  Pressure   1.00000 Atm.
 Atom     1 has atomic number  7 and mass  14.00307

 Molecular mass:   127.03818 amu.
 Principal axes and moments of inertia in atomic units:
                           1         2         3
     Eigenvalues --   392.077221656.209192036.90100
           X            0.99969   0.02471  -0.00000
           Y           -0.02471   0.99969  -0.00000
           Z            0.00000   0.00000   1.00000
 This molecule is an asymmetric top.
 Rotational symmetry number  1.
 Rotational temperatures (Kelvin)      0.22091     0.05230     0.04252
 Rotational constants (GHZ):           4.60302     1.08968     0.88602
 Zero-point vibrational energy     267328.5 (Joules/Mol)
                                   63.89304 (Kcal/Mol)
 Warning -- explicit consideration of   9 degrees of freedom as
           vibrations may cause significant error
 Vibrational temperatures:     77.59   123.91   231.61   263.50   385.37
          (Kelvin)            525.86   607.32   799.04   878.59   961.16
                             1027.18  1122.16  1202.73  1215.84  1319.66
                             1418.06  1472.89  1551.10  1653.33  1659.55
                             1739.77  1875.98  1969.50  2071.80  2079.60
                             2105.50  2119.65  2139.41  2211.80  2257.89
                             2330.77  4403.16  4507.90  4543.95  4717.88
                             4733.34

 Zero-point correction=                           0.101820 (Hartree/Particle)
 Thermal correction to Energy=                    0.109607
 Thermal correction to Enthalpy=                  0.110552
 Thermal correction to Gibbs Free Energy=         0.068364
 Sum of electronic and zero-point Energies=           -469.944756
 Sum of electronic and thermal Energies=              -469.936969
 Sum of electronic and thermal Enthalpies=            -469.936025
 Sum of electronic and thermal Free Energies=         -469.978212

                     E (Thermal)             CV                S
                      KCal/Mol        Cal/Mol-Kelvin    Cal/Mol-Kelvin
 Total                   68.780             27.100             88.790
 Electronic               0.000              0.000              0.000
 Translational            0.889              2.981             40.431
 Rotational               0.889              2.981             28.671
 Vibrational             67.002             21.139             19.687
 Vibration     1          0.596              1.976              4.668
 Vibration     2          0.601              1.959              3.746
 Vibration     3          0.622              1.890              2.538
 Vibration     4          0.631              1.863              2.296
 Vibration     5          0.673              1.732              1.610
 Vibration     6          0.739              1.543              1.099
 Vibration     7          0.784              1.422              0.885
 Vibration     8          0.911              1.128              0.533
 Vibration     9          0.970              1.009              0.432

 Optimization completed.
    -- Stationary point found.
 Normal termination of Gaussian 09 at Thu Aug 26 18:46:55 2021.

 -----------------------------------------------------------------
 #P Geom=AllCheck Guess=TCheck SCRF=Check CCSD(T,E4T,FrzG4)/GTBas1
 -----------------------------------------------------------------

 Structure from the checkpoint file:  "/public/home/users/caep010/.cache/gau_scr/Gau-177700.chk"
 ------
 CUZMUF
 ------
 Charge =  0 Multiplicity = 1

 SCF Done:  E(RHF) =  -467.294644888     A.U. after   15 cycles
 E2 =    -0.1380347376D+01 EUMP2 =    -0.46867499226374D+03
 CCSD(T)
 CCSD(T)= -0.46875160467D+03
 \CCSD=-468.6910194\CCSD(T)=-468.7516047\RMSD=4.770e-09\PG=C01 [X(C4H5N
 Normal termination of Gaussian 09 at Thu Aug 26 18:56:55 2021.

 ---------------------------------------------------------
 #P Geom=AllCheck Guess=TCheck SCRF=Check MP4=FrzG4/GTBas2
 ---------------------------------------------------------

 Structure from the checkpoint file:  "/public/home/users/caep010/.cache/gau_scr/Gau-177700.chk"
 ------
 CUZMUF
 ------
 Charge =  0 Multiplicity = 1

 SCF Done:  E(RHF) =  -467.308092716     A.U. after   13 cycles
 E2 =    -0.1398154750D+01 EUMP2 =    -0.46870624746669D+03
 Normal termination of Gaussian 09 at Thu Aug 26 18:59:54 2021.

 ---------------------------------------------------------
 #P Geom=AllCheck Guess=TCheck SCRF=Check MP4=FrzG4/GTBas3
 ---------------------------------------------------------

 Structure from the checkpoint file:  "/public/home/users/caep010/.cache/gau_scr/Gau-177700.chk"
 ------
 CUZMUF
 ------
 Charge =  0 Multiplicity = 1

 SCF Done:  E(RHF) =  -467.341799761     A.U. after   12 cycles
 E2 =    -0.1645139083D+01 EUMP2 =    -0.46898693884415D+03
 Normal termination of Gaussian 09 at Thu Aug 26 19:21:42 2021.

 -----------------------------------------------------------
 #P Geom=AllCheck Guess=TCheck SCRF=Check MP2=Full/GTLargeXP
 -----------------------------------------------------------

 Structure from the checkpoint file:  "/public/home/users/caep010/.cache/gau_scr/Gau-177700.chk"
 ------
 CUZMUF
 ------
 Charge =  0 Multiplicity = 1

 SCF Done:  E(RHF) =  -467.459134585     A.U. after   14 cycles
 E2 =    -0.2144311083D+01 EUMP2 =    -0.46960344566736D+03
 Normal termination of Gaussian 09 at Thu Aug 26 19:27:53 2021.
 SCF Done:  E(RHF) =  -467.496240772     A.U. after   10 cycles
 Normal termination of Gaussian 09 at Thu Aug 26 19:33:22 2021.

                         Standard orientation:
 ---------------------------------------------------------------------
 Center     Atomic      Atomic             Coordinates (Angstroms)
 Number     Number       Type             X           Y           Z
 ---------------------------------------------------------------------
      1          7           0       -1.683898   -0.115981    0.000033
      2          6           0       -3.047839   -0.608992   -0.000014
      3          6           0       -0.546326   -0.831568    0.000058
      4          6           0        0.476874    0.099895   -0.000003
      5          7           0        1.876916   -0.187032   -0.000001
      6          6           0       -0.147759    1.362165   -0.000055
      7          1           0        0.316253    2.335212   -0.000118
      8          8           0        2.212588   -1.369241   -0.000090
      9          8           0        2.646436    0.768702    0.000093
     10          7           0       -1.465306    1.224211   -0.000039
     11          1           0       -0.519754   -1.907893    0.000062
     12          1           0       -3.571317   -0.249992    0.889069
     13          1           0       -3.029942   -1.699445    0.000638
     14          1           0       -3.571107   -0.250956   -0.889549
 ---------------------------------------------------------------------

 SCF Done:  E(RHF) =  -467.503509105     A.U. after    8 cycles

 The electronic state is 1-A.
 Alpha  occ. eigenvalues --  -20.59737 -20.59532 -15.85523 -15.68153 -15.61666
 Alpha  occ. eigenvalues --  -11.32467 -11.30116 -11.29527 -11.29411  -1.60127
 Alpha  occ. eigenvalues --   -1.41775  -1.39476  -1.16753  -1.13227  -1.02396
 Alpha  occ. eigenvalues --   -0.94473  -0.82522  -0.82148  -0.78439  -0.72295
 Alpha  occ. eigenvalues --   -0.72226  -0.71040  -0.68210  -0.63428  -0.61488
 Alpha  occ. eigenvalues --   -0.59028  -0.57895  -0.51530  -0.49678  -0.48000
 Alpha  occ. eigenvalues --   -0.45449  -0.39667  -0.38753
 Alpha virt. eigenvalues --    0.02364   0.03698   0.03940   0.04354   0.05796
 Alpha virt. eigenvalues --    0.06203   0.06710   0.07297   0.07537   0.08301
 Alpha virt. eigenvalues --    0.08690   0.09505   0.09833   0.10250   0.11814

 Mulliken charges:
               1
     1  N    0.222430
     2  C   -0.518249
     3  C   -0.122328
     4  C    0.111304
     5  N    0.508090
     6  C   -0.045781
     7  H    0.265711
     8  O   -0.454575
     9  O   -0.432435
    10  N   -0.411525
    11  H    0.266182
    12  H    0.208246
    13  H    0.194717
    14  H    0.208214
 Sum of Mulliken charges =  -0.00000

 Dipole moment (field-independent basis, Debye):
    X=             -5.5403    Y=             -1.5994    Z=              0.0000  Tot=              5.7665
 Quadrupole moment (field-independent basis, Debye-Ang):
   XX=            -57.2270   YY=            -51.4732   ZZ=            -51.6648
   XY=              8.2322   XZ=             -0.0003   YZ=             -0.0007

 Normal termination of Gaussian 09 at Thu Aug 26 19:50:39 2021.
