 Gaussian 09, Revision E.01,
 Gaussian 09:  ES64L-G09RevE.01 30-Nov-2015

 ----------------
 #P G4 OPT=calcfc
 ----------------

 ------
 CIJYIE
 ------
 Symbolic Z-matrix:
 Charge =  0 Multiplicity = 1

 SCF Done:  E(RB3LYP) =  -562.252375788     A.U. after   16 cycles
 SCF Done:  E(RB3LYP) =  -562.303459000     A.U. after   14 cycles
 SCF Done:  E(RB3LYP) =  -562.312081166     A.U. after   16 cycles
 SCF Done:  E(RB3LYP) =  -562.312561651     A.U. after   14 cycles
 SCF Done:  E(RB3LYP) =  -562.312660522     A.U. after   15 cycles
 SCF Done:  E(RB3LYP) =  -562.312685046     A.U. after   12 cycles
 SCF Done:  E(RB3LYP) =  -562.312685714     A.U. after    9 cycles
 SCF Done:  E(RB3LYP) =  -562.312685824     A.U. after    8 cycles
 Optimization completed.
    -- Stationary point found.
 Normal termination of Gaussian 09 at Thu Aug 26 09:33:53 2021.

 ----------------------------------------------------------
 #P Geom=AllCheck Guess=TCheck SCRF=Check B3LYP/GTBas3 Freq
 ----------------------------------------------------------

 Structure from the checkpoint file:  "/public/home/users/caep010/.cache/gau_scr/Gau-55972.chk"
 ------
 CIJYIE
 ------
 Charge =  0 Multiplicity = 1

 SCF Done:  E(RB3LYP) =  -562.312685824     A.U. after    1 cycles

  Exact polarizability: 111.283  11.232 106.286  -0.000  -0.001  42.802
 Approx polarizability: 171.884  36.182 209.903  -0.008  -0.010  68.214

                      1                      2                      3
                      A                      A                      A
 Frequencies --     51.4214                56.4435               131.0504
 Red. masses --      1.1857                 5.1152                12.7553
 Frc consts  --      0.0018                 0.0096                 0.1291
 IR Inten    --      0.1137                 0.0406                 3.3661

                      4                      5                      6
                      A                      A                      A
 Frequencies --    136.3354               179.5388               193.1161
 Red. masses --      4.9411                 7.2530                 5.1314
 Frc consts  --      0.0541                 0.1377                 0.1128
 IR Inten    --      3.5906                 5.1248                 0.8337

                      7                      8                      9
                      A                      A                      A
 Frequencies --    305.2933               345.7905               415.4219
 Red. masses --      5.2784                 4.3031                 8.6943
 Frc consts  --      0.2899                 0.3031                 0.8840
 IR Inten    --      6.6144                 7.9242                 0.6493

                     10                     11                     12
                      A                      A                      A
 Frequencies --    459.7793               506.1255               561.3912
 Red. masses --     11.2071                10.4412                 6.8528
 Frc consts  --      1.3959                 1.5759                 1.2725
 IR Inten    --      1.1145                 0.5854                 1.4594

                     13                     14                     15
                      A                      A                      A
 Frequencies --    598.4729               645.1063               681.3026
 Red. masses --      1.2665                 6.4682                10.7635
 Frc consts  --      0.2673                 1.5860                 2.9436
 IR Inten    --     76.5010                 3.2235                 7.1062

                     16                     17                     18
                      A                      A                      A
 Frequencies --    698.4931               746.3911               804.8606
 Red. masses --      3.5635                 6.7165                13.1600
 Frc consts  --      1.0244                 2.2046                 5.0228
 IR Inten    --      4.7066                 8.8379                 2.4439

                     19                     20                     21
                      A                      A                      A
 Frequencies --    860.8467               996.9650              1036.3510
 Red. masses --     11.6090                 1.6461                 4.9070
 Frc consts  --      5.0687                 0.9640                 3.1051
 IR Inten    --     49.9099                 0.9187                 7.1075

                     22                     23                     24
                      A                      A                      A
 Frequencies --   1064.7184              1164.0617              1220.5253
 Red. masses --      1.5247                 9.9013                 1.6893
 Frc consts  --      1.0183                 7.9049                 1.4827
 IR Inten    --      2.3639                11.0427                10.7062

                     25                     26                     27
                      A                      A                      A
 Frequencies --   1334.7228              1381.7728              1390.4957
 Red. masses --      7.6699                 5.3352                 6.2314
 Frc consts  --      8.0505                 6.0017                 7.0986
 IR Inten    --     39.1492                19.1223               127.7971

                     28                     29                     30
                      A                      A                      A
 Frequencies --   1415.0417              1425.8675              1480.8033
 Red. masses --      1.4907                 3.0154                 1.0417
 Frc consts  --      1.7586                 3.6120                 1.3458
 IR Inten    --     24.4905                84.9654                 8.4717

                     31                     32                     33
                      A                      A                      A
 Frequencies --   1491.5025              1553.0037              1608.8790
 Red. masses --      1.2668                 9.0568                 5.3419
 Frc consts  --      1.6603                12.8697                 8.1469
 IR Inten    --      3.7029               104.9098                20.3391

                     34                     35                     36
                      A                      A                      A
 Frequencies --   1646.2112              2350.3442              3043.2295
 Red. masses --     13.3508                12.6562                 1.0391
 Frc consts  --     21.3171                41.1925                 5.6701
 IR Inten    --    210.2718                22.9810                11.5054

                     37                     38                     39
                      A                      A                      A
 Frequencies --   3098.9014              3160.8011              3636.5616
 Red. masses --      1.1004                 1.0983                 1.0814
 Frc consts  --      6.2259                 6.4652                 8.4263
 IR Inten    --      6.5644                 0.4153                83.1286

 - Thermochemistry -
 -------------------
 Temperature   298.150 Kelvin.  Pressure   1.00000 Atm.
 Atom     1 has atomic number  7 and mass  14.00307

 Molecular mass:   152.03343 amu.
 Principal axes and moments of inertia in atomic units:
                           1         2         3
     Eigenvalues --  1210.602231691.116872890.43719
           X            1.00000  -0.00272   0.00000
           Y            0.00272   1.00000   0.00000
           Z           -0.00000  -0.00000   1.00000
 This molecule is an asymmetric top.
 Rotational symmetry number  1.
 Warning -- assumption of classical behavior for rotation
           may cause significant error
 Rotational temperatures (Kelvin)      0.07155     0.05122     0.02997
 Rotational constants (GHZ):           1.49078     1.06719     0.62438
 Zero-point vibrational energy     262448.4 (Joules/Mol)
                                   62.72666 (Kcal/Mol)
 Warning -- explicit consideration of  13 degrees of freedom as
           vibrations may cause significant error
 Vibrational temperatures:     73.98    81.21   188.55   196.16   258.32
          (Kelvin)            277.85   439.25   497.51   597.70   661.52
                              728.20   807.72   861.07   928.16   980.24
                             1004.97  1073.89  1158.01  1238.56  1434.41
                             1491.08  1531.89  1674.82  1756.06  1920.37
                             1988.06  2000.61  2035.93  2051.50  2130.54
                             2145.94  2234.42  2314.82  2368.53  3381.62
                             4378.52  4458.62  4547.68  5232.19

 Zero-point correction=                           0.099961 (Hartree/Particle)
 Thermal correction to Energy=                    0.109647
 Thermal correction to Enthalpy=                  0.110591
 Thermal correction to Gibbs Free Energy=         0.063667
 Sum of electronic and zero-point Energies=           -562.212725
 Sum of electronic and thermal Energies=              -562.203039
 Sum of electronic and thermal Enthalpies=            -562.202095
 Sum of electronic and thermal Free Energies=         -562.249019

                     E (Thermal)             CV                S
                      KCal/Mol        Cal/Mol-Kelvin    Cal/Mol-Kelvin
 Total                   68.804             33.779             98.760
 Electronic               0.000              0.000              0.000
 Translational            0.889              2.981             40.967
 Rotational               0.889              2.981             30.160
 Vibrational             67.027             27.817             27.633
 Vibration     1          0.596              1.977              4.762
 Vibration     2          0.596              1.975              4.578
 Vibration     3          0.612              1.922              2.931
 Vibration     4          0.614              1.917              2.855
 Vibration     5          0.629              1.867              2.333
 Vibration     6          0.635              1.849              2.198
 Vibration     7          0.696              1.664              1.388
 Vibration     8          0.724              1.584              1.185
 Vibration     9          0.779              1.437              0.908
 Vibration    10          0.818              1.339              0.767
 Vibration    11          0.861              1.236              0.643
 Vibration    12          0.917              1.115              0.521
 Vibration    13          0.956              1.035              0.452

 Normal termination of Gaussian 09 at Thu Aug 26 09:35:31 2021.

 -----------------------------------------------------------------
 #P Geom=AllCheck Guess=TCheck SCRF=Check CCSD(T,E4T,FrzG4)/GTBas1
 -----------------------------------------------------------------

 Structure from the checkpoint file:  "/public/home/users/caep010/.cache/gau_scr/Gau-55972.chk"
 ------
 CIJYIE
 ------
 Charge =  0 Multiplicity = 1

 SCF Done:  E(RHF) =  -559.043497654     A.U. after   16 cycles
 E2 =    -0.1661923532D+01 EUMP2 =    -0.56070542118580D+03
 CCSD(T)
 CCSD(T)= -0.56078963552D+03
 -560.8097197\MP4SDQ=-560.7207915\CCSD=-560.7144393\CCSD(T)=-560.789635
 Normal termination of Gaussian 09 at Thu Aug 26 10:04:12 2021.

 ---------------------------------------------------------
 #P Geom=AllCheck Guess=TCheck SCRF=Check MP4=FrzG4/GTBas2
 ---------------------------------------------------------

 Structure from the checkpoint file:  "/public/home/users/caep010/.cache/gau_scr/Gau-55972.chk"
 ------
 CIJYIE
 ------
 Charge =  0 Multiplicity = 1

 SCF Done:  E(RHF) =  -559.058104367     A.U. after   15 cycles
 E2 =    -0.1682240835D+01 EUMP2 =    -0.56074034520117D+03
 Normal termination of Gaussian 09 at Thu Aug 26 10:15:13 2021.

 ---------------------------------------------------------
 #P Geom=AllCheck Guess=TCheck SCRF=Check MP4=FrzG4/GTBas3
 ---------------------------------------------------------

 Structure from the checkpoint file:  "/public/home/users/caep010/.cache/gau_scr/Gau-55972.chk"
 ------
 CIJYIE
 ------
 Charge =  0 Multiplicity = 1

 SCF Done:  E(RHF) =  -559.100410369     A.U. after   13 cycles
 E2 =    -0.1962596502D+01 EUMP2 =    -0.56106300687091D+03
 Normal termination of Gaussian 09 at Thu Aug 26 11:26:44 2021.

 -----------------------------------------------------------
 #P Geom=AllCheck Guess=TCheck SCRF=Check MP2=Full/GTLargeXP
 -----------------------------------------------------------

 Structure from the checkpoint file:  "/public/home/users/caep010/.cache/gau_scr/Gau-55972.chk"
 ------
 CIJYIE
 ------
 Charge =  0 Multiplicity = 1

 SCF Done:  E(RHF) =  -559.237703811     A.U. after   16 cycles
 E2 =    -0.2564467593D+01 EUMP2 =    -0.56180217140449D+03
 Normal termination of Gaussian 09 at Thu Aug 26 11:39:25 2021.
 SCF Done:  E(RHF) =  -559.280568940     A.U. after   10 cycles
 Normal termination of Gaussian 09 at Thu Aug 26 11:43:21 2021.

                         Standard orientation:
 ---------------------------------------------------------------------
 Center     Atomic      Atomic             Coordinates (Angstroms)
 Number     Number       Type             X           Y           Z
 ---------------------------------------------------------------------
      1          7           0       -1.264972    1.108966    0.000098
      2          1           0       -1.698802    2.019911    0.000253
      3          6           0        0.096065    0.886431    0.000044
      4          6           0       -1.896378   -0.103918    0.000036
      5          6           0       -3.378117   -0.255228   -0.000180
      6          1           0       -3.827661    0.205307   -0.886195
      7          1           0       -3.618856   -1.318284    0.001258
      8          7           0       -1.018646   -1.088782   -0.000026
      9          1           0       -3.828193    0.207984    0.884312
     10          6           0        1.032133    1.940494    0.000091
     11          7           0        1.732569    2.862510    0.000174
     12          6           0        0.193798   -0.492526   -0.000034
     13          7           0        1.430254   -1.248816   -0.000042
     14          8           0        2.463669   -0.585877   -0.000615
     15          8           0        1.353090   -2.464571    0.000516
 ---------------------------------------------------------------------

 SCF Done:  E(RHF) =  -559.288874380     A.U. after    8 cycles

 The electronic state is 1-A.
 Alpha  occ. eigenvalues --  -20.61378 -20.60673 -15.86638 -15.68293 -15.60487
 Alpha  occ. eigenvalues --  -15.60409 -11.36809 -11.35967 -11.35828 -11.30830
 Alpha  occ. eigenvalues --  -11.27903  -1.61733  -1.41477  -1.41112  -1.25348
 Alpha  occ. eigenvalues --   -1.23712  -1.13670  -1.04354  -1.00404  -0.88696
 Alpha  occ. eigenvalues --   -0.86129  -0.81709  -0.75241  -0.74628  -0.73849
 Alpha  occ. eigenvalues --   -0.70692  -0.67947  -0.63141  -0.60875  -0.60037
 Alpha  occ. eigenvalues --   -0.58773  -0.52337  -0.52264  -0.51030  -0.50880
 Alpha  occ. eigenvalues --   -0.48161  -0.46894  -0.46054  -0.37222
 Alpha virt. eigenvalues --    0.01293   0.02333   0.03035   0.03789   0.04734
 Alpha virt. eigenvalues --    0.05481   0.05940   0.06058   0.07007   0.07560
 Alpha virt. eigenvalues --    0.08001   0.08407   0.08773   0.09966   0.10101

 Mulliken charges:
               1
     1  N   -0.428678
     2  H    0.393046
     3  C    0.376602
     4  C    0.428589
     5  C   -0.613371
     6  H    0.210330
     7  H    0.230691
     8  N   -0.471185
     9  H    0.210272
    10  C    0.169632
    11  N   -0.397665
    12  C    0.234202
    13  N    0.459102
    14  O   -0.420380
    15  O   -0.381188
 Sum of Mulliken charges =  -0.00000

 Dipole moment (field-independent basis, Debye):
    X=             -8.1291    Y=              2.4422    Z=             -0.0000  Tot=              8.4880
 Quadrupole moment (field-independent basis, Debye-Ang):
   XX=            -60.4591   YY=            -75.7045   ZZ=            -61.1100
   XY=             -7.8361   XZ=              0.0014   YZ=              0.0019

 Normal termination of Gaussian 09 at Thu Aug 26 12:10:32 2021.
