 Gaussian 09, Revision E.01,
 Gaussian 09:  ES64L-G09RevE.01 30-Nov-2015

 ----------------
 #P G4 OPT=calcfc
 ----------------

 --------
 CIWMAW01
 --------
 Symbolic Z-matrix:
 Charge =  0 Multiplicity = 1

 SCF Done:  E(RB3LYP) =  -783.974405757     A.U. after   16 cycles
 SCF Done:  E(RB3LYP) =  -784.083705244     A.U. after   14 cycles
 SCF Done:  E(RB3LYP) =  -784.107045123     A.U. after   14 cycles
 SCF Done:  E(RB3LYP) =  -784.114930627     A.U. after   15 cycles
 SCF Done:  E(RB3LYP) =  -784.115401848     A.U. after   14 cycles
 SCF Done:  E(RB3LYP) =  -784.115516908     A.U. after   12 cycles
 SCF Done:  E(RB3LYP) =  -784.115530308     A.U. after    9 cycles
 SCF Done:  E(RB3LYP) =  -784.115533141     A.U. after    9 cycles
 SCF Done:  E(RB3LYP) =  -784.115533667     A.U. after    8 cycles
 Optimization completed.
    -- Stationary point found.
 Normal termination of Gaussian 09 at Fri Aug 27 01:35:11 2021.

 ----------------------------------------------------------
 #P Geom=AllCheck Guess=TCheck SCRF=Check B3LYP/GTBas3 Freq
 ----------------------------------------------------------

 Structure from the checkpoint file:  "/public/home/users/caep010/.cache/gau_scr/Gau-20490.chk"
 --------
 CIWMAW01
 --------
 Charge =  0 Multiplicity = 1

 SCF Done:  E(RB3LYP) =  -784.115533667     A.U. after    1 cycles

  Exact polarizability: 171.706  -0.007 124.160  -0.002  -0.002  43.841
 Approx polarizability: 317.513  -0.019 238.188  -0.001  -0.008  73.058

                      1                      2                      3
                      A                      A                      A
 Frequencies --     44.6511                64.2534                81.6856
 Red. masses --     10.3371                14.6978                 9.0327
 Frc consts  --      0.0121                 0.0358                 0.0355
 IR Inten    --      0.0000                 0.0001                 0.0003

                      4                      5                      6
                      A                      A                      A
 Frequencies --    144.9093               181.9172               230.0985
 Red. masses --      8.2188                13.8656                11.5127
 Frc consts  --      0.1017                 0.2704                 0.3591
 IR Inten    --      0.0644                 1.7217                 0.3117

                      7                      8                      9
                      A                      A                      A
 Frequencies --    313.1848               340.8949               355.0522
 Red. masses --      7.9950                 2.9181                 3.2298
 Frc consts  --      0.4620                 0.1998                 0.2399
 IR Inten    --      0.1549                 0.0172                14.2388

                     10                     11                     12
                      A                      A                      A
 Frequencies --    355.6366               375.3837               380.7756
 Red. masses --      9.8788                10.9091                 1.1671
 Frc consts  --      0.7362                 0.9057                 0.0997
 IR Inten    --      1.2153                 2.3675               311.8357

                     13                     14                     15
                      A                      A                      A
 Frequencies --    383.9158               405.9110               499.4911
 Red. masses --      1.5667                 4.7779                 8.9312
 Frc consts  --      0.1361                 0.4638                 1.3128
 IR Inten    --      2.4213                 0.0397                 0.3586

                     16                     17                     18
                      A                      A                      A
 Frequencies --    514.8820               615.8756               625.5731
 Red. masses --      8.3667                10.2126                 3.6222
 Frc consts  --      1.3068                 2.2823                 0.8352
 IR Inten    --     64.6389                 3.0524                 8.3137

                     19                     20                     21
                      A                      A                      A
 Frequencies --    661.6870               673.1045               720.5578
 Red. masses --      1.2496                 1.0656                10.8027
 Frc consts  --      0.3224                 0.2845                 3.3046
 IR Inten    --      0.0036                 0.9413                21.0770

                     22                     23                     24
                      A                      A                      A
 Frequencies --    725.6789               734.1512               753.6973
 Red. masses --      3.8716                13.1658                 7.9684
 Frc consts  --      1.2013                 4.1809                 2.6669
 IR Inten    --      0.0039                 1.8696                 5.5714

                     25                     26                     27
                      A                      A                      A
 Frequencies --    796.0588               806.7735               847.2500
 Red. masses --     12.7243                12.2426                14.8919
 Frc consts  --      4.7509                 4.6949                 6.2983
 IR Inten    --      0.0000                18.7718                40.0164

                     28                     29                     30
                      A                      A                      A
 Frequencies --    893.1246              1016.1962              1097.8621
 Red. masses --     10.7249                 1.7049                 2.8517
 Frc consts  --      5.0405                 1.0373                 2.0251
 IR Inten    --     79.7529                 1.1707                55.0878

                     31                     32                     33
                      A                      A                      A
 Frequencies --   1169.5539              1207.7756              1305.9041
 Red. masses --      7.5560                 2.9575                11.3123
 Frc consts  --      6.0895                 2.5419                11.3665
 IR Inten    --      1.6105                 1.5774               683.8039

                     34                     35                     36
                      A                      A                      A
 Frequencies --   1350.1572              1401.5727              1403.4974
 Red. masses --      7.7799                 5.3776                 5.4597
 Frc consts  --      8.3559                 6.2240                 6.3364
 IR Inten    --     88.9887                23.2946                55.7035

                     37                     38                     39
                      A                      A                      A
 Frequencies --   1480.3641              1498.9975              1536.3490
 Red. masses --      2.7408                 2.1745                 4.0265
 Frc consts  --      3.5389                 2.8788                 5.5996
 IR Inten    --    145.6650               221.9320                 5.9439

                     40                     41                     42
                      A                      A                      A
 Frequencies --   1563.8111              1623.0530              1643.8648
 Red. masses --      3.9638                 2.6989                 4.0809
 Frc consts  --      5.7113                 4.1889                 6.4973
 IR Inten    --      6.1566               353.4407                47.8717

                     43                     44                     45
                      A                      A                      A
 Frequencies --   1656.4622              1659.3821              3556.2570
 Red. masses --      5.9201                12.9828                 1.0457
 Frc consts  --      9.5707                21.0625                 7.7920
 IR Inten    --    616.3911               534.8824               203.6726

                     46                     47                     48
                      A                      A                      A
 Frequencies --   3560.5929              3717.9630              3718.9792
 Red. masses --      1.0453                 1.1043                 1.1046
 Frc consts  --      7.8076                 8.9942                 9.0015
 IR Inten    --     84.6592                28.3351               198.8940

 - Thermochemistry -
 -------------------
 Temperature   298.150 Kelvin.  Pressure   1.00000 Atm.
 Atom     1 has atomic number  7 and mass  14.00307

 Molecular mass:   200.02940 amu.
 Principal axes and moments of inertia in atomic units:
                           1         2         3
     Eigenvalues --  1507.965113316.076114824.04117
           X            1.00000  -0.00000  -0.00000
           Y            0.00000   1.00000  -0.00000
           Z            0.00000   0.00000   1.00000
 This molecule is an asymmetric top.
 Rotational symmetry number  1.
 Warning -- assumption of classical behavior for rotation
           may cause significant error
 Rotational temperatures (Kelvin)      0.05744     0.02612     0.01795
 Rotational constants (GHZ):           1.19681     0.54424     0.37411
 Zero-point vibrational energy     303222.1 (Joules/Mol)
                                   72.47181 (Kcal/Mol)
 Warning -- explicit consideration of  17 degrees of freedom as
           vibrations may cause significant error
 Vibrational temperatures:     64.24    92.45   117.53   208.49   261.74
          (Kelvin)            331.06   450.60   490.47   510.84   511.68
                              540.09   547.85   552.37   584.01   718.66
                              740.80   886.11   900.06   952.02   968.45
                             1036.72  1044.09  1056.28  1084.40  1145.35
                             1160.77  1219.00  1285.01  1462.08  1579.58
                             1682.73  1737.72  1878.90  1942.57  2016.55
                             2019.32  2129.91  2156.72  2210.46  2249.97
                             2335.21  2365.15  2383.28  2387.48  5116.65
                             5122.89  5349.31  5350.77

 Zero-point correction=                           0.115491 (Hartree/Particle)
 Thermal correction to Energy=                    0.127105
 Thermal correction to Enthalpy=                  0.128049
 Thermal correction to Gibbs Free Energy=         0.077030
 Sum of electronic and zero-point Energies=           -784.000042
 Sum of electronic and thermal Energies=              -783.988429
 Sum of electronic and thermal Enthalpies=            -783.987485
 Sum of electronic and thermal Free Energies=         -784.038503

                     E (Thermal)             CV                S
                      KCal/Mol        Cal/Mol-Kelvin    Cal/Mol-Kelvin
 Total                   79.759             43.495            107.378
 Electronic               0.000              0.000              0.000
 Translational            0.889              2.981             41.785
 Rotational               0.889              2.981             31.556
 Vibrational             77.982             37.533             34.037
 Vibration     1          0.595              1.980              5.041
 Vibration     2          0.597              1.971              4.322
 Vibration     3          0.600              1.962              3.850
 Vibration     4          0.616              1.908              2.738
 Vibration     5          0.630              1.864              2.309
 Vibration     6          0.652              1.795              1.878
 Vibration     7          0.701              1.649              1.345
 Vibration     8          0.720              1.594              1.208
 Vibration     9          0.731              1.565              1.144
 Vibration    10          0.731              1.564              1.141
 Vibration    11          0.746              1.523              1.058
 Vibration    12          0.751              1.511              1.036
 Vibration    13          0.753              1.505              1.024
 Vibration    14          0.771              1.457              0.941
 Vibration    15          0.855              1.251              0.659
 Vibration    16          0.870              1.217              0.622
 Vibration    17          0.975              0.998              0.423

 Optimization completed.
    -- Stationary point found.
 Normal termination of Gaussian 09 at Fri Aug 27 01:38:27 2021.

 -----------------------------------------------------------------
 #P Geom=AllCheck Guess=TCheck SCRF=Check CCSD(T,E4T,FrzG4)/GTBas1
 -----------------------------------------------------------------

 Structure from the checkpoint file:  "/public/home/users/caep010/.cache/gau_scr/Gau-20490.chk"
 --------
 CIWMAW01
 --------
 Charge =  0 Multiplicity = 1

 SCF Done:  E(RHF) =  -779.690604444     A.U. after   15 cycles
 E2 =    -0.2232306673D+01 EUMP2 =    -0.78192291111726D+03
 CCSD(T)
 CCSD(T)= -0.78202323864D+03
 Normal termination of Gaussian 09 at Fri Aug 27 03:44:20 2021.

 ---------------------------------------------------------
 #P Geom=AllCheck Guess=TCheck SCRF=Check MP4=FrzG4/GTBas2
 ---------------------------------------------------------

 Structure from the checkpoint file:  "/public/home/users/caep010/.cache/gau_scr/Gau-20490.chk"
 --------
 CIWMAW01
 --------
 Charge =  0 Multiplicity = 1

 SCF Done:  E(RHF) =  -779.713791276     A.U. after   14 cycles
 E2 =    -0.2264131233D+01 EUMP2 =    -0.78197792250887D+03
 Normal termination of Gaussian 09 at Fri Aug 27 04:41:50 2021.

 ---------------------------------------------------------
 #P Geom=AllCheck Guess=TCheck SCRF=Check MP4=FrzG4/GTBas3
 ---------------------------------------------------------

 Structure from the checkpoint file:  "/public/home/users/caep010/.cache/gau_scr/Gau-20490.chk"
 --------
 CIWMAW01
 --------
 Charge =  0 Multiplicity = 1

 SCF Done:  E(RHF) =  -779.776625937     A.U. after   13 cycles
 E2 =    -0.2650877459D+01 EUMP2 =    -0.78242750339610D+03
 Normal termination of Gaussian 09 at Fri Aug 27 10:00:42 2021.

 -----------------------------------------------------------
 #P Geom=AllCheck Guess=TCheck SCRF=Check MP2=Full/GTLargeXP
 -----------------------------------------------------------

 Structure from the checkpoint file:  "/public/home/users/caep010/.cache/gau_scr/Gau-20490.chk"
 --------
 CIWMAW01
 --------
 Charge =  0 Multiplicity = 1

 SCF Done:  E(RHF) =  -779.979207965     A.U. after   14 cycles
 E2 =    -0.3445692285D+01 EUMP2 =    -0.78342490024978D+03
 Normal termination of Gaussian 09 at Fri Aug 27 10:12:14 2021.
 SCF Done:  E(RHF) =  -780.040623762     A.U. after   10 cycles
 Normal termination of Gaussian 09 at Fri Aug 27 10:19:44 2021.

                         Standard orientation:
 ---------------------------------------------------------------------
 Center     Atomic      Atomic             Coordinates (Angstroms)
 Number     Number       Type             X           Y           Z
 ---------------------------------------------------------------------
      1          7           0       -0.000038    1.911432    0.000042
      2          6           0       -1.158164    1.244331    0.000070
      3          7           0       -2.281990    1.967409    0.000271
      4          1           0       -3.167371    1.483403    0.000072
      5          6           0        1.158115    1.244360   -0.000017
      6          6           0        1.132074   -0.193656   -0.000005
      7          7           0       -0.000002   -0.846061   -0.000041
      8          6           0       -1.132084   -0.193687   -0.000074
      9          7           0       -2.344624   -1.016554   -0.000096
     10          8           0       -3.432593   -0.418622   -0.000280
     11          8           0       -2.228941   -2.224219    0.000048
     12          7           0        2.344593   -1.016478    0.000033
     13          8           0        2.228964   -2.224142    0.000385
     14          8           0        3.432640   -0.418563   -0.000318
     15          7           0        2.281977    1.967358    0.000109
     16          1           0        3.167596    1.482564   -0.000748
     17          1           0        2.200957    2.970142   -0.000440
     18          1           0       -2.200798    2.970425    0.000355
 ---------------------------------------------------------------------

 SCF Done:  E(RHF) =  -780.052775253     A.U. after    8 cycles

 The electronic state is 1-A.
 Alpha  occ. eigenvalues --  -20.61775 -20.61772 -20.60763 -20.60762 -15.86933
 Alpha  occ. eigenvalues --  -15.86932 -15.66183 -15.61960 -15.61960 -15.60222
 Alpha  occ. eigenvalues --  -11.39975 -11.39973 -11.35333 -11.35330  -1.61914
 Alpha  occ. eigenvalues --   -1.61828  -1.41172  -1.41113  -1.38748  -1.31312
 Alpha  occ. eigenvalues --   -1.29690  -1.21036  -1.13687  -1.04189  -0.97008
 Alpha  occ. eigenvalues --   -0.92266  -0.88510  -0.82780  -0.81558  -0.78822
 Alpha  occ. eigenvalues --   -0.77082  -0.74487  -0.74451  -0.74367  -0.73391
 Alpha  occ. eigenvalues --   -0.72044  -0.70454  -0.67327  -0.64945  -0.55819
 Alpha  occ. eigenvalues --   -0.55160  -0.54109  -0.53544  -0.51139  -0.50894
 Alpha  occ. eigenvalues --   -0.50087  -0.47412  -0.47025  -0.46989  -0.42201
 Alpha  occ. eigenvalues --   -0.35999
 Alpha virt. eigenvalues --    0.01051   0.02178   0.03244   0.04573   0.04982
 Alpha virt. eigenvalues --    0.05079   0.06076   0.06346   0.06531   0.07008
 Alpha virt. eigenvalues --    0.07337   0.08106   0.09253   0.09413   0.09933

 Mulliken charges:
               1
     1  N   -0.568622
     2  C    0.520439
     3  N   -0.757155
     4  H    0.401089
     5  C    0.520449
     6  C    0.234503
     7  N   -0.285482
     8  C    0.234503
     9  N    0.513911
    10  O   -0.483859
    11  O   -0.370906
    12  N    0.513875
    13  O   -0.370852
    14  O   -0.483898
    15  N   -0.757213
    16  H    0.401104
    17  H    0.369078
    18  H    0.369037
 Sum of Mulliken charges =  -0.00000

 Dipole moment (field-independent basis, Debye):
    X=             -0.0000    Y=              7.6122    Z=             -0.0018  Tot=              7.6122
 Quadrupole moment (field-independent basis, Debye-Ang):
   XX=            -88.2300   YY=            -79.4475   ZZ=            -77.6923
   XY=             -0.0041   XZ=             -0.0067   YZ=             -0.0032

 Normal termination of Gaussian 09 at Fri Aug 27 11:11:06 2021.
