 Gaussian 09, Revision E.01,
 Gaussian 09:  ES64L-G09RevE.01 30-Nov-2015

 ----------------
 #P G4 OPT=calcfc
 ----------------

 ------
 CUZMOZ
 ------
 Symbolic Z-matrix:
 Charge =  0 Multiplicity = 1

 SCF Done:  E(RB3LYP) =  -469.977401090     A.U. after   15 cycles
 SCF Done:  E(RB3LYP) =  -470.032517215     A.U. after   13 cycles
 SCF Done:  E(RB3LYP) =  -470.043418756     A.U. after   12 cycles
 SCF Done:  E(RB3LYP) =  -470.043623064     A.U. after   11 cycles
 SCF Done:  E(RB3LYP) =  -470.043641998     A.U. after    8 cycles
 SCF Done:  E(RB3LYP) =  -470.043645796     A.U. after    8 cycles
 SCF Done:  E(RB3LYP) =  -470.043646063     A.U. after    8 cycles
 SCF Done:  E(RB3LYP) =  -470.043646078     A.U. after    7 cycles
 SCF Done:  E(RB3LYP) =  -470.043630102     A.U. after   12 cycles
 SCF Done:  E(RB3LYP) =  -470.043646142     A.U. after    8 cycles
 SCF Done:  E(RB3LYP) =  -470.043651116     A.U. after    8 cycles
 SCF Done:  E(RB3LYP) =  -470.019048991     A.U. after   14 cycles
 SCF Done:  E(RB3LYP) =  -470.043651171     A.U. after    8 cycles
 Optimization completed.
    -- Stationary point found.
 Normal termination of Gaussian 09 at Thu Aug 26 18:33:09 2021.

 ----------------------------------------------------------
 #P Geom=AllCheck Guess=TCheck SCRF=Check B3LYP/GTBas3 Freq
 ----------------------------------------------------------

 Structure from the checkpoint file:  "/public/home/users/caep010/.cache/gau_scr/Gau-44607.chk"
 ------
 CUZMOZ
 ------
 Charge =  0 Multiplicity = 1

 SCF Done:  E(RB3LYP) =  -470.043651171     A.U. after    1 cycles

  Exact polarizability:  97.280   1.678  74.399   0.130   0.044  36.527
 Approx polarizability: 144.325   6.657 146.501  -0.014  -0.162  57.501

                      1                      2                      3
                      A                      A                      A
 Frequencies --     25.8653                66.6076               163.2984
 Red. masses --      1.0836                 6.9775                 4.5641
 Frc consts  --      0.0004                 0.0182                 0.0717
 IR Inten    --      0.1037                 0.4993                 2.1806

                      4                      5                      6
                      A                      A                      A
 Frequencies --    196.6692               271.8026               370.7885
 Red. masses --      5.5801                 4.4340                 3.7131
 Frc consts  --      0.1272                 0.1930                 0.3008
 IR Inten    --      0.0028                 2.7683                 4.2041

                      7                      8                      9
                      A                      A                      A
 Frequencies --    430.2666               550.3626               628.7505
 Red. masses --      8.4869                 5.9272                 4.1319
 Frc consts  --      0.9257                 1.0578                 0.9624
 IR Inten    --      1.1227                 0.6442                 4.5033

                     10                     11                     12
                      A                      A                      A
 Frequencies --    657.3210               711.9073               774.1853
 Red. masses --      8.8966                 5.0093                 1.4880
 Frc consts  --      2.2648                 1.4958                 0.5255
 IR Inten    --      2.3302                 5.2904                45.9426

                     13                     14                     15
                      A                      A                      A
 Frequencies --    803.7706               839.5281               862.3814
 Red. masses --      3.3827                12.3175                 1.4199
 Frc consts  --      1.2876                 5.1150                 0.6221
 IR Inten    --      1.9741                51.0711                 1.3952

                     16                     17                     18
                      A                      A                      A
 Frequencies --   1011.8021              1014.0092              1069.2402
 Red. masses --      2.6546                 6.4868                 1.6309
 Frc consts  --      1.6012                 3.9297                 1.0986
 IR Inten    --      1.2813                 9.5606                19.1233

                     19                     20                     21
                      A                      A                      A
 Frequencies --   1091.0283              1151.3546              1208.8820
 Red. masses --      1.4647                 1.3218                 1.8160
 Frc consts  --      1.0273                 1.0324                 1.5636
 IR Inten    --      6.4073                 2.5778                23.6817

                     22                     23                     24
                      A                      A                      A
 Frequencies --   1331.2667              1382.7088              1416.0461
 Red. masses --      5.9313                 4.8637                 7.7890
 Frc consts  --      6.1934                 5.4787                 9.2021
 IR Inten    --     92.5370                23.3774               193.2233

                     25                     26                     27
                      A                      A                      A
 Frequencies --   1440.6905              1468.5207              1473.2223
 Red. masses --      2.6666                 1.9801                 2.2375
 Frc consts  --      3.2610                 2.5160                 2.8612
 IR Inten    --      2.7765                13.4582                12.7553

                     28                     29                     30
                      A                      A                      A
 Frequencies --   1476.4338              1519.0371              1553.6379
 Red. masses --      1.1629                 1.2327                 5.0369
 Frc consts  --      1.4935                 1.6758                 7.1633
 IR Inten    --     10.4151                 4.7148                20.6055

                     31                     32                     33
                      A                      A                      A
 Frequencies --   1642.4669              3060.8319              3135.6486
 Red. masses --     14.1388                 1.0331                 1.1036
 Frc consts  --     22.4727                 5.7026                 6.3932
 IR Inten    --    210.5187                27.0275                 6.5859

                     34                     35                     36
                      A                      A                      A
 Frequencies --   3159.3911              3265.6294              3307.5342
 Red. masses --      1.1047                 1.0953                 1.1022
 Frc consts  --      6.4967                 6.8823                 7.1043
 IR Inten    --      4.4507                 0.1789                 4.1412

 - Thermochemistry -
 -------------------
 Temperature   298.150 Kelvin.  Pressure   1.00000 Atm.
 Atom     1 has atomic number  6 and mass  12.00000

 Molecular mass:   127.03818 amu.
 Principal axes and moments of inertia in atomic units:
                           1         2         3
     Eigenvalues --   416.421321568.090471973.07384
           X            0.99986   0.01652   0.00026
           Y           -0.01652   0.99986   0.00044
           Z           -0.00025  -0.00044   1.00000
 This molecule is an asymmetric top.
 Rotational symmetry number  1.
 Rotational temperatures (Kelvin)      0.20800     0.05524     0.04390
 Rotational constants (GHZ):           4.33393     1.15092     0.91469
 Zero-point vibrational energy     266365.8 (Joules/Mol)
                                   63.66296 (Kcal/Mol)
 Warning -- explicit consideration of   8 degrees of freedom as
           vibrations may cause significant error
 Vibrational temperatures:     37.21    95.83   234.95   282.96   391.06
          (Kelvin)            533.48   619.06   791.85   904.63   945.74
                             1024.27  1113.88  1156.45  1207.89  1240.77
                             1455.76  1458.93  1538.40  1569.74  1656.54
                             1739.31  1915.39  1989.41  2037.37  2072.83
                             2112.87  2119.64  2124.26  2185.55  2235.34
                             2363.14  4403.85  4511.49  4545.65  4698.51
                             4758.80

 Zero-point correction=                           0.101453 (Hartree/Particle)
 Thermal correction to Energy=                    0.109322
 Thermal correction to Enthalpy=                  0.110266
 Thermal correction to Gibbs Free Energy=         0.067237
 Sum of electronic and zero-point Energies=           -469.942198
 Sum of electronic and thermal Energies=              -469.934329
 Sum of electronic and thermal Enthalpies=            -469.933385
 Sum of electronic and thermal Free Energies=         -469.976414

                     E (Thermal)             CV                S
                      KCal/Mol        Cal/Mol-Kelvin    Cal/Mol-Kelvin
 Total                   68.601             27.243             90.563
 Electronic               0.000              0.000              0.000
 Translational            0.889              2.981             40.431
 Rotational               0.889              2.981             28.645
 Vibrational             66.823             21.281             21.487
 Vibration     1          0.593              1.985              6.124
 Vibration     2          0.598              1.970              4.251
 Vibration     3          0.623              1.887              2.511
 Vibration     4          0.636              1.845              2.164
 Vibration     5          0.675              1.725              1.585
 Vibration     6          0.743              1.532              1.077
 Vibration     7          0.791              1.404              0.858
 Vibration     8          0.906              1.139              0.543

 Normal termination of Gaussian 09 at Thu Aug 26 18:34:07 2021.

 -----------------------------------------------------------------
 #P Geom=AllCheck Guess=TCheck SCRF=Check CCSD(T,E4T,FrzG4)/GTBas1
 -----------------------------------------------------------------

 Structure from the checkpoint file:  "/public/home/users/caep010/.cache/gau_scr/Gau-44607.chk"
 ------
 CUZMOZ
 ------
 Charge =  0 Multiplicity = 1

 SCF Done:  E(RHF) =  -467.288705652     A.U. after   15 cycles
 E2 =    -0.1385870237D+01 EUMP2 =    -0.46867457588849D+03
 CCSD(T)
 CCSD(T)= -0.46874860626D+03
 SD=-468.6874895\CCSD(T)=-468.7486063\RMSD=6.120e-09\PG=C01 [X(C4H5N3O2
 Normal termination of Gaussian 09 at Thu Aug 26 18:44:03 2021.

 ---------------------------------------------------------
 #P Geom=AllCheck Guess=TCheck SCRF=Check MP4=FrzG4/GTBas2
 ---------------------------------------------------------

 Structure from the checkpoint file:  "/public/home/users/caep010/.cache/gau_scr/Gau-44607.chk"
 ------
 CUZMOZ
 ------
 Charge =  0 Multiplicity = 1

 SCF Done:  E(RHF) =  -467.302091478     A.U. after   13 cycles
 E2 =    -0.1403683247D+01 EUMP2 =    -0.46870577472501D+03
 Normal termination of Gaussian 09 at Thu Aug 26 18:47:01 2021.

 ---------------------------------------------------------
 #P Geom=AllCheck Guess=TCheck SCRF=Check MP4=FrzG4/GTBas3
 ---------------------------------------------------------

 Structure from the checkpoint file:  "/public/home/users/caep010/.cache/gau_scr/Gau-44607.chk"
 ------
 CUZMOZ
 ------
 Charge =  0 Multiplicity = 1

 SCF Done:  E(RHF) =  -467.336310058     A.U. after   13 cycles
 E2 =    -0.1651350086D+01 EUMP2 =    -0.46898766014389D+03
 Normal termination of Gaussian 09 at Thu Aug 26 19:08:40 2021.

 -----------------------------------------------------------
 #P Geom=AllCheck Guess=TCheck SCRF=Check MP2=Full/GTLargeXP
 -----------------------------------------------------------

 Structure from the checkpoint file:  "/public/home/users/caep010/.cache/gau_scr/Gau-44607.chk"
 ------
 CUZMOZ
 ------
 Charge =  0 Multiplicity = 1

 SCF Done:  E(RHF) =  -467.453435015     A.U. after   13 cycles
 E2 =    -0.2150229821D+01 EUMP2 =    -0.46960366483619D+03
 Normal termination of Gaussian 09 at Thu Aug 26 19:15:09 2021.
 SCF Done:  E(RHF) =  -467.490598475     A.U. after    9 cycles
 Normal termination of Gaussian 09 at Thu Aug 26 19:20:04 2021.

                         Standard orientation:
 ---------------------------------------------------------------------
 Center     Atomic      Atomic             Coordinates (Angstroms)
 Number     Number       Type             X           Y           Z
 ---------------------------------------------------------------------
      1          6           0       -2.922545   -0.797399   -0.010716
      2          7           0       -1.651787   -0.096095    0.010551
      3          7           0       -0.514754   -0.796500    0.005632
      4          6           0        0.428787    0.137597   -0.000292
      5          7           0        1.830286   -0.232982   -0.001152
      6          8           0        2.118639   -1.418383    0.004261
      7          8           0        2.628474    0.700318   -0.007881
      8          6           0       -1.442875    1.250194    0.005162
      9          6           0       -0.080116    1.447068   -0.001137
     10          1           0        0.472536    2.369266   -0.001396
     11          1           0       -2.267278    1.945348    0.007650
     12          1           0       -3.724738   -0.074890    0.143931
     13          1           0       -2.940311   -1.541975    0.787026
     14          1           0       -3.062845   -1.298959   -0.971562
 ---------------------------------------------------------------------

 SCF Done:  E(RHF) =  -467.497870950     A.U. after    8 cycles

 The electronic state is 1-A.
 Alpha  occ. eigenvalues --  -20.59821 -20.59489 -15.85141 -15.68273 -15.63048
 Alpha  occ. eigenvalues --  -11.32744 -11.30651 -11.30018 -11.26020  -1.60248
 Alpha  occ. eigenvalues --   -1.42646  -1.39571  -1.17708  -1.10061  -1.04071
 Alpha  occ. eigenvalues --   -0.93947  -0.84236  -0.80513  -0.77288  -0.72318
 Alpha  occ. eigenvalues --   -0.72059  -0.69610  -0.68162  -0.63375  -0.61672
 Alpha  occ. eigenvalues --   -0.59175  -0.57960  -0.50712  -0.49681  -0.49170
 Alpha  occ. eigenvalues --   -0.44974  -0.39453  -0.38063
 Alpha virt. eigenvalues --    0.02074   0.03242   0.03910   0.04767   0.05459
 Alpha virt. eigenvalues --    0.05985   0.06537   0.07319   0.07410   0.07688
 Alpha virt. eigenvalues --    0.08979   0.09344   0.09758   0.10655   0.12776

 Mulliken charges:
               1
     1  C   -0.513782
     2  N    0.212602
     3  N   -0.340701
     4  C    0.260297
     5  N    0.499885
     6  O   -0.390632
     7  O   -0.436476
     8  C   -0.169028
     9  C   -0.226784
    10  H    0.261259
    11  H    0.227848
    12  H    0.193425
    13  H    0.216968
    14  H    0.205121
 Sum of Mulliken charges =  -0.00000

 Dipole moment (field-independent basis, Debye):
    X=             -7.0181    Y=              2.3216    Z=             -0.0019  Tot=              7.3921
 Quadrupole moment (field-independent basis, Debye-Ang):
   XX=            -50.1412   YY=            -52.0681   ZZ=            -51.8535
   XY=              1.3356   XZ=              0.0075   YZ=              0.0236

 Normal termination of Gaussian 09 at Thu Aug 26 19:36:59 2021.
