 Gaussian 09, Revision E.01,
 Gaussian 09:  ES64L-G09RevE.01 30-Nov-2015

 ----------------
 #P G4 OPT=calcfc
 ----------------

 --------
 CIWMEA10
 --------
 Symbolic Z-matrix:
 Charge =  0 Multiplicity = 1

 SCF Done:  E(RB3LYP) =  -786.650743478     A.U. after   16 cycles
 SCF Done:  E(RB3LYP) =  -786.738956667     A.U. after   14 cycles
 SCF Done:  E(RB3LYP) =  -786.759714750     A.U. after   15 cycles
 SCF Done:  E(RB3LYP) =  -786.768452035     A.U. after   15 cycles
 SCF Done:  E(RB3LYP) =  -786.769303616     A.U. after   13 cycles
 SCF Done:  E(RB3LYP) =  -786.769609646     A.U. after   12 cycles
 SCF Done:  E(RB3LYP) =  -786.769672567     A.U. after   12 cycles
 SCF Done:  E(RB3LYP) =  -786.769676121     A.U. after   10 cycles
 SCF Done:  E(RB3LYP) =  -786.769676537     A.U. after    8 cycles
 Optimization completed.
    -- Stationary point found.
 Normal termination of Gaussian 09 at Fri Aug 27 11:25:30 2021.

 ----------------------------------------------------------
 #P Geom=AllCheck Guess=TCheck SCRF=Check B3LYP/GTBas3 Freq
 ----------------------------------------------------------

 Structure from the checkpoint file:  "/public/home/users/caep010/.cache/gau_scr/Gau-201040.chk"
 --------
 CIWMEA10
 --------
 Charge =  0 Multiplicity = 1

 SCF Done:  E(RB3LYP) =  -786.769676537     A.U. after    1 cycles

  Exact polarizability: 100.378   6.341  66.259  -0.001   0.003  78.681
 Approx polarizability: 159.792  21.775 106.354  -0.005   0.008 167.100

                      1                      2                      3
                      A                      A                      A
 Frequencies --     28.7454                42.1288                84.3708
 Red. masses --     15.1489                 9.0553                14.9017
 Frc consts  --      0.0074                 0.0095                 0.0625
 IR Inten    --      0.0247                 4.5216                 0.1444

                      4                      5                      6
                      A                      A                      A
 Frequencies --    102.0259               155.5749               183.6609
 Red. masses --     15.8229                10.4106                13.6689
 Frc consts  --      0.0970                 0.1485                 0.2717
 IR Inten    --      0.0161                 8.5422                 2.4293

                      7                      8                      9
                      A                      A                      A
 Frequencies --    228.1228               270.5883               297.2455
 Red. masses --      8.8601                 3.2229                 4.7227
 Frc consts  --      0.2717                 0.1390                 0.2459
 IR Inten    --      7.5859                 5.7205                 0.0440

                     10                     11                     12
                      A                      A                      A
 Frequencies --    343.1144               366.4610               416.9201
 Red. masses --      7.1131                 2.5897                15.1309
 Frc consts  --      0.4934                 0.2049                 1.5496
 IR Inten    --      0.5942                14.8537                 0.3036

                     13                     14                     15
                      A                      A                      A
 Frequencies --    521.6491               546.9856               611.7706
 Red. masses --      6.4444                 6.8470                 5.8786
 Frc consts  --      1.0332                 1.2070                 1.2963
 IR Inten    --      5.2325                12.7252                 1.5698

                     16                     17                     18
                      A                      A                      A
 Frequencies --    667.1248               729.9269               730.4694
 Red. masses --      4.5064                 4.8786                 7.1757
 Frc consts  --      1.1817                 1.5314                 2.2559
 IR Inten    --     13.1427                 1.1468                 1.9745

                     19                     20                     21
                      A                      A                      A
 Frequencies --    784.6994               828.3741               856.1630
 Red. masses --     11.4863                 7.8473                10.3376
 Frc consts  --      4.1671                 3.1727                 4.4646
 IR Inten    --     22.0277                 2.6300                43.8649

                     22                     23                     24
                      A                      A                      A
 Frequencies --    872.6304               920.6162               943.6740
 Red. masses --      5.3653                 6.0677                 1.4746
 Frc consts  --      2.4072                 3.0299                 0.7737
 IR Inten    --     41.5473                15.0493                 0.2541

                     25                     26                     27
                      A                      A                      A
 Frequencies --   1063.1387              1105.4540              1125.7967
 Red. masses --      4.1621                 6.8467                 1.1306
 Frc consts  --      2.7717                 4.9296                 0.8443
 IR Inten    --     46.9641                 4.5430                 0.0175

                     28                     29                     30
                      A                      A                      A
 Frequencies --   1142.8897              1183.3559              1192.0543
 Red. masses --      1.9129                 4.4849                 6.2944
 Frc consts  --      1.4722                 3.7002                 5.2698
 IR Inten    --      8.8936                39.4036                 5.7154

                     31                     32                     33
                      A                      A                      A
 Frequencies --   1223.5896              1274.6553              1299.9245
 Red. masses --      1.8933                 1.3643                 1.8750
 Frc consts  --      1.6701                 1.3060                 1.8668
 IR Inten    --     73.3282                 0.6290                76.4683

                     34                     35                     36
                      A                      A                      A
 Frequencies --   1371.5353              1379.8949              1424.6945
 Red. masses --      6.2506                11.3122                 8.7859
 Frc consts  --      6.9277                12.6908                10.5070
 IR Inten    --    297.3918               110.5636                69.4762

                     37                     38                     39
                      A                      A                      A
 Frequencies --   1478.0730              1498.0029              1674.2233
 Red. masses --      1.0732                 1.1475                14.3479
 Frc consts  --      1.3814                 1.5172                23.6955
 IR Inten    --     21.4028                 6.4157               265.5591

                     40                     41                     42
                      A                      A                      A
 Frequencies --   1680.5107              1683.3895              3095.5020
 Red. masses --     14.1323                14.0440                 1.0560
 Frc consts  --     23.5150                23.4482                 5.9618
 IR Inten    --    213.8453               231.9631                 0.8736

                     43                     44                     45
                      A                      A                      A
 Frequencies --   3100.3293              3168.9808              3170.0170
 Red. masses --      1.0590                 1.1105                 1.1104
 Frc consts  --      5.9972                 6.5704                 6.5744
 IR Inten    --      3.6570                 0.5948                 0.5169

 - Thermochemistry -
 -------------------
 Temperature   298.150 Kelvin.  Pressure   1.00000 Atm.
 Atom     1 has atomic number  7 and mass  14.00307

 Molecular mass:   192.01308 amu.
 Principal axes and moments of inertia in atomic units:
                           1         2         3
     Eigenvalues --  1230.954273187.941313588.65016
           X            1.00000   0.00111   0.00000
           Y           -0.00111   1.00000   0.00001
           Z           -0.00000  -0.00001   1.00000
 This molecule is an asymmetric top.
 Rotational symmetry number  1.
 Warning -- assumption of classical behavior for rotation
           may cause significant error
 Rotational temperatures (Kelvin)      0.07036     0.02717     0.02414
 Rotational constants (GHZ):           1.46613     0.56611     0.50290
 Zero-point vibrational energy     280339.2 (Joules/Mol)
                                   67.00268 (Kcal/Mol)
 Warning -- explicit consideration of  15 degrees of freedom as
           vibrations may cause significant error
 Vibrational temperatures:     41.36    60.61   121.39   146.79   223.84
          (Kelvin)            264.25   328.22   389.32   427.67   493.66
                              527.26   599.85   750.54   786.99   880.20
                              959.84  1050.20  1050.98  1129.01  1191.84
                             1231.83  1255.52  1324.56  1357.73  1529.62
                             1590.50  1619.77  1644.36  1702.58  1715.10
                             1760.47  1833.94  1870.30  1973.33  1985.36
                             2049.81  2126.61  2155.29  2408.83  2417.88
                             2422.02  4453.73  4460.68  4559.45  4560.94

 Zero-point correction=                           0.106776 (Hartree/Particle)
 Thermal correction to Energy=                    0.117928
 Thermal correction to Enthalpy=                  0.118872
 Thermal correction to Gibbs Free Energy=         0.067588
 Sum of electronic and zero-point Energies=           -786.662901
 Sum of electronic and thermal Energies=              -786.651748
 Sum of electronic and thermal Enthalpies=            -786.650804
 Sum of electronic and thermal Free Energies=         -786.702088

                     E (Thermal)             CV                S
                      KCal/Mol        Cal/Mol-Kelvin    Cal/Mol-Kelvin
 Total                   74.001             39.072            107.937
 Electronic               0.000              0.000              0.000
 Translational            0.889              2.981             41.663
 Rotational               0.889              2.981             31.022
 Vibrational             72.224             33.110             35.252
 Vibration     1          0.593              1.984              5.914
 Vibration     2          0.595              1.980              5.156
 Vibration     3          0.601              1.960              3.787
 Vibration     4          0.604              1.948              3.415
 Vibration     5          0.620              1.896              2.603
 Vibration     6          0.631              1.862              2.291
 Vibration     7          0.651              1.798              1.894
 Vibration     8          0.674              1.727              1.592
 Vibration     9          0.691              1.679              1.432
 Vibration    10          0.722              1.589              1.198
 Vibration    11          0.739              1.541              1.095
 Vibration    12          0.780              1.433              0.902
 Vibration    13          0.877              1.202              0.606
 Vibration    14          0.902              1.146              0.550
 Vibration    15          0.971              1.007              0.430

 Optimization completed.
    -- Stationary point found.
 Normal termination of Gaussian 09 at Fri Aug 27 11:28:16 2021.

 -----------------------------------------------------------------
 #P Geom=AllCheck Guess=TCheck SCRF=Check CCSD(T,E4T,FrzG4)/GTBas1
 -----------------------------------------------------------------

 Structure from the checkpoint file:  "/public/home/users/caep010/.cache/gau_scr/Gau-201040.chk"
 --------
 CIWMEA10
 --------
 Charge =  0 Multiplicity = 1

 SCF Done:  E(RHF) =  -782.443152890     A.U. after   15 cycles
 E2 =    -0.2185640739D+01 EUMP2 =    -0.78462879362922D+03
 CCSD(T)
 CCSD(T)= -0.78471515831D+03
 Normal termination of Gaussian 09 at Fri Aug 27 12:52:30 2021.

 ---------------------------------------------------------
 #P Geom=AllCheck Guess=TCheck SCRF=Check MP4=FrzG4/GTBas2
 ---------------------------------------------------------

 Structure from the checkpoint file:  "/public/home/users/caep010/.cache/gau_scr/Gau-201040.chk"
 --------
 CIWMEA10
 --------
 Charge =  0 Multiplicity = 1

 SCF Done:  E(RHF) =  -782.467089051     A.U. after   15 cycles
 E2 =    -0.2217105026D+01 EUMP2 =    -0.78468419407644D+03
 Normal termination of Gaussian 09 at Fri Aug 27 13:27:25 2021.

 ---------------------------------------------------------
 #P Geom=AllCheck Guess=TCheck SCRF=Check MP4=FrzG4/GTBas3
 ---------------------------------------------------------

 Structure from the checkpoint file:  "/public/home/users/caep010/.cache/gau_scr/Gau-201040.chk"
 --------
 CIWMEA10
 --------
 Charge =  0 Multiplicity = 1

 SCF Done:  E(RHF) =  -782.527030710     A.U. after   13 cycles
 E2 =    -0.2611133096D+01 EUMP2 =    -0.78513816380596D+03
 Normal termination of Gaussian 09 at Fri Aug 27 18:35:28 2021.

 -----------------------------------------------------------
 #P Geom=AllCheck Guess=TCheck SCRF=Check MP2=Full/GTLargeXP
 -----------------------------------------------------------

 Structure from the checkpoint file:  "/public/home/users/caep010/.cache/gau_scr/Gau-201040.chk"
 --------
 CIWMEA10
 --------
 Charge =  0 Multiplicity = 1

 SCF Done:  E(RHF) =  -782.736006394     A.U. after   14 cycles
 E2 =    -0.3366601612D+01 EUMP2 =    -0.78610260800668D+03
 Normal termination of Gaussian 09 at Fri Aug 27 18:57:18 2021.
 SCF Done:  E(RHF) =  -782.799072378     A.U. after   10 cycles
 Normal termination of Gaussian 09 at Fri Aug 27 19:03:34 2021.

                         Standard orientation:
 ---------------------------------------------------------------------
 Center     Atomic      Atomic             Coordinates (Angstroms)
 Number     Number       Type             X           Y           Z
 ---------------------------------------------------------------------
      1          7           0        1.326842   -0.674107   -0.000000
      2          6           0        0.412514   -0.252903   -1.083303
      3          6           0        0.412470   -0.252894    1.083288
      4          1           0        0.178155   -1.027848    1.811073
      5          6           0       -0.662537   -0.026568   -0.000029
      6          7           0       -1.804023   -1.019906    0.000006
      7          8           0       -2.215880   -1.367339   -1.090431
      8          8           0       -2.215894   -1.367143    1.090510
      9          7           0        2.634986   -0.189173    0.000042
     10          8           0        3.141014   -0.025150   -1.096090
     11          8           0        3.140937   -0.024997    1.096169
     12          7           0       -1.281872    1.364274   -0.000044
     13          8           0       -2.491101    1.451570    0.000081
     14          1           0        0.729839    0.668755   -1.574067
     15          1           0        0.729918    0.668941    1.574043
     16          1           0        0.178104   -1.028087   -1.811183
     17          8           0       -0.474355    2.276160   -0.000193
 ---------------------------------------------------------------------

 SCF Done:  E(RHF) =  -782.811920436     A.U. after    8 cycles

 The electronic state is 1-A.
 Alpha  occ. eigenvalues --  -20.66271 -20.65480 -20.65389 -20.65384 -20.63288
 Alpha  occ. eigenvalues --  -20.63283 -15.91500 -15.90974 -15.90186 -15.68963
 Alpha  occ. eigenvalues --  -11.43175 -11.35552 -11.35550  -1.67312  -1.65833
 Alpha  occ. eigenvalues --   -1.65457  -1.46494  -1.45753  -1.44483  -1.36942
 Alpha  occ. eigenvalues --   -1.20271  -1.06125  -1.03089  -1.01074  -0.88668
 Alpha  occ. eigenvalues --   -0.85226  -0.84548  -0.81725  -0.79286  -0.78792
 Alpha  occ. eigenvalues --   -0.78684  -0.77283  -0.76659  -0.76283  -0.72903
 Alpha  occ. eigenvalues --   -0.67506  -0.66458  -0.65343  -0.58344  -0.56903
 Alpha  occ. eigenvalues --   -0.56036  -0.54797  -0.53297  -0.52980  -0.52573
 Alpha  occ. eigenvalues --   -0.51166  -0.49548  -0.49254  -0.47968
 Alpha virt. eigenvalues --    0.02687   0.02859   0.03144   0.03502   0.04438
 Alpha virt. eigenvalues --    0.05250   0.06287   0.06464   0.06878   0.06923
 Alpha virt. eigenvalues --    0.07483   0.07907   0.09151   0.09669   0.10491

 Mulliken charges:
               1
     1  N    0.043550
     2  C   -0.356711
     3  C   -0.356680
     4  H    0.249159
     5  C    0.383557
     6  N    0.527875
     7  O   -0.392904
     8  O   -0.392904
     9  N    0.579948
    10  O   -0.419659
    11  O   -0.419647
    12  N    0.539154
    13  O   -0.363958
    14  H    0.272726
    15  H    0.272711
    16  H    0.249153
    17  O   -0.415369
 Sum of Mulliken charges =  -0.00000

 Dipole moment (field-independent basis, Debye):
    X=              0.0096    Y=             -0.7792    Z=             -0.0000  Tot=              0.7793
 Quadrupole moment (field-independent basis, Debye-Ang):
   XX=            -98.0024   YY=            -79.3239   ZZ=            -71.3825
   XY=             -2.3055   XZ=              0.0012   YZ=              0.0002

 Normal termination of Gaussian 09 at Fri Aug 27 19:46:10 2021.
