 Gaussian 09, Revision E.01,
 Gaussian 09:  ES64L-G09RevE.01 30-Nov-2015

 ----------------
 #P G4 OPT=calcfc
 ----------------

 ------
 CEDZUG
 ------
 Symbolic Z-matrix:
 Charge =  0 Multiplicity = 1

 SCF Done:  E(RB3LYP) =  -718.416406911     A.U. after   14 cycles
 SCF Done:  E(RB3LYP) =  -718.488130082     A.U. after   16 cycles
 SCF Done:  E(RB3LYP) =  -718.511164478     A.U. after   16 cycles
 SCF Done:  E(RB3LYP) =  -718.513038657     A.U. after   16 cycles
 SCF Done:  E(RB3LYP) =  -718.513985612     A.U. after   16 cycles
 SCF Done:  E(RB3LYP) =  -718.496669198     A.U. after   17 cycles
 SCF Done:  E(RB3LYP) =  -718.514158686     A.U. after   12 cycles
 SCF Done:  E(RB3LYP) =  -718.514259757     A.U. after   16 cycles
 SCF Done:  E(RB3LYP) =  -718.508326111     A.U. after   16 cycles
 SCF Done:  E(RB3LYP) =  -718.514311797     A.U. after   11 cycles
 SCF Done:  E(RB3LYP) =  -718.514467741     A.U. after    9 cycles
 SCF Done:  E(RB3LYP) =  -718.514467757     A.U. after    9 cycles
 SCF Done:  E(RB3LYP) =  -718.514467752     A.U. after    7 cycles
 Optimization completed.
    -- Stationary point found.
 Normal termination of Gaussian 09 at Wed Aug 25 01:32:52 2021.

 ----------------------------------------------------------
 #P Geom=AllCheck Guess=TCheck SCRF=Check B3LYP/GTBas3 Freq
 ----------------------------------------------------------

 Structure from the checkpoint file:  "/public/home/users/caep010/.cache/gau_scr/Gau-108469.chk"
 ------
 CEDZUG
 ------
 Charge =  0 Multiplicity = 1

 SCF Done:  E(RB3LYP) =  -718.514467752     A.U. after    2 cycles

  Exact polarizability: 120.249  -0.000  92.389  -0.573   0.000  84.091
 Approx polarizability: 165.203  -0.000 180.531  -2.241   0.000 149.690

                      1                      2                      3
                      A                      A                      A
 Frequencies --     12.7292                15.2155               104.1873
 Red. masses --      7.6289                15.8523                11.1542
 Frc consts  --      0.0007                 0.0022                 0.0713
 IR Inten    --      0.1179                 0.0087                 7.5223

                      4                      5                      6
                      A                      A                      A
 Frequencies --    109.8013               195.5779               208.8475
 Red. masses --     10.3161                 5.8152                 5.2324
 Frc consts  --      0.0733                 0.1311                 0.1345
 IR Inten    --      8.9183                 0.5879                 0.5111

                      7                      8                      9
                      A                      A                      A
 Frequencies --    284.7490               424.2592               449.4774
 Red. masses --     14.0971                 7.0239                 8.0642
 Frc consts  --      0.6735                 0.7449                 0.9599
 IR Inten    --      0.0101                15.2587                 0.2801

                     10                     11                     12
                      A                      A                      A
 Frequencies --    474.1402               642.0795               655.8330
 Red. masses --      6.7111                 3.3303                 2.9347
 Frc consts  --      0.8889                 0.8089                 0.7437
 IR Inten    --      0.0603                 2.9682                 1.7700

                     13                     14                     15
                      A                      A                      A
 Frequencies --    688.4282               690.6715               726.4873
 Red. masses --      4.9367                 5.3553                 6.7995
 Frc consts  --      1.3785                 1.5051                 2.1144
 IR Inten    --      0.0041                 1.9307                 0.7612

                     16                     17                     18
                      A                      A                      A
 Frequencies --    728.5085               769.6828               819.9781
 Red. masses --      5.3009                 4.6379                 6.0668
 Frc consts  --      1.6576                 1.6188                 2.4033
 IR Inten    --      2.1470                 0.0160                60.2601

                     19                     20                     21
                      A                      A                      A
 Frequencies --    839.6226               845.8239               853.8699
 Red. masses --      1.9401                 1.5234                 1.7862
 Frc consts  --      0.8058                 0.6421                 0.7673
 IR Inten    --      1.6379                 0.0257                 7.9449

                     22                     23                     24
                      A                      A                      A
 Frequencies --    860.5272               875.0144               882.4287
 Red. masses --      1.8101                 1.6616                 1.6602
 Frc consts  --      0.7897                 0.7495                 0.7617
 IR Inten    --      5.6192                 0.1418                 0.0340

                     25                     26                     27
                      A                      A                      A
 Frequencies --    895.1985               960.2061              1031.9114
 Red. masses --      8.2291                 2.5096                 3.1879
 Frc consts  --      3.8854                 1.3633                 2.0001
 IR Inten    --      0.0129                18.6175                 0.4579

                     28                     29                     30
                      A                      A                      A
 Frequencies --   1034.7115              1047.5928              1076.1298
 Red. masses --      5.9113                 3.3503                 3.5662
 Frc consts  --      3.7288                 2.1663                 2.4332
 IR Inten    --      1.1198                 1.0421                 2.4409

                     31                     32                     33
                      A                      A                      A
 Frequencies --   1081.2121              1099.2408              1109.9223
 Red. masses --      3.3732                 1.6927                 1.7319
 Frc consts  --      2.3234                 1.2050                 1.2571
 IR Inten    --     12.3479                 3.6026                 0.0021

                     34                     35                     36
                      A                      A                      A
 Frequencies --   1123.5366              1127.0789              1130.4848
 Red. masses --      3.7802                 3.5739                 1.7742
 Frc consts  --      2.8115                 2.6749                 1.3359
 IR Inten    --      0.4758                 0.8987                 0.0644

                     37                     38                     39
                      A                      A                      A
 Frequencies --   1133.3043              1148.0541              1208.6677
 Red. masses --      1.7361                 1.2659                 2.2140
 Frc consts  --      1.3138                 0.9831                 1.9056
 IR Inten    --      0.1082                 0.0641                 0.4331

                     40                     41                     42
                      A                      A                      A
 Frequencies --   1214.6779              1228.3283              1236.6413
 Red. masses --      2.2718                 2.2513                 1.9249
 Frc consts  --      1.9749                 2.0013                 1.7344
 IR Inten    --     11.4118                 2.4910                 3.6801

                     43                     44                     45
                      A                      A                      A
 Frequencies --   1255.8261              1292.3850              1412.6493
 Red. masses --      2.7340                 2.6195                13.5508
 Frc consts  --      2.5405                 2.5779                15.9325
 IR Inten    --      0.0074                 0.6792               339.1235

                     46                     47                     48
                      A                      A                      A
 Frequencies --   1416.7060              1637.7593              1637.9156
 Red. masses --     14.5329                14.5692                14.5678
 Frc consts  --     17.1855                23.0243                23.0265
 IR Inten    --      0.2048               145.7852               311.8982

                     49                     50                     51
                      A                      A                      A
 Frequencies --   3156.9090              3160.8031              3163.2825
 Red. masses --      1.0914                 1.0900                 1.0920
 Frc consts  --      6.4086                 6.4163                 6.4383
 IR Inten    --      4.8385                 1.9123                12.3442

                     52                     53                     54
                      A                      A                      A
 Frequencies --   3168.1508              3170.3426              3177.4431
 Red. masses --      1.0951                 1.0919                 1.0965
 Frc consts  --      6.4759                 6.4660                 6.5226
 IR Inten    --     11.4427                 7.0017                 2.6099

 - Thermochemistry -
 -------------------
 Temperature   298.150 Kelvin.  Pressure   1.00000 Atm.
 Atom     1 has atomic number  6 and mass  12.00000

 Molecular mass:   194.03276 amu.
 Principal axes and moments of inertia in atomic units:
                           1         2         3
     Eigenvalues --   813.496833929.565164033.22577
           X            1.00000  -0.00000   0.00007
           Y            0.00000   1.00000  -0.00000
           Z           -0.00007   0.00000   1.00000
 This molecule is an asymmetric top.
 Rotational symmetry number  1.
 Warning -- assumption of classical behavior for rotation
           may cause significant error
 Rotational temperatures (Kelvin)      0.10647     0.02204     0.02148
 Rotational constants (GHZ):           2.21850     0.45927     0.44747
 Zero-point vibrational energy     363036.8 (Joules/Mol)
                                   86.76787 (Kcal/Mol)
 Warning -- explicit consideration of  10 degrees of freedom as
           vibrations may cause significant error
 Vibrational temperatures:     18.31    21.89   149.90   157.98   281.39
          (Kelvin)            300.48   409.69   610.41   646.70   682.18
                              923.81   943.60   990.49   993.72  1045.25
                             1048.16  1107.40  1179.76  1208.03  1216.95
                             1228.53  1238.11  1258.95  1269.62  1287.99
                             1381.52  1484.69  1488.72  1507.25  1548.31
                             1555.62  1581.56  1596.93  1616.52  1621.61
                             1626.51  1630.57  1651.79  1739.00  1747.65
                             1767.29  1779.25  1806.85  1859.45  2032.48
                             2038.32  2356.37  2356.59  4542.08  4547.69
                             4551.25  4558.26  4561.41  4571.63

 Zero-point correction=                           0.138273 (Hartree/Particle)
 Thermal correction to Energy=                    0.148481
 Thermal correction to Enthalpy=                  0.149425
 Thermal correction to Gibbs Free Energy=         0.098708
 Sum of electronic and zero-point Energies=           -718.376194
 Sum of electronic and thermal Energies=              -718.365986
 Sum of electronic and thermal Enthalpies=            -718.365042
 Sum of electronic and thermal Free Energies=         -718.415760

                     E (Thermal)             CV                S
                      KCal/Mol        Cal/Mol-Kelvin    Cal/Mol-Kelvin
 Total                   93.173             38.805            106.745
 Electronic               0.000              0.000              0.000
 Translational            0.889              2.981             41.694
 Rotational               0.889              2.981             30.934
 Vibrational             91.396             32.843             34.117
 Vibration     1          0.593              1.987              7.532
 Vibration     2          0.593              1.986              7.177
 Vibration     3          0.605              1.946              3.374
 Vibration     4          0.606              1.941              3.272
 Vibration     5          0.636              1.846              2.174
 Vibration     6          0.642              1.827              2.054
 Vibration     7          0.683              1.702              1.505
 Vibration     8          0.786              1.417              0.878
 Vibration     9          0.808              1.362              0.797
 Vibration    10          0.831              1.307              0.726

 Optimization completed.
    -- Stationary point found.
 Normal termination of Gaussian 09 at Wed Aug 25 01:37:01 2021.

 -----------------------------------------------------------------
 #P Geom=AllCheck Guess=TCheck SCRF=Check CCSD(T,E4T,FrzG4)/GTBas1
 -----------------------------------------------------------------

 Structure from the checkpoint file:  "/public/home/users/caep010/.cache/gau_scr/Gau-108469.chk"
 ------
 CEDZUG
 ------
 Charge =  0 Multiplicity = 1

 SCF Done:  E(RHF) =  -714.332897625     A.U. after   14 cycles
 E2 =    -0.2106145958D+01 EUMP2 =    -0.71643904358257D+03
 CCSD(T)
 CCSD(T)= -0.71655756805D+03
 \CCSD(T)=-716.5575681\RMSD=8.965e-09\PG=C01 [X(C8H6N2O4)]\\@
 Normal termination of Gaussian 09 at Wed Aug 25 03:45:56 2021.

 ---------------------------------------------------------
 #P Geom=AllCheck Guess=TCheck SCRF=Check MP4=FrzG4/GTBas2
 ---------------------------------------------------------

 Structure from the checkpoint file:  "/public/home/users/caep010/.cache/gau_scr/Gau-108469.chk"
 ------
 CEDZUG
 ------
 Charge =  0 Multiplicity = 1

 SCF Done:  E(RHF) =  -714.352715377     A.U. after   15 cycles
 E2 =    -0.2132882805D+01 EUMP2 =    -0.71648559818207D+03
 Normal termination of Gaussian 09 at Wed Aug 25 04:37:41 2021.

 ---------------------------------------------------------
 #P Geom=AllCheck Guess=TCheck SCRF=Check MP4=FrzG4/GTBas3
 ---------------------------------------------------------

 Structure from the checkpoint file:  "/public/home/users/caep010/.cache/gau_scr/Gau-108469.chk"
 ------
 CEDZUG
 ------
 Charge =  0 Multiplicity = 1

 SCF Done:  E(RHF) =  -714.403770014     A.U. after   12 cycles
 E2 =    -0.2517833329D+01 EUMP2 =    -0.71692160334273D+03
 Normal termination of Gaussian 09 at Wed Aug 25 10:31:26 2021.

 -----------------------------------------------------------
 #P Geom=AllCheck Guess=TCheck SCRF=Check MP2=Full/GTLargeXP
 -----------------------------------------------------------

 Structure from the checkpoint file:  "/public/home/users/caep010/.cache/gau_scr/Gau-108469.chk"
 ------
 CEDZUG
 ------
 Charge =  0 Multiplicity = 1

 SCF Done:  E(RHF) =  -714.577669482     A.U. after   13 cycles
 E2 =    -0.3283343000D+01 EUMP2 =    -0.71786101248193D+03
 Normal termination of Gaussian 09 at Wed Aug 25 10:44:48 2021.
 SCF Done:  E(RHF) =  -714.631967385     A.U. after   10 cycles
 Normal termination of Gaussian 09 at Wed Aug 25 10:54:50 2021.

                         Standard orientation:
 ---------------------------------------------------------------------
 Center     Atomic      Atomic             Coordinates (Angstroms)
 Number     Number       Type             X           Y           Z
 ---------------------------------------------------------------------
      1          6           0        0.447188   -1.094384   -0.643388
      2          6           0       -0.448170    1.141983    0.648732
      3          6           0        0.448166    1.141827   -0.649017
      4          6           0       -0.447175   -1.094230    0.643649
      5          1           0        0.826943    2.019530   -1.163110
      6          1           0       -0.839778   -1.973111    1.146619
      7          6           0        0.455929    0.019227    1.284628
      8          6           0       -0.455928    0.018909   -1.284638
      9          6           0        1.333132    0.035902   -0.011601
     10          6           0       -1.333129    0.035902    0.011577
     11          1           0        0.839800   -1.973388   -1.146139
     12          1           0       -0.826955    2.019806    1.162611
     13          1           0        0.852452    0.009137    2.295744
     14          1           0       -0.852455    0.008566   -2.295762
     15          7           0        2.799994   -0.009254    0.001453
     16          7           0       -2.799995   -0.009251   -0.001448
     17          8           0        3.407185    0.865189   -0.599549
     18          8           0       -3.407176    0.865184    0.599577
     19          8           0        3.300813   -0.940927    0.618467
     20          8           0       -3.300830   -0.940922   -0.618451
 ---------------------------------------------------------------------

 SCF Done:  E(RHF) =  -714.642868156     A.U. after    8 cycles

 The electronic state is 1-A.
 Alpha  occ. eigenvalues --  -20.61785 -20.61785 -20.61224 -20.61224 -15.86105
 Alpha  occ. eigenvalues --  -15.86105 -11.32776 -11.32776 -11.29165 -11.29118
 Alpha  occ. eigenvalues --  -11.29039 -11.29035 -11.28617 -11.28567  -1.61696
 Alpha  occ. eigenvalues --   -1.61680  -1.41289  -1.41287  -1.32082  -1.12122
 Alpha  occ. eigenvalues --   -1.04768  -1.04766  -1.04289  -0.92143  -0.83685
 Alpha  occ. eigenvalues --   -0.83565  -0.81974  -0.79130  -0.78610  -0.74134
 Alpha  occ. eigenvalues --   -0.74078  -0.73318  -0.73107  -0.68215  -0.64637
 Alpha  occ. eigenvalues --   -0.64534  -0.64494  -0.64142  -0.57630  -0.52374
 Alpha  occ. eigenvalues --   -0.51795  -0.51138  -0.46929  -0.46788  -0.46253
 Alpha  occ. eigenvalues --   -0.45715  -0.45684  -0.45534  -0.45213  -0.45081
 Alpha virt. eigenvalues --    0.02436   0.03136   0.03312   0.04524   0.05045
 Alpha virt. eigenvalues --    0.05060   0.05923   0.05946   0.06846   0.06957
 Alpha virt. eigenvalues --    0.07319   0.07422   0.08968   0.09105   0.09319

 Mulliken charges:
               1
     1  C   -0.194450
     2  C   -0.237084
     3  C   -0.237092
     4  C   -0.194447
     5  H    0.243546
     6  H    0.239584
     7  C   -0.207132
     8  C   -0.207141
     9  C    0.283615
    10  C    0.283609
    11  H    0.239585
    12  H    0.243547
    13  H    0.237030
    14  H    0.237032
    15  N    0.494435
    16  N    0.494434
    17  O   -0.414037
    18  O   -0.414040
    19  O   -0.445498
    20  O   -0.445495
 Sum of Mulliken charges =  -0.00000

 Dipole moment (field-independent basis, Debye):
    X=              0.0000    Y=              0.3125    Z=             -0.0001  Tot=              0.3125
 Quadrupole moment (field-independent basis, Debye-Ang):
   XX=           -116.3927   YY=            -77.4361   ZZ=            -73.7110
   XY=             -0.0001   XZ=             -0.2582   YZ=             -0.0000

 Normal termination of Gaussian 09 at Wed Aug 25 12:05:13 2021.
