 Gaussian 09, Revision E.01,
 Gaussian 09:  ES64L-G09RevE.01 30-Nov-2015

 ----------------
 #P G4 OPT=calcfc
 ----------------

 --------
 CASYIG01
 --------
 Symbolic Z-matrix:
 Charge =  0 Multiplicity = 1

 SCF Done:  E(RB3LYP) =  -826.076330617     A.U. after   15 cycles
 SCF Done:  E(RB3LYP) =  -826.185210769     A.U. after   16 cycles
 SCF Done:  E(RB3LYP) =  -826.205632783     A.U. after   16 cycles
 SCF Done:  E(RB3LYP) =  -826.188011692     A.U. after   16 cycles
 SCF Done:  E(RB3LYP) =  -826.218179388     A.U. after   13 cycles
 SCF Done:  E(RB3LYP) =  -826.224818486     A.U. after   14 cycles
 SCF Done:  E(RB3LYP) =  -826.229229659     A.U. after   16 cycles
 SCF Done:  E(RB3LYP) =  -826.229842376     A.U. after   14 cycles
 SCF Done:  E(RB3LYP) =  -826.230040603     A.U. after   14 cycles
 SCF Done:  E(RB3LYP) =  -826.229523219     A.U. after   16 cycles
 SCF Done:  E(RB3LYP) =  -826.231080014     A.U. after   10 cycles
 SCF Done:  E(RB3LYP) =  -826.231080220     A.U. after    8 cycles
 SCF Done:  E(RB3LYP) =  -826.231080251     A.U. after    7 cycles
 Optimization completed.
    -- Stationary point found.
 Normal termination of Gaussian 09 at Wed Aug 25 15:09:20 2021.

 ----------------------------------------------------------
 #P Geom=AllCheck Guess=TCheck SCRF=Check B3LYP/GTBas3 Freq
 ----------------------------------------------------------

 Structure from the checkpoint file:  "/public/home/users/caep010/.cache/gau_scr/Gau-42628.chk"
 --------
 CASYIG01
 --------
 Charge =  0 Multiplicity = 1

 SCF Done:  E(RB3LYP) =  -826.231080251     A.U. after    1 cycles

  Exact polarizability: 138.962  -0.001 104.995   0.000   2.331  58.805
 Approx polarizability: 227.160  -0.003 184.714   0.003   6.211  95.526

                      1                      2                      3
                      A                      A                      A
 Frequencies --     55.8687                58.7887                78.8336
 Red. masses --     11.7299                 6.8589                11.0412
 Frc consts  --      0.0216                 0.0140                 0.0404
 IR Inten    --      0.3572                 0.1466                 0.0783

                      4                      5                      6
                      A                      A                      A
 Frequencies --     84.5805               112.6461               184.6375
 Red. masses --     11.0346                 6.9350                 8.2308
 Frc consts  --      0.0465                 0.0518                 0.1653
 IR Inten    --      1.0604                 1.0194                 3.6104

                      7                      8                      9
                      A                      A                      A
 Frequencies --    211.3338               239.7835               256.4821
 Red. masses --      1.4669                 4.5887                 1.1466
 Frc consts  --      0.0386                 0.1554                 0.0444
 IR Inten    --     11.1359                 2.3734               213.2818

                     10                     11                     12
                      A                      A                      A
 Frequencies --    280.9031               347.0406               357.9563
 Red. masses --     10.8092                 6.8482                 7.0448
 Frc consts  --      0.5025                 0.4859                 0.5318
 IR Inten    --     11.2761                 4.1023                 1.4329

                     13                     14                     15
                      A                      A                      A
 Frequencies --    371.8950               424.3070               435.4556
 Red. masses --      3.1491                 7.5086                13.1595
 Frc consts  --      0.2566                 0.7965                 1.4702
 IR Inten    --      3.8192                 5.8462                 1.9476

                     16                     17                     18
                      A                      A                      A
 Frequencies --    461.5722               515.8730               564.2904
 Red. masses --     15.4382                 5.6748                 1.1232
 Frc consts  --      1.9379                 0.8898                 0.2107
 IR Inten    --      2.2709                 9.6292                 4.9944

                     19                     20                     21
                      A                      A                      A
 Frequencies --    624.5939               632.7670               707.6990
 Red. masses --      1.0536                 8.1825                10.8680
 Frc consts  --      0.2422                 1.9303                 3.2070
 IR Inten    --    182.5108                91.4701                 5.2441

                     22                     23                     24
                      A                      A                      A
 Frequencies --    749.9616               778.6674               791.1902
 Red. masses --     12.6950                11.7747                 8.8415
 Frc consts  --      4.2069                 4.2063                 3.2609
 IR Inten    --      0.8093                23.7964                27.8641

                     25                     26                     27
                      A                      A                      A
 Frequencies --    819.2167               836.0698               911.3604
 Red. masses --      7.5343                 6.2116                 4.6298
 Frc consts  --      2.9792                 2.5582                 2.2657
 IR Inten    --     12.2277                 7.0785                 1.0565

                     28                     29                     30
                      A                      A                      A
 Frequencies --    958.2725              1014.0003              1055.4596
 Red. masses --      3.9172                 2.3358                 2.2936
 Frc consts  --      2.1194                 1.4150                 1.5054
 IR Inten    --    141.9392                 2.8331                35.4134

                     31                     32                     33
                      A                      A                      A
 Frequencies --   1078.4035              1079.8184              1129.3334
 Red. masses --      2.9967                 7.0973                 2.7841
 Frc consts  --      2.0533                 4.8758                 2.0921
 IR Inten    --     37.8174               276.1793                 3.8634

                     34                     35                     36
                      A                      A                      A
 Frequencies --   1134.4988              1207.9558              1231.1959
 Red. masses --      6.7391                 1.1263                 1.3548
 Frc consts  --      5.1105                 0.9683                 1.2100
 IR Inten    --     37.7963                37.3669                23.1648

                     37                     38                     39
                      A                      A                      A
 Frequencies --   1262.4993              1299.8959              1303.9205
 Red. masses --      3.7424                 3.1216                 1.6355
 Frc consts  --      3.5145                 3.1078                 1.6383
 IR Inten    --    430.1226                88.2811                57.8694

                     40                     41                     42
                      A                      A                      A
 Frequencies --   1351.7965              1376.8154              1395.0664
 Red. masses --      2.0955                 1.9398                 2.2009
 Frc consts  --      2.2561                 2.1665                 2.5237
 IR Inten    --    207.0318               150.9969                36.3488

                     43                     44                     45
                      A                      A                      A
 Frequencies --   1404.7791              1471.3278              1523.1412
 Red. masses --      1.4106                 1.8712                 5.4875
 Frc consts  --      1.6401                 2.3867                 7.5008
 IR Inten    --      5.3011                 9.3528                82.2684

                     46                     47                     48
                      A                      A                      A
 Frequencies --   1588.1072              1631.2145              1636.1923
 Red. masses --      9.5276                 4.3149                13.1625
 Frc consts  --     14.1577                 6.7647                20.7614
 IR Inten    --    118.7041               304.1644               931.0259

                     49                     50                     51
                      A                      A                      A
 Frequencies --   3072.3724              3072.8582              3561.1001
 Red. masses --      1.0862                 1.0873                 1.0767
 Frc consts  --      6.0410                 6.0491                 8.0446
 IR Inten    --     24.1426                24.0540               202.0945

                     52                     53                     54
                      A                      A                      A
 Frequencies --   3569.5231              3821.5836              3822.6492
 Red. masses --      1.0821                 1.0665                 1.0666
 Frc consts  --      8.1235                 9.1774                 9.1826
 IR Inten    --    129.3031                32.3270                75.5533

 - Thermochemistry -
 -------------------
 Temperature   298.150 Kelvin.  Pressure   1.00000 Atm.
 Atom     1 has atomic number  8 and mass  15.99491

 Molecular mass:   206.02873 amu.
 Principal axes and moments of inertia in atomic units:
                           1         2         3
     Eigenvalues --  1547.377713642.128134635.88900
           X            1.00000  -0.00000   0.00000
           Y            0.00000   0.99994  -0.01074
           Z           -0.00000   0.01074   0.99994
 This molecule is an asymmetric top.
 Rotational symmetry number  1.
 Warning -- assumption of classical behavior for rotation
           may cause significant error
 Rotational temperatures (Kelvin)      0.05597     0.02378     0.01868
 Rotational constants (GHZ):           1.16632     0.49552     0.38930
 Zero-point vibrational energy     358566.0 (Joules/Mol)
                                   85.69933 (Kcal/Mol)
 Warning -- explicit consideration of  18 degrees of freedom as
           vibrations may cause significant error
 Vibrational temperatures:     80.38    84.58   113.42   121.69   162.07
          (Kelvin)            265.65   304.06   344.99   369.02   404.16
                              499.31   515.02   535.07   610.48   626.52
                              664.10   742.23   811.89   898.65   910.41
                             1018.22  1079.03  1120.33  1138.34  1178.67
                             1202.92  1311.24  1378.74  1458.92  1518.57
                             1551.58  1553.62  1624.86  1632.29  1737.98
                             1771.41  1816.45  1870.26  1876.05  1944.93
                             1980.93  2007.19  2021.16  2116.91  2191.46
                             2284.93  2346.95  2354.11  4420.45  4421.15
                             5123.62  5135.74  5498.40  5499.93

 Zero-point correction=                           0.136571 (Hartree/Particle)
 Thermal correction to Energy=                    0.149286
 Thermal correction to Enthalpy=                  0.150230
 Thermal correction to Gibbs Free Energy=         0.096558
 Sum of electronic and zero-point Energies=           -826.094510
 Sum of electronic and thermal Energies=              -826.081794
 Sum of electronic and thermal Enthalpies=            -826.080850
 Sum of electronic and thermal Free Energies=         -826.134522

                     E (Thermal)             CV                S
                      KCal/Mol        Cal/Mol-Kelvin    Cal/Mol-Kelvin
 Total                   93.678             46.190            112.962
 Electronic               0.000              0.000              0.000
 Translational            0.889              2.981             41.873
 Rotational               0.889              2.981             31.636
 Vibrational             91.901             40.229             39.454
 Vibration     1          0.596              1.975              4.598
 Vibration     2          0.596              1.974              4.497
 Vibration     3          0.600              1.963              3.920
 Vibration     4          0.601              1.960              3.782
 Vibration     5          0.607              1.939              3.223
 Vibration     6          0.631              1.861              2.281
 Vibration     7          0.643              1.824              2.032
 Vibration     8          0.657              1.780              1.804
 Vibration     9          0.666              1.752              1.686
 Vibration    10          0.681              1.709              1.528
 Vibration    11          0.725              1.581              1.180
 Vibration    12          0.733              1.559              1.131
 Vibration    13          0.744              1.530              1.072
 Vibration    14          0.786              1.417              0.877
 Vibration    15          0.796              1.393              0.841
 Vibration    16          0.819              1.335              0.762
 Vibration    17          0.871              1.215              0.620
 Vibration    18          0.920              1.109              0.515

 Optimization completed.
    -- Stationary point found.
 Normal termination of Gaussian 09 at Wed Aug 25 15:12:51 2021.

 -----------------------------------------------------------------
 #P Geom=AllCheck Guess=TCheck SCRF=Check CCSD(T,E4T,FrzG4)/GTBas1
 -----------------------------------------------------------------

 Structure from the checkpoint file:  "/public/home/users/caep010/.cache/gau_scr/Gau-42628.chk"
 --------
 CASYIG01
 --------
 Charge =  0 Multiplicity = 1

 SCF Done:  E(RHF) =  -821.646554399     A.U. after   15 cycles
 E2 =    -0.2272304540D+01 EUMP2 =    -0.82391885893956D+03
 CCSD(T)
 CCSD(T)= -0.82402402257D+03
 =-823.9346644\CCSD(T)=-824.0240226\RMSD=6.209e-09\PG=C01 [X(C4H6N4O6)]
 Normal termination of Gaussian 09 at Wed Aug 25 17:46:13 2021.

 ---------------------------------------------------------
 #P Geom=AllCheck Guess=TCheck SCRF=Check MP4=FrzG4/GTBas2
 ---------------------------------------------------------

 Structure from the checkpoint file:  "/public/home/users/caep010/.cache/gau_scr/Gau-42628.chk"
 --------
 CASYIG01
 --------
 Charge =  0 Multiplicity = 1

 SCF Done:  E(RHF) =  -821.673499694     A.U. after   15 cycles
 E2 =    -0.2309917849D+01 EUMP2 =    -0.82398341754293D+03
 Normal termination of Gaussian 09 at Wed Aug 25 19:01:31 2021.

 ---------------------------------------------------------
 #P Geom=AllCheck Guess=TCheck SCRF=Check MP4=FrzG4/GTBas3
 ---------------------------------------------------------

 Structure from the checkpoint file:  "/public/home/users/caep010/.cache/gau_scr/Gau-42628.chk"
 --------
 CASYIG01
 --------
 Charge =  0 Multiplicity = 1

 SCF Done:  E(RHF) =  -821.742511375     A.U. after   13 cycles
 E2 =    -0.2734604526D+01 EUMP2 =    -0.82447711590159D+03
 Normal termination of Gaussian 09 at Thu Aug 26 04:04:19 2021.

 -----------------------------------------------------------
 #P Geom=AllCheck Guess=TCheck SCRF=Check MP2=Full/GTLargeXP
 -----------------------------------------------------------

 Structure from the checkpoint file:  "/public/home/users/caep010/.cache/gau_scr/Gau-42628.chk"
 --------
 CASYIG01
 --------
 Charge =  0 Multiplicity = 1

 SCF Done:  E(RHF) =  -821.965134770     A.U. after   16 cycles
 E2 =    -0.3548005545D+01 EUMP2 =    -0.82551314031455D+03
 Normal termination of Gaussian 09 at Thu Aug 26 04:22:10 2021.
 SCF Done:  E(RHF) =  -822.031363272     A.U. after   11 cycles
 Normal termination of Gaussian 09 at Thu Aug 26 04:30:41 2021.

                         Standard orientation:
 ---------------------------------------------------------------------
 Center     Atomic      Atomic             Coordinates (Angstroms)
 Number     Number       Type             X           Y           Z
 ---------------------------------------------------------------------
      1          8           0        2.866585   -1.144908    1.312444
      2          1           0        2.962754   -2.102473    1.345534
      3          6           0        2.413858   -0.771613    0.036065
      4          1           0        3.035926   -1.190856   -0.760621
      5          7           0        1.012714   -1.078999   -0.194048
      6          1           0        0.572604   -1.990366   -0.211153
      7          6           0        0.230760    0.000006   -0.000069
      8          6           0       -1.179131    0.000016   -0.000022
      9          7           0        1.012706    1.078998    0.193830
     10          7           0       -1.908538   -1.198014   -0.290347
     11          8           0       -1.281870   -2.276703   -0.226447
     12          1           0        0.572530    1.990390    0.211218
     13          7           0       -1.908487    1.198050    0.290362
     14          8           0       -3.077248    1.134525    0.623859
     15          8           0       -1.281743    2.276714    0.226734
     16          6           0        2.413881    0.771584   -0.036045
     17          8           0        2.866839    1.144828   -1.312350
     18          1           0        2.962830    2.102342   -1.345518
     19          1           0        3.035832    1.190828    0.760743
     20          8           0       -3.077242   -1.134463   -0.624034
 ---------------------------------------------------------------------

 SCF Done:  E(RHF) =  -822.044951969     A.U. after    9 cycles

 The electronic state is 1-A.
 Alpha  occ. eigenvalues --  -20.60958 -20.60957 -20.60630 -20.60629 -20.59272
 Alpha  occ. eigenvalues --  -20.59272 -15.86711 -15.86710 -15.62905 -15.62902
 Alpha  occ. eigenvalues --  -11.41449 -11.37523 -11.37462 -11.34078  -1.61683
 Alpha  occ. eigenvalues --   -1.59858  -1.45021  -1.41942  -1.40211  -1.39264
 Alpha  occ. eigenvalues --   -1.36336  -1.23136  -1.17499  -1.05309  -0.99779
 Alpha  occ. eigenvalues --   -0.91900  -0.89971  -0.87079  -0.79944  -0.79631
 Alpha  occ. eigenvalues --   -0.78563  -0.74741  -0.74718  -0.72761  -0.71885
 Alpha  occ. eigenvalues --   -0.70868  -0.69951  -0.69451  -0.68693  -0.65301
 Alpha  occ. eigenvalues --   -0.63968  -0.57207  -0.55829  -0.53512  -0.53223
 Alpha  occ. eigenvalues --   -0.51744  -0.50674  -0.49453  -0.48726  -0.46529
 Alpha  occ. eigenvalues --   -0.45907  -0.44516  -0.38732
 Alpha virt. eigenvalues --    0.01870   0.02086   0.03807   0.04519   0.05280
 Alpha virt. eigenvalues --    0.05854   0.05954   0.06335   0.06335   0.07361
 Alpha virt. eigenvalues --    0.07607   0.08489   0.09610   0.09868   0.10111

 Mulliken charges:
               1
     1  O   -0.553081
     2  H    0.379628
     3  C    0.101086
     4  H    0.224861
     5  N   -0.458408
     6  H    0.406004
     7  C    0.521377
     8  C   -0.006456
     9  N   -0.458410
    10  N    0.509930
    11  O   -0.493857
    12  H    0.406055
    13  N    0.509950
    14  O   -0.373647
    15  O   -0.493877
    16  C    0.101083
    17  O   -0.553088
    18  H    0.379636
    19  H    0.224851
    20  O   -0.373635
 Sum of Mulliken charges =  -0.00000

 Dipole moment (field-independent basis, Debye):
    X=              8.4644    Y=             -0.0000    Z=              0.0001  Tot=              8.4644
 Quadrupole moment (field-independent basis, Debye-Ang):
   XX=            -89.4476   YY=            -76.4571   ZZ=            -82.6138
   XY=             -0.0007   XZ=              0.0006   YZ=             -4.1878

 Normal termination of Gaussian 09 at Thu Aug 26 05:29:25 2021.
