 Gaussian 09, Revision E.01,
 Gaussian 09:  ES64L-G09RevE.01 30-Nov-2015

 ----------------
 #P G4 OPT=calcfc
 ----------------

 ------
 CUZDEG
 ------
 Symbolic Z-matrix:
 Charge =  0 Multiplicity = 1

 SCF Done:  E(RB3LYP) =  -696.600105044     A.U. after   15 cycles
 SCF Done:  E(RB3LYP) =  -696.653733963     A.U. after   13 cycles
 SCF Done:  E(RB3LYP) =  -696.664003156     A.U. after   15 cycles
 SCF Done:  E(RB3LYP) =  -696.664727240     A.U. after   13 cycles
 SCF Done:  E(RB3LYP) =  -696.664774954     A.U. after   13 cycles
 SCF Done:  E(RB3LYP) =  -696.664783248     A.U. after   10 cycles
 SCF Done:  E(RB3LYP) =  -696.664786528     A.U. after   10 cycles
 SCF Done:  E(RB3LYP) =  -696.664787092     A.U. after    9 cycles
 Optimization completed.
    -- Stationary point found.
 Normal termination of Gaussian 09 at Fri Aug 27 01:49:57 2021.

 ----------------------------------------------------------
 #P Geom=AllCheck Guess=TCheck SCRF=Check B3LYP/GTBas3 Freq
 ----------------------------------------------------------

 Structure from the checkpoint file:  "/public/home/users/caep010/.cache/gau_scr/Gau-68329.chk"
 ------
 CUZDEG
 ------
 Charge =  0 Multiplicity = 1

 SCF Done:  E(RB3LYP) =  -696.664787092     A.U. after    1 cycles

  Exact polarizability: 152.454   0.000 125.557  -0.002  -0.002  42.197
 Approx polarizability: 263.385   0.001 259.636  -0.008  -0.020  70.674

                      1                      2                      3
                      A                      A                      A
 Frequencies --     55.3268                57.0317                95.4693
 Red. masses --     11.2142                14.8698                10.1276
 Frc consts  --      0.0202                 0.0285                 0.0544
 IR Inten    --      3.7135                 0.0003                 0.9362

                      4                      5                      6
                      A                      A                      A
 Frequencies --    195.2308               234.7013               266.1820
 Red. masses --      4.7562                12.0709                 5.5973
 Frc consts  --      0.1068                 0.3918                 0.2337
 IR Inten    --      0.0000                 8.1415                 0.0171

                      7                      8                      9
                      A                      A                      A
 Frequencies --    341.9810               350.0062               415.8522
 Red. masses --     12.7571                 9.3912                 4.1300
 Frc consts  --      0.8790                 0.6778                 0.4208
 IR Inten    --      0.1318                 0.4801                 5.9648

                     10                     11                     12
                      A                      A                      A
 Frequencies --    437.3991               461.0128               485.5877
 Red. masses --      6.4314                 4.9051                11.8074
 Frc consts  --      0.7250                 0.6142                 1.6404
 IR Inten    --      0.1794                 0.0001                 4.6254

                     13                     14                     15
                      A                      A                      A
 Frequencies --    492.0466               550.5520               607.7616
 Red. masses --      1.1264                 3.4928                 7.9095
 Frc consts  --      0.1607                 0.6238                 1.7213
 IR Inten    --    166.5294                 1.8207                 3.3084

                     16                     17                     18
                      A                      A                      A
 Frequencies --    618.2243               711.9437               721.3844
 Red. masses --      4.3507                10.5325                 1.0588
 Frc consts  --      0.9797                 3.1454                 0.3247
 IR Inten    --     11.5202                 0.3914                 0.0011

                     19                     20                     21
                      A                      A                      A
 Frequencies --    725.6248               766.3933               787.8140
 Red. masses --      8.5144                 1.8809                 8.2626
 Frc consts  --      2.6414                 0.6509                 3.0215
 IR Inten    --     14.3240                52.2057                 0.0000

                     22                     23                     24
                      A                      A                      A
 Frequencies --    834.2587               840.8270               875.0310
 Red. masses --      7.3381                 2.5701                 7.4282
 Frc consts  --      3.0091                 1.0706                 3.3511
 IR Inten    --      0.5856                 0.7759                 7.6365

                     25                     26                     27
                      A                      A                      A
 Frequencies --    913.1803               985.2220               993.4339
 Red. masses --      5.6382                 1.3300                 1.3831
 Frc consts  --      2.7702                 0.7606                 0.8042
 IR Inten    --     85.6603                 0.7710                 0.0001

                     28                     29                     30
                      A                      A                      A
 Frequencies --   1080.1278              1115.5911              1140.4380
 Red. masses --      1.9029                 1.6480                10.2817
 Frc consts  --      1.3080                 1.2084                 7.8788
 IR Inten    --     42.7681                27.7942                 0.0222

                     31                     32                     33
                      A                      A                      A
 Frequencies --   1186.8006              1280.1199              1321.3546
 Red. masses --      1.2004                 1.6415                 4.0810
 Frc consts  --      0.9962                 1.5848                 4.1981
 IR Inten    --      6.0305                 0.2876               104.2470

                     34                     35                     36
                      A                      A                      A
 Frequencies --   1321.9767              1367.5814              1401.8301
 Red. masses --      9.1333                 3.6071                 6.6076
 Frc consts  --      9.4043                 3.9748                 7.6504
 IR Inten    --    801.9405                16.0440               133.0477

                     37                     38                     39
                      A                      A                      A
 Frequencies --   1477.8643              1480.6537              1568.4543
 Red. masses --      2.3233                 2.5992                 3.9796
 Frc consts  --      2.9897                 3.3574                 5.7681
 IR Inten    --      7.0116                50.4776               258.0015

                     40                     41                     42
                      A                      A                      A
 Frequencies --   1587.3019              1609.3704              1618.5397
 Red. masses --      5.9657                10.4513                 2.6411
 Frc consts  --      8.8559                15.9490                 4.0764
 IR Inten    --     47.2032               162.2052                 0.0176

                     43                     44                     45
                      A                      A                      A
 Frequencies --   1679.6234              3214.9770              3239.1973
 Red. masses --      9.4847                 1.0886                 1.0900
 Frc consts  --     15.7651                 6.6296                 6.7380
 IR Inten    --    339.5698                 2.1429                 9.3688

                     46                     47                     48
                      A                      A                      A
 Frequencies --   3241.6826              3523.6296              3659.8640
 Red. masses --      1.0944                 1.0422                 1.1084
 Frc consts  --      6.7760                 7.6239                 8.7471
 IR Inten    --      0.0637                89.9199               244.4633

 - Thermochemistry -
 -------------------
 Temperature   298.150 Kelvin.  Pressure   1.00000 Atm.
 Atom     1 has atomic number  8 and mass  15.99491

 Molecular mass:   183.02801 amu.
 Principal axes and moments of inertia in atomic units:
                           1         2         3
     Eigenvalues --  1096.570813101.594734198.16534
           X            1.00000  -0.00000   0.00000
           Y            0.00000   1.00000   0.00001
           Z           -0.00000  -0.00001   1.00000
 This molecule is an asymmetric top.
 Rotational symmetry number  1.
 Warning -- assumption of classical behavior for rotation
           may cause significant error
 Rotational temperatures (Kelvin)      0.07899     0.02793     0.02063
 Rotational constants (GHZ):           1.64580     0.58188     0.42989
 Zero-point vibrational energy     322611.7 (Joules/Mol)
                                   77.10604 (Kcal/Mol)
 Warning -- explicit consideration of  16 degrees of freedom as
           vibrations may cause significant error
 Vibrational temperatures:     79.60    82.06   137.36   280.89   337.68
          (Kelvin)            382.98   492.03   503.58   598.32   629.32
                              663.29   698.65   707.94   792.12   874.43
                              889.49  1024.33  1037.91  1044.01  1102.67
                             1133.49  1200.31  1209.76  1258.97  1313.86
                             1417.51  1429.33  1554.06  1605.08  1640.83
                             1707.54  1841.80  1901.13  1902.03  1967.64
                             2016.92  2126.31  2130.33  2256.65  2283.77
                             2315.52  2328.71  2416.60  4625.63  4660.48
                             4664.05  5069.71  5265.72

 Zero-point correction=                           0.122876 (Hartree/Particle)
 Thermal correction to Energy=                    0.133126
 Thermal correction to Enthalpy=                  0.134070
 Thermal correction to Gibbs Free Energy=         0.086030
 Sum of electronic and zero-point Energies=           -696.541911
 Sum of electronic and thermal Energies=              -696.531661
 Sum of electronic and thermal Enthalpies=            -696.530717
 Sum of electronic and thermal Free Energies=         -696.578757

                     E (Thermal)             CV                S
                      KCal/Mol        Cal/Mol-Kelvin    Cal/Mol-Kelvin
 Total                   83.538             39.087            101.109
 Electronic               0.000              0.000              0.000
 Translational            0.889              2.981             41.520
 Rotational               0.889              2.981             31.035
 Vibrational             81.760             33.126             28.554
 Vibration     1          0.596              1.975              4.617
 Vibration     2          0.596              1.975              4.557
 Vibration     3          0.603              1.952              3.545
 Vibration     4          0.636              1.847              2.178
 Vibration     5          0.655              1.788              1.843
 Vibration     6          0.672              1.735              1.621
 Vibration     7          0.721              1.592              1.203
 Vibration     8          0.727              1.575              1.166
 Vibration     9          0.779              1.436              0.906
 Vibration    10          0.798              1.389              0.835
 Vibration    11          0.819              1.337              0.763
 Vibration    12          0.842              1.282              0.695
 Vibration    13          0.848              1.268              0.678
 Vibration    14          0.906              1.138              0.543
 Vibration    15          0.967              1.015              0.437
 Vibration    16          0.978              0.993              0.419

 Normal termination of Gaussian 09 at Fri Aug 27 01:52:46 2021.

 -----------------------------------------------------------------
 #P Geom=AllCheck Guess=TCheck SCRF=Check CCSD(T,E4T,FrzG4)/GTBas1
 -----------------------------------------------------------------

 Structure from the checkpoint file:  "/public/home/users/caep010/.cache/gau_scr/Gau-68329.chk"
 ------
 CUZDEG
 ------
 Charge =  0 Multiplicity = 1

 SCF Done:  E(RHF) =  -692.661589199     A.U. after   14 cycles
 E2 =    -0.2004530750D+01 EUMP2 =    -0.69466611994853D+03
 CCSD(T)
 CCSD(T)= -0.69476818752D+03
 2\MP4SDQ=-694.6826384\CCSD=-694.6755566\CCSD(T)=-694.7681875\RMSD=6.99
 Normal termination of Gaussian 09 at Fri Aug 27 03:14:32 2021.

 ---------------------------------------------------------
 #P Geom=AllCheck Guess=TCheck SCRF=Check MP4=FrzG4/GTBas2
 ---------------------------------------------------------

 Structure from the checkpoint file:  "/public/home/users/caep010/.cache/gau_scr/Gau-68329.chk"
 ------
 CUZDEG
 ------
 Charge =  0 Multiplicity = 1

 SCF Done:  E(RHF) =  -692.682129356     A.U. after   22 cycles
 E2 =    -0.2030948405D+01 EUMP2 =    -0.69471307776079D+03
 Normal termination of Gaussian 09 at Fri Aug 27 03:43:15 2021.

 ---------------------------------------------------------
 #P Geom=AllCheck Guess=TCheck SCRF=Check MP4=FrzG4/GTBas3
 ---------------------------------------------------------

 Structure from the checkpoint file:  "/public/home/users/caep010/.cache/gau_scr/Gau-68329.chk"
 ------
 CUZDEG
 ------
 Charge =  0 Multiplicity = 1

 SCF Done:  E(RHF) =  -692.734601996     A.U. after   13 cycles
 E2 =    -0.2389422867D+01 EUMP2 =    -0.69512402486314D+03
 Normal termination of Gaussian 09 at Fri Aug 27 08:23:43 2021.

 -----------------------------------------------------------
 #P Geom=AllCheck Guess=TCheck SCRF=Check MP2=Full/GTLargeXP
 -----------------------------------------------------------

 Structure from the checkpoint file:  "/public/home/users/caep010/.cache/gau_scr/Gau-68329.chk"
 ------
 CUZDEG
 ------
 Charge =  0 Multiplicity = 1

 SCF Done:  E(RHF) =  -692.909815929     A.U. after   14 cycles
 E2 =    -0.3114875530D+01 EUMP2 =    -0.69602469145850D+03
 Normal termination of Gaussian 09 at Fri Aug 27 09:30:01 2021.
 SCF Done:  E(RHF) =  -692.965892523     A.U. after   10 cycles
 Normal termination of Gaussian 09 at Fri Aug 27 09:36:49 2021.

                         Standard orientation:
 ---------------------------------------------------------------------
 Center     Atomic      Atomic             Coordinates (Angstroms)
 Number     Number       Type             X           Y           Z
 ---------------------------------------------------------------------
      1          8           0        2.600977   -1.592673    0.000525
      2          7           0        2.523338   -0.357271   -0.000136
      3          8           0        3.508784    0.367313   -0.000965
      4          6           0        1.205885    0.270863    0.000126
      5          6           0        0.000020   -0.507690    0.000180
      6          7           0        0.000069   -1.842656    0.000362
      7          6           0       -1.205877    0.270825    0.000072
      8          7           0       -2.523344   -0.357265   -0.000176
      9          8           0       -2.601082   -1.592678   -0.000260
     10          8           0       -3.508777    0.367332   -0.000314
     11          6           0        1.192450    1.660952    0.000238
     12          6           0       -0.000004    2.367845    0.000333
     13          6           0       -1.192428    1.660937    0.000190
     14          1           0        2.148761    2.165886    0.000220
     15          1           0       -0.000016    3.450027    0.000474
     16          1           0       -2.148792    2.165871    0.000156
     17          1           0        0.894902   -2.309144    0.000242
     18          1           0       -0.894786   -2.309045   -0.000162
 ---------------------------------------------------------------------

 SCF Done:  E(RHF) =  -692.976773038     A.U. after    7 cycles

 The electronic state is 1-A.
 Alpha  occ. eigenvalues --  -20.61516 -20.61516 -20.61378 -20.61377 -15.87319
 Alpha  occ. eigenvalues --  -15.87318 -15.60425 -11.37484 -11.32438 -11.32436
 Alpha  occ. eigenvalues --  -11.30739 -11.30737 -11.26767  -1.61983  -1.61952
 Alpha  occ. eigenvalues --   -1.41231  -1.41138  -1.29390  -1.20326  -1.14306
 Alpha  occ. eigenvalues --   -1.08414  -0.97991  -0.97990  -0.87654  -0.86439
 Alpha  occ. eigenvalues --   -0.80190  -0.76892  -0.75636  -0.74882  -0.74383
 Alpha  occ. eigenvalues --   -0.74063  -0.73700  -0.73499  -0.67850  -0.64947
 Alpha  occ. eigenvalues --   -0.59451  -0.58862  -0.58860  -0.52163  -0.51713
 Alpha  occ. eigenvalues --   -0.50996  -0.50435  -0.49986  -0.47612  -0.46995
 Alpha  occ. eigenvalues --   -0.41391  -0.34530
 Alpha virt. eigenvalues --    0.00478   0.02845   0.04363   0.04369   0.04683
 Alpha virt. eigenvalues --    0.05660   0.06079   0.06335   0.07238   0.07458
 Alpha virt. eigenvalues --    0.08121   0.08694   0.08699   0.09147   0.09541

 Mulliken charges:
               1
     1  O   -0.450955
     2  N    0.498421
     3  O   -0.435439
     4  C    0.089148
     5  C    0.384523
     6  N   -0.820774
     7  C    0.089136
     8  N    0.498414
     9  O   -0.450970
    10  O   -0.435431
    11  C   -0.159768
    12  C   -0.217021
    13  C   -0.159781
    14  H    0.266986
    15  H    0.235220
    16  H    0.266986
    17  H    0.400663
    18  H    0.400641
 Sum of Mulliken charges =  -0.00000

 Dipole moment (field-independent basis, Debye):
    X=              0.0005    Y=              2.6045    Z=              0.0006  Tot=              2.6045
 Quadrupole moment (field-independent basis, Debye-Ang):
   XX=           -100.9863   YY=            -65.7879   ZZ=            -74.3176
   XY=             -0.0010   XZ=              0.0014   YZ=              0.0047

 CCSD(T)/G3Bas1=-694.7681875\MP2/GTBas2=-694.7130778\MP4/GTBas2=-694.84
 Normal termination of Gaussian 09 at Fri Aug 27 10:17:56 2021.
