 Gaussian 09, Revision E.01,
 Gaussian 09:  ES64L-G09RevE.01 30-Nov-2015

 ----------------
 #P G4 OPT=calcfc
 ----------------

 --------
 CASBOQ01
 --------
 Symbolic Z-matrix:
 Charge =  0 Multiplicity = 1

 SCF Done:  E(RB3LYP) =  -687.734663883     A.U. after   16 cycles
 SCF Done:  E(RB3LYP) =  -687.782420848     A.U. after   13 cycles
 SCF Done:  E(RB3LYP) =  -687.787695575     A.U. after   16 cycles
 SCF Done:  E(RB3LYP) =  -687.788355685     A.U. after   14 cycles
 SCF Done:  E(RB3LYP) =  -687.788404397     A.U. after   13 cycles
 SCF Done:  E(RB3LYP) =  -687.788410319     A.U. after   10 cycles
 SCF Done:  E(RB3LYP) =  -687.788411526     A.U. after    8 cycles
 Optimization completed.
    -- Stationary point found.
 Normal termination of Gaussian 09 at Wed Aug 25 14:14:30 2021.

 ----------------------------------------------------------
 #P Geom=AllCheck Guess=TCheck SCRF=Check B3LYP/GTBas3 Freq
 ----------------------------------------------------------

 Structure from the checkpoint file:  "/public/home/users/caep010/.cache/gau_scr/Gau-45771.chk"
 --------
 CASBOQ01
 --------
 Charge =  0 Multiplicity = 1

 SCF Done:  E(RB3LYP) =  -687.788411526     A.U. after    1 cycles

  Exact polarizability: 127.049   7.435 100.470   1.294  -4.004  48.500
 Approx polarizability: 220.244  16.973 183.017   1.733 -11.109  84.924

                      1                      2                      3
                      A                      A                      A
 Frequencies --     47.8836                64.1039               116.1646
 Red. masses --      8.9459                10.8356                10.0622
 Frc consts  --      0.0121                 0.0262                 0.0800
 IR Inten    --      4.7940                 1.8235                 0.9261

                      4                      5                      6
                      A                      A                      A
 Frequencies --    154.3991               205.8636               211.4713
 Red. masses --      7.1355                 9.1152                 8.6704
 Frc consts  --      0.1002                 0.2276                 0.2285
 IR Inten    --      2.8244                 5.7053                 0.3055

                      7                      8                      9
                      A                      A                      A
 Frequencies --    351.9630               383.9014               395.5666
 Red. masses --     10.5778                 8.4489                 7.7301
 Frc consts  --      0.7720                 0.7337                 0.7126
 IR Inten    --      4.2133                 2.6105                 6.5277

                     10                     11                     12
                      A                      A                      A
 Frequencies --    504.1788               586.6184               606.3843
 Red. masses --      9.2700                 2.4972                 6.6936
 Frc consts  --      1.3884                 0.5063                 1.4501
 IR Inten    --      0.0207                37.4362                 9.7069

                     13                     14                     15
                      A                      A                      A
 Frequencies --    664.7018               675.4127               721.8907
 Red. masses --      1.8686                 3.1003                 7.5571
 Frc consts  --      0.4864                 0.8333                 2.3203
 IR Inten    --     41.3273                 4.9785                10.1336

                     16                     17                     18
                      A                      A                      A
 Frequencies --    725.3954               780.8455               837.0107
 Red. masses --     13.0802                 4.5247                11.2889
 Frc consts  --      4.0552                 1.6254                 4.6598
 IR Inten    --      2.5519                22.3885                40.5060

                     19                     20                     21
                      A                      A                      A
 Frequencies --    866.3061               883.0372               939.7806
 Red. masses --      1.6425                 1.4029                 5.7047
 Frc consts  --      0.7263                 0.6445                 2.9685
 IR Inten    --      3.8342                16.2904                 1.8110

                     22                     23                     24
                      A                      A                      A
 Frequencies --    965.3668              1004.2608              1022.1763
 Red. masses --      5.6701                 9.8716                 8.8331
 Frc consts  --      3.1133                 5.8659                 5.4377
 IR Inten    --     12.8303                61.5136                 1.5126

                     25                     26                     27
                      A                      A                      A
 Frequencies --   1082.5642              1101.5593              1169.1964
 Red. masses --      1.9971                 6.9466                 3.0782
 Frc consts  --      1.3790                 4.9664                 2.4792
 IR Inten    --     24.1843                35.0883                25.9388

                     28                     29                     30
                      A                      A                      A
 Frequencies --   1195.0049              1238.7219              1308.3466
 Red. masses --      2.1489                 2.8152                 2.8502
 Frc consts  --      1.8081                 2.5451                 2.8745
 IR Inten    --     15.3534                32.9756                13.3580

                     31                     32                     33
                      A                      A                      A
 Frequencies --   1349.7765              1377.0893              1424.9009
 Red. masses --      7.4223                 7.4208                10.0509
 Frc consts  --      7.9673                 8.2914                12.0234
 IR Inten    --      5.7800                87.2477               186.4840

                     34                     35                     36
                      A                      A                      A
 Frequencies --   1426.8938              1499.0731              1502.8839
 Red. masses --      9.3562                 4.6951                 3.1179
 Frc consts  --     11.2236                 6.2165                 4.1492
 IR Inten    --      9.6794                 9.3836                21.5786

                     37                     38                     39
                      A                      A                      A
 Frequencies --   1551.8671              1584.6761              1632.2575
 Red. masses --      4.9393                 7.9535                11.9209
 Frc consts  --      7.0085                11.7676                18.7126
 IR Inten    --     72.2932                22.1077               378.7748

                     40                     41                     42
                      A                      A                      A
 Frequencies --   3292.5451              3323.5392              3659.2230
 Red. masses --      1.1002                 1.1003                 1.0823
 Frc consts  --      7.0276                 7.1611                 8.5380
 IR Inten    --     12.2096                 6.0454               156.4531

 - Thermochemistry -
 -------------------
 Temperature   298.150 Kelvin.  Pressure   1.00000 Atm.
 Atom     1 has atomic number  8 and mass  15.99491

 Molecular mass:   181.03482 amu.
 Principal axes and moments of inertia in atomic units:
                           1         2         3
     Eigenvalues --  1247.990452652.590973766.98612
           X            0.99958   0.02893  -0.00147
           Y           -0.02893   0.99957  -0.00405
           Z            0.00135   0.00410   0.99999
 This molecule is an asymmetric top.
 Rotational symmetry number  1.
 Warning -- assumption of classical behavior for rotation
           may cause significant error
 Rotational temperatures (Kelvin)      0.06940     0.03265     0.02299
 Rotational constants (GHZ):           1.44612     0.68037     0.47909
 Zero-point vibrational energy     265779.1 (Joules/Mol)
                                   63.52274 (Kcal/Mol)
 Warning -- explicit consideration of  12 degrees of freedom as
           vibrations may cause significant error
 Vibrational temperatures:     68.89    92.23   167.13   222.15   296.19
          (Kelvin)            304.26   506.40   552.35   569.13   725.40
                              844.01   872.45   956.36   971.77  1038.64
                             1043.68  1123.46  1204.27  1246.42  1270.49
                             1352.13  1388.95  1444.91  1470.68  1557.57
                             1584.90  1682.21  1719.34  1782.24  1882.42
                             1942.02  1981.32  2050.11  2052.98  2156.83
                             2162.31  2232.79  2279.99  2348.45  4737.23
                             4781.83  5264.80

 Zero-point correction=                           0.101230 (Hartree/Particle)
 Thermal correction to Energy=                    0.110736
 Thermal correction to Enthalpy=                  0.111680
 Thermal correction to Gibbs Free Energy=         0.064646
 Sum of electronic and zero-point Energies=           -687.687182
 Sum of electronic and thermal Energies=              -687.677676
 Sum of electronic and thermal Enthalpies=            -687.676731
 Sum of electronic and thermal Free Energies=         -687.723766

                     E (Thermal)             CV                S
                      KCal/Mol        Cal/Mol-Kelvin    Cal/Mol-Kelvin
 Total                   69.488             34.637             98.993
 Electronic               0.000              0.000              0.000
 Translational            0.889              2.981             41.487
 Rotational               0.889              2.981             30.901
 Vibrational             67.710             28.675             26.605
 Vibration     1          0.595              1.978              4.903
 Vibration     2          0.597              1.971              4.327
 Vibration     3          0.608              1.936              3.163
 Vibration     4          0.620              1.898              2.617
 Vibration     5          0.640              1.832              2.080
 Vibration     6          0.643              1.823              2.031
 Vibration     7          0.729              1.571              1.157
 Vibration     8          0.753              1.505              1.024
 Vibration     9          0.762              1.480              0.979
 Vibration    10          0.859              1.241              0.648
 Vibration    11          0.944              1.060              0.473
 Vibration    12          0.965              1.018              0.439

 Optimization completed.
    -- Stationary point found.
 Normal termination of Gaussian 09 at Wed Aug 25 14:17:01 2021.

 -----------------------------------------------------------------
 #P Geom=AllCheck Guess=TCheck SCRF=Check CCSD(T,E4T,FrzG4)/GTBas1
 -----------------------------------------------------------------

 Structure from the checkpoint file:  "/public/home/users/caep010/.cache/gau_scr/Gau-45771.chk"
 --------
 CASBOQ01
 --------
 Charge =  0 Multiplicity = 1

 SCF Done:  E(RHF) =  -683.841558986     A.U. after   15 cycles
 E2 =    -0.2032769160D+01 EUMP2 =    -0.68587432814621D+03
 CCSD(T)
 CCSD(T)= -0.68596900606D+03
 27185\MP4SDQ=-685.8806999\CCSD=-685.8741733\CCSD(T)=-685.9690061\RMSD=
 Normal termination of Gaussian 09 at Wed Aug 25 15:41:23 2021.

 ---------------------------------------------------------
 #P Geom=AllCheck Guess=TCheck SCRF=Check MP4=FrzG4/GTBas2
 ---------------------------------------------------------

 Structure from the checkpoint file:  "/public/home/users/caep010/.cache/gau_scr/Gau-45771.chk"
 --------
 CASBOQ01
 --------
 Charge =  0 Multiplicity = 1

 SCF Done:  E(RHF) =  -683.860479374     A.U. after   15 cycles
 E2 =    -0.2058497327D+01 EUMP2 =    -0.68591897670048D+03
 Normal termination of Gaussian 09 at Wed Aug 25 16:09:16 2021.

 ---------------------------------------------------------
 #P Geom=AllCheck Guess=TCheck SCRF=Check MP4=FrzG4/GTBas3
 ---------------------------------------------------------

 Structure from the checkpoint file:  "/public/home/users/caep010/.cache/gau_scr/Gau-45771.chk"
 --------
 CASBOQ01
 --------
 Charge =  0 Multiplicity = 1

 SCF Done:  E(RHF) =  -683.909869932     A.U. after   13 cycles
 E2 =    -0.2386732203D+01 EUMP2 =    -0.68629660213554D+03
 Normal termination of Gaussian 09 at Wed Aug 25 19:35:01 2021.

 -----------------------------------------------------------
 #P Geom=AllCheck Guess=TCheck SCRF=Check MP2=Full/GTLargeXP
 -----------------------------------------------------------

 Structure from the checkpoint file:  "/public/home/users/caep010/.cache/gau_scr/Gau-45771.chk"
 --------
 CASBOQ01
 --------
 Charge =  0 Multiplicity = 1

 SCF Done:  E(RHF) =  -684.079124459     A.U. after   14 cycles
 E2 =    -0.3104241738D+01 EUMP2 =    -0.68718336619653D+03
 Normal termination of Gaussian 09 at Wed Aug 25 19:55:03 2021.
 SCF Done:  E(RHF) =  -684.132070768     A.U. after   10 cycles
 Normal termination of Gaussian 09 at Wed Aug 25 20:01:02 2021.

                         Standard orientation:
 ---------------------------------------------------------------------
 Center     Atomic      Atomic             Coordinates (Angstroms)
 Number     Number       Type             X           Y           Z
 ---------------------------------------------------------------------
      1          8           0        2.852023   -1.610728   -0.258611
      2          7           0        1.666771   -1.336029   -0.115427
      3          6           0        1.333661    0.052204    0.010274
      4          6           0        0.072247    0.707379    0.083771
      5          7           0       -1.223676    0.183748    0.036439
      6          7           0       -2.218395    0.840578   -0.641102
      7          6           0       -1.783778   -0.898990    0.628091
      8          1           0       -1.235292   -1.610864    1.217611
      9          7           0       -3.287355    0.163687   -0.448141
     10          8           0        0.751097   -2.152033   -0.070645
     11          7           0       -3.060169   -0.927665    0.343918
     12          7           0        0.233340    2.018075    0.175995
     13          7           0        1.569244    2.199952    0.149942
     14          1           0        1.922564    3.141959    0.207494
     15          6           0        2.274450    1.065137    0.056483
     16          1           0        3.349966    1.020195    0.025863
 ---------------------------------------------------------------------

 SCF Done:  E(RHF) =  -684.142225176     A.U. after    8 cycles

 The electronic state is 1-A.
 Alpha  occ. eigenvalues --  -20.62640 -20.62594 -15.88721 -15.71029 -15.69267
 Alpha  occ. eigenvalues --  -15.66738 -15.65344 -15.65026 -15.60393 -11.37994
 Alpha  occ. eigenvalues --  -11.35922 -11.34047 -11.33554  -1.63364  -1.49847
 Alpha  occ. eigenvalues --   -1.45144  -1.42682  -1.28933  -1.20376  -1.16913
 Alpha  occ. eigenvalues --   -1.16256  -1.02068  -0.95335  -0.90597  -0.85875
 Alpha  occ. eigenvalues --   -0.83684  -0.83315  -0.76551  -0.75784  -0.75449
 Alpha  occ. eigenvalues --   -0.74068  -0.69987  -0.68462  -0.66877  -0.64943
 Alpha  occ. eigenvalues --   -0.57543  -0.55087  -0.52975  -0.51570  -0.50196
 Alpha  occ. eigenvalues --   -0.48306  -0.47902  -0.47387  -0.42607  -0.42374
 Alpha  occ. eigenvalues --   -0.40515
 Alpha virt. eigenvalues --    0.01029   0.02272   0.03727   0.03918   0.04663
 Alpha virt. eigenvalues --    0.05440   0.05994   0.06187   0.07028   0.07476
 Alpha virt. eigenvalues --    0.08248   0.08345   0.08793   0.08942   0.09545

 Mulliken charges:
               1
     1  O   -0.437784
     2  N    0.518383
     3  C    0.132687
     4  C    0.297313
     5  N    0.108716
     6  N   -0.110568
     7  C    0.022698
     8  H    0.267016
     9  N   -0.107288
    10  O   -0.433630
    11  N   -0.326416
    12  N   -0.336571
    13  N   -0.247043
    14  H    0.400136
    15  C   -0.035995
    16  H    0.288346
 Sum of Mulliken charges =  -0.00000

 Dipole moment (field-independent basis, Debye):
    X=              6.7718    Y=              4.1234    Z=              1.8995  Tot=              8.1528
 Quadrupole moment (field-independent basis, Debye-Ang):
   XX=            -85.6279   YY=            -73.2118   ZZ=            -72.1315
   XY=             15.5873   XZ=             -1.1332   YZ=             -0.3154

 Normal termination of Gaussian 09 at Wed Aug 25 20:42:58 2021.
