 Gaussian 09, Revision E.01,
 Gaussian 09:  ES64L-G09RevE.01 30-Nov-2015

 ----------------
 #P G4 OPT=calcfc
 ----------------

 ------
 DELPEQ
 ------
 Symbolic Z-matrix:
 Charge =  0 Multiplicity = 1

 SCF Done:  E(RB3LYP) =  -664.017165810     A.U. after   16 cycles
 SCF Done:  E(RB3LYP) =  -664.134755645     A.U. after   12 cycles
 SCF Done:  E(RB3LYP) =  -664.214295433     A.U. after   14 cycles
 SCF Done:  E(RB3LYP) =  -664.215455694     A.U. after   15 cycles
 SCF Done:  E(RB3LYP) =  -664.215439538     A.U. after   13 cycles
 SCF Done:  E(RB3LYP) =  -664.215578881     A.U. after   13 cycles
 SCF Done:  E(RB3LYP) =  -664.215605661     A.U. after   11 cycles
 SCF Done:  E(RB3LYP) =  -664.215607778     A.U. after    9 cycles
 SCF Done:  E(RB3LYP) =  -664.215607994     A.U. after    7 cycles
 SCF Done:  E(RB3LYP) =  -664.215608004     A.U. after    6 cycles
 SCF Done:  E(RB3LYP) =  -664.215608010     A.U. after    6 cycles
 Optimization completed.
    -- Stationary point found.
 Normal termination of Gaussian 09 at Thu Aug 26 19:38:12 2021.

 ----------------------------------------------------------
 #P Geom=AllCheck Guess=TCheck SCRF=Check B3LYP/GTBas3 Freq
 ----------------------------------------------------------

 Structure from the checkpoint file:  "/public/home/users/caep010/.cache/gau_scr/Gau-71332.chk"
 ------
 DELPEQ
 ------
 Charge =  0 Multiplicity = 1

 SCF Done:  E(RB3LYP) =  -664.215608010     A.U. after    1 cycles

  Exact polarizability: 219.605   6.582 150.163   0.000   0.000  61.699
 Approx polarizability: 341.524   4.591 255.635   0.001   0.001 101.089

                      1                      2                      3
                      A                      A                      A
 Frequencies --     46.7776                56.1568                87.9870
 Red. masses --      3.4206                 4.1066                 6.4433
 Frc consts  --      0.0044                 0.0076                 0.0294
 IR Inten    --      1.1072                 0.8109                 1.1986

                      4                      5                      6
                      A                      A                      A
 Frequencies --     94.3130               124.6798               143.8142
 Red. masses --      4.3931                 1.5647                 2.0137
 Frc consts  --      0.0230                 0.0143                 0.0245
 IR Inten    --      1.9215                 1.6148                 0.4826

                      7                      8                      9
                      A                      A                      A
 Frequencies --    200.3024               247.0014               248.1863
 Red. masses --      1.1372                 4.6212                 4.1292
 Frc consts  --      0.0269                 0.1661                 0.1499
 IR Inten    --      0.4608                 0.6126                 1.5425

                     10                     11                     12
                      A                      A                      A
 Frequencies --    263.4584               334.0467               342.3815
 Red. masses --      4.2702                 3.6571                 4.8628
 Frc consts  --      0.1746                 0.2404                 0.3359
 IR Inten    --      8.8880                 0.0274                 1.4669

                     13                     14                     15
                      A                      A                      A
 Frequencies --    402.0434               433.8474               440.6261
 Red. masses --      6.1160                 3.9718                 3.6918
 Frc consts  --      0.5825                 0.4405                 0.4223
 IR Inten    --      0.0290                 3.5445                 0.5295

                     16                     17                     18
                      A                      A                      A
 Frequencies --    517.7404               531.7442               538.7017
 Red. masses --      2.9324                 5.8862                 3.4580
 Frc consts  --      0.4631                 0.9806                 0.5913
 IR Inten    --      5.5455                12.0677                 4.2334

                     19                     20                     21
                      A                      A                      A
 Frequencies --    599.5427               610.6716               633.3970
 Red. masses --      4.7532                 1.1232                 5.9152
 Frc consts  --      1.0067                 0.2468                 1.3982
 IR Inten    --      4.0630                54.4865                 4.9081

                     22                     23                     24
                      A                      A                      A
 Frequencies --    698.7944               714.7661               766.1954
 Red. masses --      6.7444                 4.4935                 1.7954
 Frc consts  --      1.9404                 1.3526                 0.6210
 IR Inten    --      2.9030                 4.7032                40.1696

                     25                     26                     27
                      A                      A                      A
 Frequencies --    808.2278               819.3168               869.6504
 Red. masses --      2.5978                 4.1293                 6.7705
 Frc consts  --      0.9998                 1.6332                 3.0169
 IR Inten    --      3.3281                 2.3710                11.4305

                     28                     29                     30
                      A                      A                      A
 Frequencies --    888.8159               893.8899               966.5608
 Red. masses --      1.5050                 4.8382                 1.2673
 Frc consts  --      0.7005                 2.2777                 0.6976
 IR Inten    --      2.6641                 9.1550                 0.0328

                     31                     32                     33
                      A                      A                      A
 Frequencies --    968.5556               977.8078               993.5691
 Red. masses --      1.3123                 1.4166                 1.2846
 Frc consts  --      0.7253                 0.7980                 0.7472
 IR Inten    --      0.6798                 8.2919                 0.6598

                     34                     35                     36
                      A                      A                      A
 Frequencies --   1050.4697              1060.5590              1096.6213
 Red. masses --      2.5169                 2.1155                 1.6850
 Frc consts  --      1.6364                 1.4020                 1.1939
 IR Inten    --     42.7594                 2.6004                 1.2199

                     37                     38                     39
                      A                      A                      A
 Frequencies --   1100.1039              1156.5411              1165.5607
 Red. masses --      3.0192                 2.6510                 1.6859
 Frc consts  --      2.1528                 2.0892                 1.3495
 IR Inten    --     41.8267                29.0915               128.5973

                     40                     41                     42
                      A                      A                      A
 Frequencies --   1184.3464              1243.0684              1269.8477
 Red. masses --      1.2217                 1.6805                 3.1596
 Frc consts  --      1.0096                 1.5299                 3.0018
 IR Inten    --     10.2491                48.0272                30.0327

                     43                     44                     45
                      A                      A                      A
 Frequencies --   1313.0121              1359.9829              1382.4197
 Red. masses --      3.3680                 3.5192                 2.9625
 Frc consts  --      3.4211                 3.8349                 3.3357
 IR Inten    --    225.5489                79.7782               138.3877

                     46                     47                     48
                      A                      A                      A
 Frequencies --   1400.4059              1413.2256              1459.5662
 Red. masses --      1.3038                 1.3514                 1.7953
 Frc consts  --      1.5065                 1.5902                 2.2533
 IR Inten    --      9.2631                 2.1943                52.0950

                     49                     50                     51
                      A                      A                      A
 Frequencies --   1478.4997              1479.3182              1482.5594
 Red. masses --      1.2272                 1.0458                 2.1362
 Frc consts  --      1.5806                 1.3484                 2.7664
 IR Inten    --     14.1372                 5.5807                41.6882

                     52                     53                     54
                      A                      A                      A
 Frequencies --   1487.9514              1493.0051              1545.7208
 Red. masses --      1.0432                 1.3098                 3.3784
 Frc consts  --      1.3608                 1.7202                 4.7557
 IR Inten    --      6.9972                54.9119               303.7258

                     55                     56                     57
                      A                      A                      A
 Frequencies --   1599.8505              1614.2733              1658.8860
 Red. masses --      7.1132                 3.2622                 6.7566
 Frc consts  --     10.7269                 5.0086                10.9550
 IR Inten    --    167.7839                81.2490               306.0878

                     58                     59                     60
                      A                      A                      A
 Frequencies --   1697.6082              3018.7429              3022.0854
 Red. masses --      8.3762                 1.0393                 1.0400
 Frc consts  --     14.2224                 5.5802                 5.5964
 IR Inten    --      5.9859                 9.4304                34.1005

                     61                     62                     63
                      A                      A                      A
 Frequencies --   3067.7536              3070.9214              3131.9453
 Red. masses --      1.0986                 1.0989                 1.0977
 Frc consts  --      6.0918                 6.1059                 6.3439
 IR Inten    --     15.5299                 8.7723                13.1209

                     64                     65                     66
                      A                      A                      A
 Frequencies --   3143.2031              3180.5265              3206.1864
 Red. masses --      1.0983                 1.0876                 1.0917
 Frc consts  --      6.3933                 6.4820                 6.6122
 IR Inten    --     10.3946                 9.3836                 9.6138

                     67                     68                     69
                      A                      A                      A
 Frequencies --   3239.2312              3240.9993              3500.3301
 Red. masses --      1.0913                 1.0920                 1.0767
 Frc consts  --      6.7463                 6.7583                 7.7729
 IR Inten    --      1.1394                 2.0075                63.2714

 - Thermochemistry -
 -------------------
 Temperature   298.150 Kelvin.  Pressure   1.00000 Atm.
 Atom     1 has atomic number  8 and mass  15.99491

 Molecular mass:   193.08513 amu.
 Principal axes and moments of inertia in atomic units:
                           1         2         3
     Eigenvalues --  1628.882573920.369005526.91853
           X            0.99969   0.02490  -0.00000
           Y           -0.02490   0.99969  -0.00000
           Z            0.00000   0.00000   1.00000
 This molecule is an asymmetric top.
 Rotational symmetry number  1.
 Warning -- assumption of classical behavior for rotation
           may cause significant error
 Rotational temperatures (Kelvin)      0.05317     0.02209     0.01567
 Rotational constants (GHZ):           1.10796     0.46035     0.32654
 Zero-point vibrational energy     516062.4 (Joules/Mol)
                                  123.34188 (Kcal/Mol)
 Warning -- explicit consideration of  20 degrees of freedom as
           vibrations may cause significant error
 Vibrational temperatures:     67.30    80.80   126.59   135.70   179.39
          (Kelvin)            206.92   288.19   355.38   357.08   379.06
                              480.62   492.61   578.45   624.21   633.96
                              744.91   765.06   775.07   862.61   878.62
                              911.32  1005.41  1028.39  1102.38  1162.86
                             1178.81  1251.23  1278.81  1286.11  1390.66
                             1393.53  1406.85  1429.52  1511.39  1525.91
                             1577.79  1582.80  1664.00  1676.98  1704.01
                             1788.50  1827.03  1889.13  1956.71  1988.99
                             2014.87  2033.31  2099.99  2127.23  2128.41
                             2133.07  2140.83  2148.10  2223.94  2301.83
                             2322.58  2386.76  2442.48  4343.29  4348.10
                             4413.81  4418.37  4506.17  4522.36  4576.06
                             4612.98  4660.53  4663.07  5036.19

 Zero-point correction=                           0.196558 (Hartree/Particle)
 Thermal correction to Energy=                    0.209655
 Thermal correction to Enthalpy=                  0.210599
 Thermal correction to Gibbs Free Energy=         0.156263
 Sum of electronic and zero-point Energies=           -664.019050
 Sum of electronic and thermal Energies=              -664.005953
 Sum of electronic and thermal Enthalpies=            -664.005009
 Sum of electronic and thermal Free Energies=         -664.059345

                     E (Thermal)             CV                S
                      KCal/Mol        Cal/Mol-Kelvin    Cal/Mol-Kelvin
 Total                  131.560             49.092            114.359
 Electronic               0.000              0.000              0.000
 Translational            0.889              2.981             41.679
 Rotational               0.889              2.981             31.935
 Vibrational            129.783             43.130             40.745
 Vibration     1          0.595              1.979              4.949
 Vibration     2          0.596              1.975              4.588
 Vibration     3          0.601              1.958              3.704
 Vibration     4          0.603              1.953              3.569
 Vibration     5          0.610              1.928              3.027
 Vibration     6          0.616              1.909              2.753
 Vibration     7          0.638              1.839              2.130
 Vibration     8          0.661              1.768              1.752
 Vibration     9          0.662              1.766              1.743
 Vibration    10          0.670              1.740              1.639
 Vibration    11          0.716              1.608              1.240
 Vibration    12          0.722              1.591              1.201
 Vibration    13          0.768              1.466              0.955
 Vibration    14          0.795              1.396              0.846
 Vibration    15          0.801              1.382              0.825
 Vibration    16          0.873              1.211              0.615
 Vibration    17          0.887              1.180              0.583
 Vibration    18          0.894              1.164              0.568
 Vibration    19          0.958              1.033              0.450
 Vibration    20          0.970              1.009              0.432

 Optimization completed.
    -- Stationary point found.
 Normal termination of Gaussian 09 at Thu Aug 26 19:42:16 2021.

 -----------------------------------------------------------------
 #P Geom=AllCheck Guess=TCheck SCRF=Check CCSD(T,E4T,FrzG4)/GTBas1
 -----------------------------------------------------------------

 Structure from the checkpoint file:  "/public/home/users/caep010/.cache/gau_scr/Gau-71332.chk"
 ------
 DELPEQ
 ------
 Charge =  0 Multiplicity = 1

 SCF Done:  E(RHF) =  -660.126988899     A.U. after   15 cycles
 E2 =    -0.2017721243D+01 EUMP2 =    -0.66214471014160D+03
 CCSD(T)
 CCSD(T)= -0.66228952561D+03
 CCSD=-662.1991666\CCSD(T)=-662.2895256\RMSD=7.053e-09\PG=C01 [X(C9H11N
 Normal termination of Gaussian 09 at Thu Aug 26 22:12:24 2021.

 ---------------------------------------------------------
 #P Geom=AllCheck Guess=TCheck SCRF=Check MP4=FrzG4/GTBas2
 ---------------------------------------------------------

 Structure from the checkpoint file:  "/public/home/users/caep010/.cache/gau_scr/Gau-71332.chk"
 ------
 DELPEQ
 ------
 Charge =  0 Multiplicity = 1

 SCF Done:  E(RHF) =  -660.144298621     A.U. after   17 cycles
 E2 =    -0.2042208228D+01 EUMP2 =    -0.66218650684883D+03
 Normal termination of Gaussian 09 at Thu Aug 26 23:15:45 2021.

 ---------------------------------------------------------
 #P Geom=AllCheck Guess=TCheck SCRF=Check MP4=FrzG4/GTBas3
 ---------------------------------------------------------

 Structure from the checkpoint file:  "/public/home/users/caep010/.cache/gau_scr/Gau-71332.chk"
 ------
 DELPEQ
 ------
 Charge =  0 Multiplicity = 1

 SCF Done:  E(RHF) =  -660.196288375     A.U. after   13 cycles
 E2 =    -0.2418408246D+01 EUMP2 =    -0.66261469662070D+03
 Normal termination of Gaussian 09 at Fri Aug 27 07:31:24 2021.

 -----------------------------------------------------------
 #P Geom=AllCheck Guess=TCheck SCRF=Check MP2=Full/GTLargeXP
 -----------------------------------------------------------

 Structure from the checkpoint file:  "/public/home/users/caep010/.cache/gau_scr/Gau-71332.chk"
 ------
 DELPEQ
 ------
 Charge =  0 Multiplicity = 1

 SCF Done:  E(RHF) =  -660.351330807     A.U. after   15 cycles
 E2 =    -0.3174116704D+01 EUMP2 =    -0.66352544751025D+03
 Normal termination of Gaussian 09 at Fri Aug 27 07:51:08 2021.
 SCF Done:  E(RHF) =  -660.403776737     A.U. after   10 cycles
 Normal termination of Gaussian 09 at Fri Aug 27 08:00:51 2021.

                         Standard orientation:
 ---------------------------------------------------------------------
 Center     Atomic      Atomic             Coordinates (Angstroms)
 Number     Number       Type             X           Y           Z
 ---------------------------------------------------------------------
      1          8           0       -2.681480    2.293233    0.000005
      2          7           0       -1.610737    1.698119    0.000014
      3          8           0       -0.519370    2.296032    0.000029
      4          6           0       -1.616983    0.250261    0.000003
      5          6           0       -0.418612   -0.516920    0.000009
      6          7           0        0.819575    0.057666    0.000021
      7          1           0        0.839014    1.072617    0.000040
      8          7           0        1.942747   -0.711432    0.000034
      9          6           0       -0.560098   -1.923660   -0.000002
     10          6           0        3.075016   -0.104237   -0.000006
     11          1           0        0.344714   -2.514332    0.000000
     12          6           0       -1.804618   -2.515468   -0.000016
     13          1           0       -1.870660   -3.598856   -0.000024
     14          6           0       -2.978544   -1.746139   -0.000022
     15          1           0       -3.952234   -2.220579   -0.000034
     16          6           0       -2.873448   -0.372859   -0.000012
     17          1           0       -3.745427    0.266140   -0.000017
     18          6           0        3.233715    1.397131   -0.000076
     19          1           0        4.286905    1.682675   -0.000309
     20          1           0        2.761538    1.848580    0.881756
     21          1           0        2.761144    1.848534   -0.881719
     22          6           0        4.311718   -0.954288    0.000029
     23          1           0        4.931663   -0.739636    0.879711
     24          1           0        4.931646   -0.739733   -0.879688
     25          1           0        4.048526   -2.012925    0.000092
 ---------------------------------------------------------------------

 SCF Done:  E(RHF) =  -660.413815067     A.U. after    7 cycles

 The electronic state is 1-A.
 Alpha  occ. eigenvalues --  -20.59402 -20.59082 -15.84941 -15.61424 -15.60340
 Alpha  occ. eigenvalues --  -11.32447 -11.29309 -11.29227 -11.26404 -11.26379
 Alpha  occ. eigenvalues --  -11.24496 -11.23827 -11.23733 -11.23655  -1.59468
 Alpha  occ. eigenvalues --   -1.38733  -1.35036  -1.20208  -1.14268  -1.08812
 Alpha  occ. eigenvalues --   -1.03481  -1.00157  -0.96891  -0.94020  -0.85359
 Alpha  occ. eigenvalues --   -0.84361  -0.77619  -0.76856  -0.73037  -0.72157
 Alpha  occ. eigenvalues --   -0.71434  -0.68253  -0.65645  -0.63375  -0.63066
 Alpha  occ. eigenvalues --   -0.62395  -0.59642  -0.57733  -0.56384  -0.56295
 Alpha  occ. eigenvalues --   -0.55475  -0.53392  -0.52477  -0.50568  -0.49628
 Alpha  occ. eigenvalues --   -0.49073  -0.45654  -0.43894  -0.39648  -0.36948
 Alpha  occ. eigenvalues --   -0.29640
 Alpha virt. eigenvalues --    0.02926   0.03546   0.03972   0.04071   0.04778
 Alpha virt. eigenvalues --    0.04940   0.05542   0.06684   0.06754   0.06944
 Alpha virt. eigenvalues --    0.07077   0.07175   0.07968   0.08440   0.09291

 Mulliken charges:
               1
     1  O   -0.453366
     2  N    0.491058
     3  O   -0.491416
     4  C    0.115576
     5  C    0.314887
     6  N   -0.383526
     7  H    0.402412
     8  N   -0.284139
     9  C   -0.244500
    10  C    0.262861
    11  H    0.235868
    12  C   -0.197278
    13  H    0.216300
    14  C   -0.242199
    15  H    0.214340
    16  C   -0.194664
    17  H    0.255279
    18  C   -0.639193
    19  H    0.200637
    20  H    0.208837
    21  H    0.208840
    22  C   -0.564932
    23  H    0.187449
    24  H    0.187448
    25  H    0.193420
 Sum of Mulliken charges =  -0.00000

 Dipole moment (field-independent basis, Debye):
    X=              2.9812    Y=             -2.8814    Z=             -0.0001  Tot=              4.1461
 Quadrupole moment (field-independent basis, Debye-Ang):
   XX=            -69.5570   YY=            -87.7446   ZZ=            -85.1116
   XY=             11.8825   XZ=             -0.0000   YZ=              0.0000

 Normal termination of Gaussian 09 at Fri Aug 27 08:57:11 2021.
