 Gaussian 09, Revision E.01,
 Gaussian 09:  ES64L-G09RevE.01 30-Nov-2015

 ----------------
 #P G4 OPT=calcfc
 ----------------

 ------
 DATGEL
 ------
 Symbolic Z-matrix:
 Charge =  0 Multiplicity = 1

 SCF Done:  E(RB3LYP) =  -570.620488016     A.U. after   15 cycles
 SCF Done:  E(RB3LYP) =  -570.726840127     A.U. after   12 cycles
 SCF Done:  E(RB3LYP) =  -570.787458277     A.U. after   13 cycles
 SCF Done:  E(RB3LYP) =  -570.788488991     A.U. after   12 cycles
 SCF Done:  E(RB3LYP) =  -570.788545830     A.U. after   10 cycles
 SCF Done:  E(RB3LYP) =  -570.788551588     A.U. after    9 cycles
 SCF Done:  E(RB3LYP) =  -570.788553913     A.U. after   10 cycles
 SCF Done:  E(RB3LYP) =  -570.788555741     A.U. after    9 cycles
 SCF Done:  E(RB3LYP) =  -570.788557701     A.U. after    9 cycles
 SCF Done:  E(RB3LYP) =  -570.788556063     A.U. after    9 cycles
 SCF Done:  E(RB3LYP) =  -570.788602034     A.U. after   11 cycles
 SCF Done:  E(RB3LYP) =  -570.788602349     A.U. after    9 cycles
 SCF Done:  E(RB3LYP) =  -570.788602569     A.U. after    8 cycles
 Optimization completed.
    -- Stationary point found.
 Normal termination of Gaussian 09 at Wed Aug 25 16:04:12 2021.

 ----------------------------------------------------------
 #P Geom=AllCheck Guess=TCheck SCRF=Check B3LYP/GTBas3 Freq
 ----------------------------------------------------------

 Structure from the checkpoint file:  "/public/home/users/caep010/.cache/gau_scr/Gau-47750.chk"
 ------
 DATGEL
 ------
 Charge =  0 Multiplicity = 1

 SCF Done:  E(RB3LYP) =  -570.788602569     A.U. after    1 cycles

  Exact polarizability: 154.298  -0.694 130.022  -0.176   0.246  54.184
 Approx polarizability: 241.960  -1.418 242.474  -0.455  -0.128  88.494

                      1                      2                      3
                      A                      A                      A
 Frequencies --     66.2848                94.9377               118.6708
 Red. masses --      8.3656                 4.8383                 1.6917
 Frc consts  --      0.0217                 0.0257                 0.0140
 IR Inten    --      0.3137                 0.3400                 3.3208

                      4                      5                      6
                      A                      A                      A
 Frequencies --    161.8180               178.5505               248.4344
 Red. masses --      1.2478                 1.2943                 2.2385
 Frc consts  --      0.0193                 0.0243                 0.0814
 IR Inten    --      0.1863                22.1429                37.1425

                      7                      8                      9
                      A                      A                      A
 Frequencies --    257.9931               285.6290               313.6626
 Red. masses --      2.7894                 3.2925                 2.1185
 Frc consts  --      0.1094                 0.1583                 0.1228
 IR Inten    --     32.0206                 6.5887                73.9339

                     10                     11                     12
                      A                      A                      A
 Frequencies --    337.6514               366.8442               400.0026
 Red. masses --      2.7160                 7.2835                 3.0257
 Frc consts  --      0.1824                 0.5775                 0.2852
 IR Inten    --      1.4522                 0.6280                12.8190

                     13                     14                     15
                      A                      A                      A
 Frequencies --    428.5490               500.5638               507.0732
 Red. masses --      5.1512                 5.1001                 3.6030
 Frc consts  --      0.5574                 0.7529                 0.5458
 IR Inten    --      3.8800                 2.8341                 1.6375

                     16                     17                     18
                      A                      A                      A
 Frequencies --    581.9774               603.1180               619.3611
 Red. masses --      3.1923                 3.2635                 1.2604
 Frc consts  --      0.6370                 0.6994                 0.2849
 IR Inten    --      3.9764                 0.7498                20.5140

                     19                     20                     21
                      A                      A                      A
 Frequencies --    628.4729               703.6697               741.8016
 Red. masses --      5.1451                 4.3590                 6.2853
 Frc consts  --      1.1973                 1.2717                 2.0378
 IR Inten    --      2.9145                 1.5107                 1.5051

                     22                     23                     24
                      A                      A                      A
 Frequencies --    779.9341               819.6970               832.4099
 Red. masses --      2.3526                 7.1503                 2.0430
 Frc consts  --      0.8432                 2.8306                 0.8341
 IR Inten    --     27.9535                16.8614                 1.8297

                     25                     26                     27
                      A                      A                      A
 Frequencies --    881.1769               954.5865               966.0396
 Red. masses --      3.2277                 1.2878                 2.2571
 Frc consts  --      1.4766                 0.6914                 1.2411
 IR Inten    --      5.2375                 0.5223                18.8313

                     28                     29                     30
                      A                      A                      A
 Frequencies --   1015.5397              1041.2491              1066.4773
 Red. masses --      1.3859                 1.4453                 1.6089
 Frc consts  --      0.8422                 0.9232                 1.0782
 IR Inten    --     14.2560                 2.1690                 0.6318

                     31                     32                     33
                      A                      A                      A
 Frequencies --   1090.7364              1131.9703              1190.5966
 Red. masses --      1.8320                 2.2953                 1.6828
 Frc consts  --      1.2842                 1.7329                 1.4054
 IR Inten    --     28.5960                11.0858                 9.4062

                     34                     35                     36
                      A                      A                      A
 Frequencies --   1209.6291              1266.5329              1300.7987
 Red. masses --      3.2254                 1.6732                 5.1882
 Frc consts  --      2.7806                 1.5813                 5.1723
 IR Inten    --     43.2314                 7.0912               257.9874

                     37                     38                     39
                      A                      A                      A
 Frequencies --   1351.0472              1388.5119              1411.3576
 Red. masses --      4.3635                 4.7317                 1.4248
 Frc consts  --      4.6927                 5.3749                 1.6721
 IR Inten    --    109.4997               103.2017                17.3739

                     40                     41                     42
                      A                      A                      A
 Frequencies --   1416.7873              1465.7466              1479.8712
 Red. masses --      1.2358                 2.5013                 1.0917
 Frc consts  --      1.4615                 3.1662                 1.4086
 IR Inten    --      2.2450                72.9421                 9.3712

                     43                     44                     45
                      A                      A                      A
 Frequencies --   1480.9083              1500.8384              1502.1905
 Red. masses --      1.3100                 1.5261                 1.1734
 Frc consts  --      1.6926                 2.0254                 1.5600
 IR Inten    --      8.0658                17.3951                 7.5019

                     46                     47                     48
                      A                      A                      A
 Frequencies --   1515.3554              1564.7545              1616.7490
 Red. masses --      1.3271                 3.3597                 6.7353
 Frc consts  --      1.7954                 4.8466                10.3726
 IR Inten    --     28.5221               202.4861               120.3323

                     49                     50                     51
                      A                      A                      A
 Frequencies --   1626.9386              1649.9897              3007.0696
 Red. masses --      1.7326                 7.0030                 1.0467
 Frc consts  --      2.7020                11.2330                 5.5764
 IR Inten    --      9.7071               213.2525                27.3800

                     52                     53                     54
                      A                      A                      A
 Frequencies --   3033.5272              3052.8297              3086.8097
 Red. masses --      1.0383                 1.0964                 1.0995
 Frc consts  --      5.6298                 6.0204                 6.1724
 IR Inten    --     19.0376                17.5591                12.1949

                     55                     56                     57
                      A                      A                      A
 Frequencies --   3121.8175              3153.2196              3192.6416
 Red. masses --      1.0993                 1.0917                 1.0892
 Frc consts  --      6.3121                 6.3952                 6.5410
 IR Inten    --     15.7198                10.1047                 9.5131

                     58                     59                     60
                      A                      A                      A
 Frequencies --   3241.1961              3562.4021              3732.5751
 Red. masses --      1.0918                 1.0505                 1.0974
 Frc consts  --      6.7581                 7.8544                 9.0082
 IR Inten    --      2.6745                93.2347                71.9126

 - Thermochemistry -
 -------------------
 Temperature   298.150 Kelvin.  Pressure   1.00000 Atm.
 Atom     1 has atomic number  6 and mass  12.00000

 Molecular mass:   166.07423 amu.
 Principal axes and moments of inertia in atomic units:
                           1         2         3
     Eigenvalues --  1033.246622538.367043548.71657
           X            1.00000   0.00105  -0.00006
           Y           -0.00105   1.00000   0.00177
           Z            0.00006  -0.00177   1.00000
 This molecule is an asymmetric top.
 Rotational symmetry number  1.
 Warning -- assumption of classical behavior for rotation
           may cause significant error
 Rotational temperatures (Kelvin)      0.08383     0.03412     0.02441
 Rotational constants (GHZ):           1.74667     0.71099     0.50856
 Zero-point vibrational energy     459650.6 (Joules/Mol)
                                  109.85912 (Kcal/Mol)
 Warning -- explicit consideration of  18 degrees of freedom as
           vibrations may cause significant error
 Vibrational temperatures:     95.37   136.59   170.74   232.82   256.89
          (Kelvin)            357.44   371.19   410.96   451.29   485.80
                              527.81   575.51   616.59   720.20   729.56
                              837.33   867.75   891.12   904.23  1012.42
                             1067.29  1122.15  1179.36  1197.65  1267.82
                             1373.44  1389.91  1461.13  1498.12  1534.42
                             1569.32  1628.65  1713.00  1740.38  1822.26
                             1871.56  1943.85  1997.76  2030.63  2038.44
                             2108.88  2129.20  2130.69  2159.37  2161.31
                             2180.26  2251.33  2326.14  2340.80  2373.96
                             4326.50  4364.56  4392.34  4441.23  4491.59
                             4536.77  4593.49  4663.35  5125.50  5370.34

 Zero-point correction=                           0.175072 (Hartree/Particle)
 Thermal correction to Energy=                    0.186402
 Thermal correction to Enthalpy=                  0.187346
 Thermal correction to Gibbs Free Energy=         0.138263
 Sum of electronic and zero-point Energies=           -570.613531
 Sum of electronic and thermal Energies=              -570.602201
 Sum of electronic and thermal Enthalpies=            -570.601257
 Sum of electronic and thermal Free Energies=         -570.650340

                     E (Thermal)             CV                S
                      KCal/Mol        Cal/Mol-Kelvin    Cal/Mol-Kelvin
 Total                  116.969             43.219            103.304
 Electronic               0.000              0.000              0.000
 Translational            0.889              2.981             41.230
 Rotational               0.889              2.981             30.610
 Vibrational            115.191             37.258             31.464
 Vibration     1          0.598              1.970              4.261
 Vibration     2          0.603              1.953              3.556
 Vibration     3          0.609              1.934              3.122
 Vibration     4          0.622              1.889              2.528
 Vibration     5          0.629              1.869              2.344
 Vibration     6          0.662              1.765              1.742
 Vibration     7          0.667              1.749              1.675
 Vibration     8          0.683              1.700              1.500
 Vibration     9          0.702              1.648              1.343
 Vibration    10          0.718              1.600              1.223
 Vibration    11          0.740              1.540              1.093
 Vibration    12          0.766              1.470              0.963
 Vibration    13          0.790              1.408              0.863
 Vibration    14          0.856              1.249              0.657
 Vibration    15          0.862              1.234              0.641
 Vibration    16          0.939              1.070              0.482
 Vibration    17          0.962              1.025              0.444
 Vibration    18          0.979              0.991              0.418

 Optimization completed.
    -- Stationary point found.
 Normal termination of Gaussian 09 at Wed Aug 25 16:07:00 2021.

 -----------------------------------------------------------------
 #P Geom=AllCheck Guess=TCheck SCRF=Check CCSD(T,E4T,FrzG4)/GTBas1
 -----------------------------------------------------------------

 Structure from the checkpoint file:  "/public/home/users/caep010/.cache/gau_scr/Gau-47750.chk"
 ------
 DATGEL
 ------
 Charge =  0 Multiplicity = 1

 SCF Done:  E(RHF) =  -567.269427097     A.U. after   14 cycles
 E2 =    -0.1732628568D+01 EUMP2 =    -0.56900205566464D+03
 CCSD(T)
 CCSD(T)= -0.56912371065D+03
 CSD=-569.0469942\CCSD(T)=-569.1237106\RMSD=7.096e-09\PG=C01 [X(C8H10N2
 Normal termination of Gaussian 09 at Wed Aug 25 17:17:11 2021.

 ---------------------------------------------------------
 #P Geom=AllCheck Guess=TCheck SCRF=Check MP4=FrzG4/GTBas2
 ---------------------------------------------------------

 Structure from the checkpoint file:  "/public/home/users/caep010/.cache/gau_scr/Gau-47750.chk"
 ------
 DATGEL
 ------
 Charge =  0 Multiplicity = 1

 SCF Done:  E(RHF) =  -567.284810155     A.U. after   16 cycles
 E2 =    -0.1754335488D+01 EUMP2 =    -0.56903914564307D+03
 Normal termination of Gaussian 09 at Wed Aug 25 17:42:07 2021.

 ---------------------------------------------------------
 #P Geom=AllCheck Guess=TCheck SCRF=Check MP4=FrzG4/GTBas3
 ---------------------------------------------------------

 Structure from the checkpoint file:  "/public/home/users/caep010/.cache/gau_scr/Gau-47750.chk"
 ------
 DATGEL
 ------
 Charge =  0 Multiplicity = 1

 SCF Done:  E(RHF) =  -567.331947414     A.U. after   13 cycles
 E2 =    -0.2083609802D+01 EUMP2 =    -0.56941555721683D+03
 Normal termination of Gaussian 09 at Wed Aug 25 20:43:35 2021.

 -----------------------------------------------------------
 #P Geom=AllCheck Guess=TCheck SCRF=Check MP2=Full/GTLargeXP
 -----------------------------------------------------------

 Structure from the checkpoint file:  "/public/home/users/caep010/.cache/gau_scr/Gau-47750.chk"
 ------
 DATGEL
 ------
 Charge =  0 Multiplicity = 1

 SCF Done:  E(RHF) =  -567.466330097     A.U. after   14 cycles
 E2 =    -0.2734375508D+01 EUMP2 =    -0.57020070560485D+03
 Normal termination of Gaussian 09 at Wed Aug 25 20:56:50 2021.
 SCF Done:  E(RHF) =  -567.511796907     A.U. after   10 cycles
 Normal termination of Gaussian 09 at Wed Aug 25 21:03:51 2021.

                         Standard orientation:
 ---------------------------------------------------------------------
 Center     Atomic      Atomic             Coordinates (Angstroms)
 Number     Number       Type             X           Y           Z
 ---------------------------------------------------------------------
      1          6           0        0.919073   -0.326293   -0.008034
      2          6           0        0.066736    0.809848   -0.006944
      3          6           0       -1.341373    0.586272   -0.000435
      4          6           0       -1.850604   -0.710758    0.005120
      5          6           0       -0.972296   -1.810938   -0.000744
      6          1           0       -1.376118   -2.816770    0.000530
      7          6           0       -3.338029   -0.977521    0.014367
      8          1           0       -3.831799   -0.562916   -0.871536
      9          1           0       -3.826023   -0.536889    0.890578
     10          6           0        0.388864   -1.620233   -0.008996
     11          1           0        1.081308   -2.450126   -0.011925
     12          7           0        2.364294   -0.212711    0.002579
     13          8           0        2.884183    0.914455    0.024065
     14          8           0        3.031068   -1.241536   -0.006501
     15          7           0        0.540495    2.083140   -0.040750
     16          1           0        1.536679    2.202996    0.066509
     17          1           0       -0.081929    2.844783    0.155762
     18          6           0       -2.238667    1.800329   -0.010368
     19          1           0       -2.106533    2.411784    0.893376
     20          1           0       -3.535453   -2.051558    0.030261
     21          1           0       -3.292697    1.530955   -0.059644
     22          1           0       -2.025196    2.447147   -0.871022
 ---------------------------------------------------------------------

 SCF Done:  E(RHF) =  -567.520569438     A.U. after    8 cycles

 The electronic state is 1-A.
 Alpha  occ. eigenvalues --  -20.58861 -20.58653 -15.84514 -15.57963 -11.32276
 Alpha  occ. eigenvalues --  -11.28741 -11.27251 -11.26051 -11.25036 -11.24261
 Alpha  occ. eigenvalues --  -11.24215 -11.23339  -1.59053  -1.38240  -1.25856
 Alpha  occ. eigenvalues --   -1.16570  -1.10787  -1.04138  -1.00264  -0.95544
 Alpha  occ. eigenvalues --   -0.90308  -0.83542  -0.81827  -0.75683  -0.73200
 Alpha  occ. eigenvalues --   -0.71678  -0.70983  -0.69295  -0.64001  -0.63165
 Alpha  occ. eigenvalues --   -0.61264  -0.59783  -0.57909  -0.57066  -0.55188
 Alpha  occ. eigenvalues --   -0.53594  -0.53058  -0.50782  -0.48702  -0.48052
 Alpha  occ. eigenvalues --   -0.46667  -0.44588  -0.35542  -0.30959
 Alpha virt. eigenvalues --    0.02988   0.03176   0.04352   0.04462   0.04848
 Alpha virt. eigenvalues --    0.05393   0.06124   0.06288   0.06706   0.07864
 Alpha virt. eigenvalues --    0.07986   0.08302   0.08911   0.09779   0.09808

 Mulliken charges:
               1
     1  C    0.067909
     2  C    0.312053
     3  C    0.165033
     4  C    0.201542
     5  C   -0.292166
     6  H    0.203971
     7  C   -0.701190
     8  H    0.199222
     9  H    0.200103
    10  C   -0.158735
    11  H    0.261375
    12  N    0.496392
    13  O   -0.472260
    14  O   -0.448939
    15  N   -0.775999
    16  H    0.377138
    17  H    0.325820
    18  C   -0.729034
    19  H    0.184413
    20  H    0.185008
    21  H    0.193378
    22  H    0.204965
 Sum of Mulliken charges =  -0.00000

 Dipole moment (field-independent basis, Debye):
    X=             -5.8241    Y=              1.3026    Z=              0.3829  Tot=              5.9802
 Quadrupole moment (field-independent basis, Debye-Ang):
   XX=            -80.4176   YY=            -63.5508   ZZ=            -73.5054
   XY=              1.3596   XZ=              0.1597   YZ=              1.2283

 Normal termination of Gaussian 09 at Wed Aug 25 21:50:46 2021.
