 Gaussian 09, Revision E.01,
 Gaussian 09:  ES64L-G09RevE.01 30-Nov-2015

 ----------------
 #P G4 OPT=calcfc
 ----------------

 ------
 DNCOOC
 ------
 Symbolic Z-matrix:
 Charge =  0 Multiplicity = 1

 SCF Done:  E(RB3LYP) =  -718.593799941     A.U. after   16 cycles
 SCF Done:  E(RB3LYP) =  -718.631024885     A.U. after   14 cycles
 SCF Done:  E(RB3LYP) =  -718.638178277     A.U. after   14 cycles
 SCF Done:  E(RB3LYP) =  -718.638688824     A.U. after   12 cycles
 SCF Done:  E(RB3LYP) =  -718.638728307     A.U. after   11 cycles
 SCF Done:  E(RB3LYP) =  -718.638731982     A.U. after    9 cycles
 SCF Done:  E(RB3LYP) =  -718.638732285     A.U. after    8 cycles
 Optimization completed.
    -- Stationary point found.
 Normal termination of Gaussian 09 at Thu Aug 26 12:25:53 2021.

 ----------------------------------------------------------
 #P Geom=AllCheck Guess=TCheck SCRF=Check B3LYP/GTBas3 Freq
 ----------------------------------------------------------

 Structure from the checkpoint file:  "/public/home/users/caep010/.cache/gau_scr/Gau-173077.chk"
 ------
 DNCOOC
 ------
 Charge =  0 Multiplicity = 1

 SCF Done:  E(RB3LYP) =  -718.638732285     A.U. after    1 cycles

  Exact polarizability: 141.390  -0.002 133.245   0.002 -11.703  73.772
 Approx polarizability: 227.143  -0.004 259.455   0.005 -45.682 135.042

                      1                      2                      3
                      A                      A                      A
 Frequencies --     52.6682                52.7393                60.5054
 Red. masses --     13.1126                15.2121                12.0233
 Frc consts  --      0.0214                 0.0249                 0.0259
 IR Inten    --      1.0145                 0.0672                 0.8874

                      4                      5                      6
                      A                      A                      A
 Frequencies --    124.7830               173.3461               206.2565
 Red. masses --      5.9438                 6.0288                 4.6288
 Frc consts  --      0.0545                 0.1067                 0.1160
 IR Inten    --      0.9514                 1.3901                 1.1824

                      7                      8                      9
                      A                      A                      A
 Frequencies --    259.9749               270.7287               303.6295
 Red. masses --      3.6905                 5.5064                 5.2892
 Frc consts  --      0.1470                 0.2378                 0.2873
 IR Inten    --      1.2806                 0.2539                 3.2325

                     10                     11                     12
                      A                      A                      A
 Frequencies --    318.3916               406.5195               446.4229
 Red. masses --      5.4537                 3.1337                 3.6423
 Frc consts  --      0.3257                 0.3051                 0.4277
 IR Inten    --      0.1236                 2.9591                 0.1503

                     13                     14                     15
                      A                      A                      A
 Frequencies --    452.4185               481.9318               500.7229
 Red. masses --      6.5531                 6.1767                 9.9186
 Frc consts  --      0.7903                 0.8452                 1.4652
 IR Inten    --      2.1545                 4.8565                 0.9747

                     16                     17                     18
                      A                      A                      A
 Frequencies --    543.3557               670.9698               686.8056
 Red. masses --      6.6137                 4.5290                 2.5589
 Frc consts  --      1.1504                 1.2013                 0.7112
 IR Inten    --      7.6876                 0.5985                13.1901

                     19                     20                     21
                      A                      A                      A
 Frequencies --    698.5906               724.9089               790.6724
 Red. masses --      4.2094                 1.9925                 3.2172
 Frc consts  --      1.2104                 0.6169                 1.1850
 IR Inten    --     24.0558                50.8217                 3.5412

                     22                     23                     24
                      A                      A                      A
 Frequencies --    802.1402               833.8816               848.6826
 Red. masses --      7.7436                 2.4182                 7.8877
 Frc consts  --      2.9356                 0.9907                 3.3473
 IR Inten    --      1.2954                52.0309                35.5584

                     25                     26                     27
                      A                      A                      A
 Frequencies --    853.8705               946.2000               946.9506
 Red. masses --      5.1133                 2.0893                 3.8587
 Frc consts  --      2.1965                 1.1021                 2.0387
 IR Inten    --     14.2660                 2.7335                 0.0595

                     28                     29                     30
                      A                      A                      A
 Frequencies --    966.3581               985.0597               986.9312
 Red. masses --      1.7368                 2.9155                 1.3505
 Frc consts  --      0.9556                 1.6668                 0.7750
 IR Inten    --      8.4426                14.3715                 2.8691

                     31                     32                     33
                      A                      A                      A
 Frequencies --    997.5991              1037.4260              1045.3336
 Red. masses --      1.3064                 4.5087                 2.6544
 Frc consts  --      0.7660                 2.8590                 1.7089
 IR Inten    --     12.2280                 7.0385                24.0080

                     34                     35                     36
                      A                      A                      A
 Frequencies --   1095.7530              1240.7882              1257.5249
 Red. masses --      1.7311                 1.0727                 1.0947
 Frc consts  --      1.2246                 0.9730                 1.0199
 IR Inten    --      1.5469                 1.9688                 2.3669

                     37                     38                     39
                      A                      A                      A
 Frequencies --   1331.0997              1358.2299              1374.0870
 Red. masses --      1.3134                 1.6689                 8.5904
 Frc consts  --      1.3711                 1.8139                 9.5563
 IR Inten    --      0.2384                 0.7530               243.7881

                     40                     41                     42
                      A                      A                      A
 Frequencies --   1386.5677              1426.1601              1449.8365
 Red. masses --     11.6928                 1.4871                 1.9456
 Frc consts  --     13.2450                 1.7821                 2.4096
 IR Inten    --    205.9936                21.9643                24.4486

                     43                     44                     45
                      A                      A                      A
 Frequencies --   1630.4085              1631.9604              1695.7400
 Red. masses --     13.6120                12.8727                 7.6852
 Frc consts  --     21.3189                20.1994                13.0205
 IR Inten    --     97.3978               303.1711                 0.6862

                     46                     47                     48
                      A                      A                      A
 Frequencies --   1706.4496              1717.3267              1744.6674
 Red. masses --      6.4689                 9.2574                10.6111
 Frc consts  --     11.0986                16.0859                19.0298
 IR Inten    --     35.3986                 2.9202                 9.5026

                     49                     50                     51
                      A                      A                      A
 Frequencies --   3139.1165              3157.1018              3172.8866
 Red. masses --      1.0818                 1.0918                 1.0869
 Frc consts  --      6.2810                 6.4116                 6.4470
 IR Inten    --      0.4732                10.8635                 3.7805

                     52                     53                     54
                      A                      A                      A
 Frequencies --   3174.8374              3181.9407              3197.7738
 Red. masses --      1.0873                 1.0828                 1.0939
 Frc consts  --      6.4571                 6.4594                 6.5906
 IR Inten    --      3.4769                 0.1243                 0.5765

 - Thermochemistry -
 -------------------
 Temperature   298.150 Kelvin.  Pressure   1.00000 Atm.
 Atom     1 has atomic number  6 and mass  12.00000

 Molecular mass:   194.03276 amu.
 Principal axes and moments of inertia in atomic units:
                           1         2         3
     Eigenvalues --  1640.764273680.154094656.51044
           X            1.00000  -0.00000   0.00000
           Y            0.00000   0.99992  -0.01258
           Z           -0.00000   0.01258   0.99992
 This molecule is an asymmetric top.
 Rotational symmetry number  1.
 Warning -- assumption of classical behavior for rotation
           may cause significant error
 Rotational temperatures (Kelvin)      0.05279     0.02354     0.01860
 Rotational constants (GHZ):           1.09994     0.49040     0.38757
 Zero-point vibrational energy     362151.7 (Joules/Mol)
                                   86.55633 (Kcal/Mol)
 Warning -- explicit consideration of  16 degrees of freedom as
           vibrations may cause significant error
 Vibrational temperatures:     75.78    75.88    87.05   179.53   249.41
          (Kelvin)            296.76   374.05   389.52   436.85   458.09
                              584.89   642.30   650.93   693.39   720.43
                              781.77   965.37   988.16  1005.11  1042.98
                             1137.60  1154.10  1199.77  1221.06  1228.53
                             1361.37  1362.45  1390.37  1417.28  1419.97
                             1435.32  1492.62  1504.00  1576.54  1785.22
                             1809.30  1915.15  1954.19  1977.00  1994.96
                             2051.92  2085.99  2345.79  2348.02  2439.79
                             2455.20  2470.85  2510.18  4516.48  4542.36
                             4565.07  4567.88  4578.10  4600.88

 Zero-point correction=                           0.137936 (Hartree/Particle)
 Thermal correction to Energy=                    0.149555
 Thermal correction to Enthalpy=                  0.150500
 Thermal correction to Gibbs Free Energy=         0.098971
 Sum of electronic and zero-point Energies=           -718.500796
 Sum of electronic and thermal Energies=              -718.489177
 Sum of electronic and thermal Enthalpies=            -718.488233
 Sum of electronic and thermal Free Energies=         -718.539761

                     E (Thermal)             CV                S
                      KCal/Mol        Cal/Mol-Kelvin    Cal/Mol-Kelvin
 Total                   93.847             43.241            108.451
 Electronic               0.000              0.000              0.000
 Translational            0.889              2.981             41.694
 Rotational               0.889              2.981             31.709
 Vibrational             92.070             37.279             35.049
 Vibration     1          0.596              1.977              4.715
 Vibration     2          0.596              1.977              4.712
 Vibration     3          0.597              1.973              4.441
 Vibration     4          0.610              1.928              3.025
 Vibration     5          0.627              1.875              2.399
 Vibration     6          0.641              1.831              2.077
 Vibration     7          0.668              1.746              1.662
 Vibration     8          0.674              1.727              1.592
 Vibration     9          0.695              1.667              1.397
 Vibration    10          0.705              1.638              1.318
 Vibration    11          0.771              1.456              0.939
 Vibration    12          0.806              1.369              0.807
 Vibration    13          0.811              1.356              0.788
 Vibration    14          0.838              1.290              0.705
 Vibration    15          0.856              1.248              0.656
 Vibration    16          0.898              1.154              0.558

 Optimization completed.
    -- Stationary point found.
 Normal termination of Gaussian 09 at Thu Aug 26 12:29:27 2021.

 -----------------------------------------------------------------
 #P Geom=AllCheck Guess=TCheck SCRF=Check CCSD(T,E4T,FrzG4)/GTBas1
 -----------------------------------------------------------------

 Structure from the checkpoint file:  "/public/home/users/caep010/.cache/gau_scr/Gau-173077.chk"
 ------
 DNCOOC
 ------
 Charge =  0 Multiplicity = 1

 SCF Done:  E(RHF) =  -714.454674214     A.U. after   15 cycles
 E2 =    -0.2091247148D+01 EUMP2 =    -0.71654592136150D+03
 CCSD(T)
 CCSD(T)= -0.71667137354D+03
 \CCSD(T)=-716.6713735\RMSD=3.500e-09\PG=C01 [X(C8H6N2O4)]\\@
 Normal termination of Gaussian 09 at Thu Aug 26 14:32:00 2021.

 ---------------------------------------------------------
 #P Geom=AllCheck Guess=TCheck SCRF=Check MP4=FrzG4/GTBas2
 ---------------------------------------------------------

 Structure from the checkpoint file:  "/public/home/users/caep010/.cache/gau_scr/Gau-173077.chk"
 ------
 DNCOOC
 ------
 Charge =  0 Multiplicity = 1

 SCF Done:  E(RHF) =  -714.476374187     A.U. after   21 cycles
 E2 =    -0.2119213000D+01 EUMP2 =    -0.71659558718705D+03
 Normal termination of Gaussian 09 at Thu Aug 26 15:21:48 2021.

 ---------------------------------------------------------
 #P Geom=AllCheck Guess=TCheck SCRF=Check MP4=FrzG4/GTBas3
 ---------------------------------------------------------

 Structure from the checkpoint file:  "/public/home/users/caep010/.cache/gau_scr/Gau-173077.chk"
 ------
 DNCOOC
 ------
 Charge =  0 Multiplicity = 1

 SCF Done:  E(RHF) =  -714.526710521     A.U. after   13 cycles
 E2 =    -0.2488135274D+01 EUMP2 =    -0.71701484579498D+03
 Normal termination of Gaussian 09 at Thu Aug 26 20:28:21 2021.

 -----------------------------------------------------------
 #P Geom=AllCheck Guess=TCheck SCRF=Check MP2=Full/GTLargeXP
 -----------------------------------------------------------

 Structure from the checkpoint file:  "/public/home/users/caep010/.cache/gau_scr/Gau-173077.chk"
 ------
 DNCOOC
 ------
 Charge =  0 Multiplicity = 1

 SCF Done:  E(RHF) =  -714.704505468     A.U. after   14 cycles
 E2 =    -0.3257175778D+01 EUMP2 =    -0.71796168124602D+03
 Normal termination of Gaussian 09 at Thu Aug 26 20:40:54 2021.
 SCF Done:  E(RHF) =  -714.761764598     A.U. after    9 cycles
 Normal termination of Gaussian 09 at Thu Aug 26 20:48:43 2021.

                         Standard orientation:
 ---------------------------------------------------------------------
 Center     Atomic      Atomic             Coordinates (Angstroms)
 Number     Number       Type             X           Y           Z
 ---------------------------------------------------------------------
      1          6           0        1.535850    0.085045    0.206892
      2          6           0        0.667005   -0.575999    1.189390
      3          6           0       -0.667022   -0.576025    1.189390
      4          6           0       -1.535862    0.085019    0.206906
      5          6           0       -1.563088    1.365596   -0.174492
      6          6           0       -0.670004    2.432109    0.275262
      7          6           0        0.669971    2.432102    0.275264
      8          6           0        1.563100    1.365610   -0.174525
      9          7           0        2.615051   -0.792003   -0.328375
     10          1           0        1.185537   -1.143440    1.954843
     11          1           0       -1.173642    3.359528    0.541723
     12          7           0       -2.615033   -0.792034   -0.328369
     13          8           0       -2.645343   -1.935087    0.109524
     14          8           0       -3.393805   -0.335483   -1.152359
     15          8           0        3.393675   -0.335472   -1.152503
     16          1           0       -1.185522   -1.143542    1.954760
     17          8           0        2.645521   -1.935003    0.109660
     18          1           0       -2.375690    1.651889   -0.837522
     19          1           0        1.173571    3.359500    0.541704
     20          1           0        2.375530    1.651956   -0.837406
 ---------------------------------------------------------------------

 SCF Done:  E(RHF) =  -714.772818967     A.U. after    8 cycles

 The electronic state is 1-A.
 Alpha  occ. eigenvalues --  -20.61282 -20.61282 -20.60782 -20.60781 -15.86197
 Alpha  occ. eigenvalues --  -15.86197 -11.33298 -11.33298 -11.30664 -11.30662
 Alpha  occ. eigenvalues --  -11.29684 -11.29519 -11.28438 -11.28267  -1.61535
 Alpha  occ. eigenvalues --   -1.61529  -1.41016  -1.41011  -1.20551  -1.16120
 Alpha  occ. eigenvalues --   -1.12324  -1.05142  -1.01145  -0.95276  -0.89900
 Alpha  occ. eigenvalues --   -0.83906  -0.81720  -0.78521  -0.78474  -0.74376
 Alpha  occ. eigenvalues --   -0.73330  -0.73198  -0.72881  -0.69550  -0.68647
 Alpha  occ. eigenvalues --   -0.68201  -0.66054  -0.60540  -0.58129  -0.56485
 Alpha  occ. eigenvalues --   -0.52299  -0.50979  -0.50839  -0.49904  -0.48765
 Alpha  occ. eigenvalues --   -0.46588  -0.46530  -0.44133  -0.42776  -0.36045
 Alpha virt. eigenvalues --    0.00289   0.02025   0.03374   0.03377   0.04230
 Alpha virt. eigenvalues --    0.04484   0.05172   0.05956   0.06335   0.07015
 Alpha virt. eigenvalues --    0.07620   0.07918   0.08641   0.08775   0.09223

 Mulliken charges:
               1
     1  C    0.028672
     2  C   -0.187190
     3  C   -0.187160
     4  C    0.028643
     5  C   -0.074016
     6  C   -0.218855
     7  C   -0.218843
     8  C   -0.074020
     9  N    0.550843
    10  H    0.243242
    11  H    0.230624
    12  N    0.550847
    13  O   -0.400731
    14  O   -0.448692
    15  O   -0.448674
    16  H    0.243244
    17  O   -0.400739
    18  H    0.276091
    19  H    0.230623
    20  H    0.276093
 Sum of Mulliken charges =  -0.00000

 Dipole moment (field-independent basis, Debye):
    X=             -0.0000    Y=              6.3763    Z=              2.6984  Tot=              6.9238
 Quadrupole moment (field-independent basis, Debye-Ang):
   XX=           -100.5002   YY=            -77.4336   ZZ=            -80.3461
   XY=              0.0006   XZ=             -0.0001   YZ=             -2.2291

 Normal termination of Gaussian 09 at Thu Aug 26 21:45:30 2021.
