 Gaussian 09, Revision E.01,
 Gaussian 09:  ES64L-G09RevE.01 30-Nov-2015

 ----------------
 #P G4 OPT=calcfc
 ----------------

 ------
 DIDHIJ
 ------
 Symbolic Z-matrix:
 Charge =  0 Multiplicity = 1

 SCF Done:  E(RB3LYP) =  -649.376048948     A.U. after   14 cycles
 SCF Done:  E(RB3LYP) =  -649.487383242     A.U. after   13 cycles
 SCF Done:  E(RB3LYP) =  -649.570396910     A.U. after   14 cycles
 SCF Done:  E(RB3LYP) =  -649.572573635     A.U. after   14 cycles
 SCF Done:  E(RB3LYP) =  -649.565479970     A.U. after   13 cycles
 SCF Done:  E(RB3LYP) =  -649.572808595     A.U. after    9 cycles
 SCF Done:  E(RB3LYP) =  -649.574557380     A.U. after   15 cycles
 SCF Done:  E(RB3LYP) =  -649.548607222     A.U. after   15 cycles
 SCF Done:  E(RB3LYP) =  -649.575563646     A.U. after   15 cycles
 SCF Done:  E(RB3LYP) =  -649.576396613     A.U. after   13 cycles
 SCF Done:  E(RB3LYP) =  -649.577731156     A.U. after   10 cycles
 SCF Done:  E(RB3LYP) =  -649.577732513     A.U. after    9 cycles
 SCF Done:  E(RB3LYP) =  -649.577732590     A.U. after    7 cycles
 Optimization completed.
    -- Stationary point found.
 Normal termination of Gaussian 09 at Thu Aug 26 20:03:19 2021.

 ----------------------------------------------------------
 #P Geom=AllCheck Guess=TCheck SCRF=Check B3LYP/GTBas3 Freq
 ----------------------------------------------------------

 Structure from the checkpoint file:  "/public/home/users/caep010/.cache/gau_scr/Gau-173108.chk"
 ------
 DIDHIJ
 ------
 Charge =  0 Multiplicity = 1

 SCF Done:  E(RB3LYP) =  -649.577732590     A.U. after    1 cycles

  Exact polarizability: 132.125   2.707 102.907   0.355  -0.302  96.155
 Approx polarizability: 183.318  12.552 163.721   1.446  -0.066 146.757

                      1                      2                      3
                      A                      A                      A
 Frequencies --     43.4336                47.0028                51.3568
 Red. masses --      3.0134                 8.1824                 5.3250
 Frc consts  --      0.0033                 0.0107                 0.0083
 IR Inten    --      0.0495                 0.3784                 0.4537

                      4                      5                      6
                      A                      A                      A
 Frequencies --    125.7209               176.8558               200.7197
 Red. masses --      4.1396                 4.0565                 1.1166
 Frc consts  --      0.0386                 0.0748                 0.0265
 IR Inten    --      2.8935                 4.9829                 0.2814

                      7                      8                      9
                      A                      A                      A
 Frequencies --    213.2986               235.3038               253.2228
 Red. masses --      3.1236                 2.6258                 1.1478
 Frc consts  --      0.0837                 0.0857                 0.0434
 IR Inten    --      5.4244                 0.2535                 1.1790

                     10                     11                     12
                      A                      A                      A
 Frequencies --    265.0283               272.1823               276.7478
 Red. masses --      2.1486                 1.3005                 2.3925
 Frc consts  --      0.0889                 0.0568                 0.1080
 IR Inten    --      2.0599                 1.0293                 2.5963

                     13                     14                     15
                      A                      A                      A
 Frequencies --    328.8649               348.5749               360.9044
 Red. masses --      2.7839                 2.4786                 2.7737
 Frc consts  --      0.1774                 0.1774                 0.2129
 IR Inten    --      2.5847                 0.1694                 1.5948

                     16                     17                     18
                      A                      A                      A
 Frequencies --    381.4447               432.2140               462.3597
 Red. masses --      2.2238                 4.5299                 3.3248
 Frc consts  --      0.1906                 0.4986                 0.4188
 IR Inten    --      3.4071                 0.8801                 4.7514

                     19                     20                     21
                      A                      A                      A
 Frequencies --    474.7283               490.5508               529.0961
 Red. masses --      2.7072                 2.9743                 1.1225
 Frc consts  --      0.3595                 0.4217                 0.1852
 IR Inten    --      4.7747                 0.6873               116.3827

                     22                     23                     24
                      A                      A                      A
 Frequencies --    613.6287               631.4845               736.5039
 Red. masses --      3.5000                 3.2770                 7.4360
 Frc consts  --      0.7765                 0.7699                 2.3765
 IR Inten    --     35.8348                 6.5231                 1.5606

                     25                     26                     27
                      A                      A                      A
 Frequencies --    794.9351               823.6559               871.8195
 Red. masses --      2.9886                 3.5138                 2.5804
 Frc consts  --      1.1127                 1.4045                 1.1555
 IR Inten    --      4.8560                 2.7657                 6.3260

                     28                     29                     30
                      A                      A                      A
 Frequencies --    896.1959               912.0576               929.5406
 Red. masses --      3.6879                 1.7194                 1.6286
 Frc consts  --      1.7452                 0.8427                 0.8291
 IR Inten    --     21.2584                 0.4295                 0.2135

                     31                     32                     33
                      A                      A                      A
 Frequencies --    951.5337               956.0595               986.6116
 Red. masses --      2.0541                 1.2117                 1.5027
 Frc consts  --      1.0958                 0.6526                 0.8618
 IR Inten    --      4.3660                 0.0380                 0.9414

                     34                     35                     36
                      A                      A                      A
 Frequencies --   1026.3150              1039.6552              1062.1841
 Red. masses --      1.6809                 1.4148                 2.8973
 Frc consts  --      1.0432                 0.9010                 1.9259
 IR Inten    --      3.4399                 2.0322                 5.8157

                     37                     38                     39
                      A                      A                      A
 Frequencies --   1082.0658              1105.3707              1131.7940
 Red. masses --      3.3044                 4.7577                 1.1092
 Frc consts  --      2.2796                 3.4250                 0.8372
 IR Inten    --     85.2224                28.7527                 5.1218

                     40                     41                     42
                      A                      A                      A
 Frequencies --   1144.6073              1150.6704              1166.4454
 Red. masses --      3.5066                 1.8550                 1.6450
 Frc consts  --      2.7068                 1.4471                 1.3187
 IR Inten    --     15.5334                14.0903                 0.9592

                     43                     44                     45
                      A                      A                      A
 Frequencies --   1239.3284              1258.2149              1265.5542
 Red. masses --      2.2657                 1.9266                 2.0747
 Frc consts  --      2.0503                 1.7970                 1.9578
 IR Inten    --      9.3024                24.2550                11.3473

                     46                     47                     48
                      A                      A                      A
 Frequencies --   1274.5156              1294.6008              1295.7465
 Red. masses --      2.1172                 2.6988                 1.6991
 Frc consts  --      2.0263                 2.6650                 1.6808
 IR Inten    --    112.8392                28.7067                 4.3972

                     49                     50                     51
                      A                      A                      A
 Frequencies --   1336.7194              1385.7322              1396.2640
 Red. masses --      1.6782                 1.5425                 1.2512
 Frc consts  --      1.7668                 1.7451                 1.4372
 IR Inten    --     15.3981                18.2205                 8.3671

                     52                     53                     54
                      A                      A                      A
 Frequencies --   1397.6990              1424.5033              1426.6565
 Red. masses --      1.2607                 2.7491                 1.3554
 Frc consts  --      1.4511                 3.2868                 1.6253
 IR Inten    --      9.1035                69.1801                14.7292

                     55                     56                     57
                      A                      A                      A
 Frequencies --   1434.4814              1475.5955              1479.4789
 Red. masses --      1.3268                 1.0501                 1.0478
 Frc consts  --      1.6085                 1.3472                 1.3512
 IR Inten    --     70.7413                 0.3355                 0.2818

                     58                     59                     60
                      A                      A                      A
 Frequencies --   1487.5738              1489.1780              1496.8811
 Red. masses --      1.0444                 1.0813                 1.0714
 Frc consts  --      1.3616                 1.4129                 1.4145
 IR Inten    --      0.0976                 9.8254                 2.5056

                     61                     62                     63
                      A                      A                      A
 Frequencies --   1500.3413              1509.1431              1514.4062
 Red. masses --      1.0591                 1.0615                 1.0816
 Frc consts  --      1.4047                 1.4244                 1.4615
 IR Inten    --      2.9524                 4.9063                 1.4406

                     64                     65                     66
                      A                      A                      A
 Frequencies --   1522.7245              1639.9779              3004.5110
 Red. masses --      1.1004                11.1262                 1.0673
 Frc consts  --      1.5034                17.6309                 5.6767
 IR Inten    --     26.3820               209.0863                27.8569

                     67                     68                     69
                      A                      A                      A
 Frequencies --   3014.5826              3022.7035              3033.7483
 Red. masses --      1.0585                 1.0557                 1.0350
 Frc consts  --      5.6673                 5.6832                 5.6124
 IR Inten    --     40.6232                12.8102                31.9282

                     70                     71                     72
                      A                      A                      A
 Frequencies --   3034.7937              3042.6811              3069.4607
 Red. masses --      1.0356                 1.0373                 1.1090
 Frc consts  --      5.6198                 5.6579                 6.1563
 IR Inten    --     14.3175                 5.1877                20.8110

                     73                     74                     75
                      A                      A                      A
 Frequencies --   3091.3236              3093.4323              3101.0057
 Red. masses --      1.0979                 1.0999                 1.1010
 Frc consts  --      6.1817                 6.2015                 6.2382
 IR Inten    --      9.1748                19.6229                 7.6548

                     76                     77                     78
                      A                      A                      A
 Frequencies --   3101.3758              3107.8202              3110.0075
 Red. masses --      1.1006                 1.1002                 1.1010
 Frc consts  --      6.2371                 6.2609                 6.2745
 IR Inten    --      3.8392                61.4918                30.9472

                     79                     80                     81
                      A                      A                      A
 Frequencies --   3115.0982              3120.8925              3788.5636
 Red. masses --      1.1027                 1.1019                 1.0648
 Frc consts  --      6.3048                 6.3233                 9.0047
 IR Inten    --      0.8869                47.9216                55.1067

 - Thermochemistry -
 -------------------
 Temperature   298.150 Kelvin.  Pressure   1.00000 Atm.
 Atom     1 has atomic number  6 and mass  12.00000

 Molecular mass:   188.11609 amu.
 Principal axes and moments of inertia in atomic units:
                           1         2         3
     Eigenvalues --  1264.426233628.850764145.70047
           X            0.99989   0.01424  -0.00483
           Y           -0.01426   0.99989  -0.00456
           Z            0.00476   0.00463   0.99998
 This molecule is an asymmetric top.
 Rotational symmetry number  1.
 Warning -- assumption of classical behavior for rotation
           may cause significant error
 Rotational temperatures (Kelvin)      0.06850     0.02387     0.02089
 Rotational constants (GHZ):           1.42732     0.49733     0.43533
 Zero-point vibrational energy     648256.7 (Joules/Mol)
                                  154.93708 (Kcal/Mol)
 Warning -- explicit consideration of  22 degrees of freedom as
           vibrations may cause significant error
 Vibrational temperatures:     62.49    67.63    73.89   180.88   254.46
          (Kelvin)            288.79   306.89   338.55   364.33   381.32
                              391.61   398.18   473.16   501.52   519.26
                              548.81   621.86   665.23   683.03   705.79
                              761.25   882.87   908.56  1059.66  1143.73
                             1185.06  1254.35  1289.42  1312.25  1337.40
                             1369.04  1375.55  1419.51  1476.64  1495.83
                             1528.24  1556.85  1590.38  1628.40  1646.83
                             1655.56  1678.25  1783.11  1810.29  1820.85
                             1833.74  1862.64  1864.29  1923.24  1993.76
                             2008.91  2010.97  2049.54  2052.64  2063.90
                             2123.05  2128.64  2140.28  2142.59  2153.68
                             2158.65  2171.32  2178.89  2190.86  2359.56
                             4322.82  4337.31  4348.99  4364.88  4366.39
                             4377.73  4416.26  4447.72  4450.75  4461.65
                             4462.18  4471.45  4474.60  4481.93  4490.26
                             5450.89

 Zero-point correction=                           0.246908 (Hartree/Particle)
 Thermal correction to Energy=                    0.260935
 Thermal correction to Enthalpy=                  0.261880
 Thermal correction to Gibbs Free Energy=         0.206238
 Sum of electronic and zero-point Energies=           -649.330825
 Sum of electronic and thermal Energies=              -649.316797
 Sum of electronic and thermal Enthalpies=            -649.315853
 Sum of electronic and thermal Free Energies=         -649.371495

                     E (Thermal)             CV                S
                      KCal/Mol        Cal/Mol-Kelvin    Cal/Mol-Kelvin
 Total                  163.739             53.063            117.109
 Electronic               0.000              0.000              0.000
 Translational            0.889              2.981             41.602
 Rotational               0.889              2.981             31.320
 Vibrational            161.962             47.102             44.187
 Vibration     1          0.595              1.980              5.096
 Vibration     2          0.595              1.979              4.940
 Vibration     3          0.596              1.977              4.764
 Vibration     4          0.611              1.927              3.010
 Vibration     5          0.628              1.871              2.361
 Vibration     6          0.638              1.839              2.126
 Vibration     7          0.644              1.821              2.015
 Vibration     8          0.655              1.787              1.838
 Vibration     9          0.664              1.757              1.708
 Vibration    10          0.671              1.737              1.628
 Vibration    11          0.675              1.725              1.582
 Vibration    12          0.678              1.716              1.554
 Vibration    13          0.712              1.618              1.266
 Vibration    14          0.726              1.578              1.173
 Vibration    15          0.735              1.553              1.118
 Vibration    16          0.751              1.510              1.033
 Vibration    17          0.793              1.400              0.851
 Vibration    18          0.820              1.334              0.759
 Vibration    19          0.831              1.306              0.724
 Vibration    20          0.846              1.271              0.682
 Vibration    21          0.884              1.186              0.589
 Vibration    22          0.973              1.003              0.427

 Optimization completed.
    -- Stationary point found.
 Normal termination of Gaussian 09 at Thu Aug 26 20:07:57 2021.

 -----------------------------------------------------------------
 #P Geom=AllCheck Guess=TCheck SCRF=Check CCSD(T,E4T,FrzG4)/GTBas1
 -----------------------------------------------------------------

 Structure from the checkpoint file:  "/public/home/users/caep010/.cache/gau_scr/Gau-173108.chk"
 ------
 DIDHIJ
 ------
 Charge =  0 Multiplicity = 1

 SCF Done:  E(RHF) =  -645.573377495     A.U. after   14 cycles
 E2 =    -0.1940856193D+01 EUMP2 =    -0.64751423368776D+03
 CCSD(T)
 CCSD(T)= -0.64766734205D+03
 77267\CCSD=-647.5947806\CCSD(T)=-647.667342\RMSD=8.868e-09\PG=C01 [X(C
 Normal termination of Gaussian 09 at Thu Aug 26 22:35:40 2021.

 ---------------------------------------------------------
 #P Geom=AllCheck Guess=TCheck SCRF=Check MP4=FrzG4/GTBas2
 ---------------------------------------------------------

 Structure from the checkpoint file:  "/public/home/users/caep010/.cache/gau_scr/Gau-173108.chk"
 ------
 DIDHIJ
 ------
 Charge =  0 Multiplicity = 1

 SCF Done:  E(RHF) =  -645.589133713     A.U. after   14 cycles
 E2 =    -0.1968992142D+01 EUMP2 =    -0.64755812585466D+03
 Normal termination of Gaussian 09 at Thu Aug 26 23:44:30 2021.

 ---------------------------------------------------------
 #P Geom=AllCheck Guess=TCheck SCRF=Check MP4=FrzG4/GTBas3
 ---------------------------------------------------------

 Structure from the checkpoint file:  "/public/home/users/caep010/.cache/gau_scr/Gau-173108.chk"
 ------
 DIDHIJ
 ------
 Charge =  0 Multiplicity = 1

 SCF Done:  E(RHF) =  -645.648738835     A.U. after   13 cycles
 E2 =    -0.2374205543D+01 EUMP2 =    -0.64802294437838D+03
 Normal termination of Gaussian 09 at Fri Aug 27 09:55:13 2021.

 -----------------------------------------------------------
 #P Geom=AllCheck Guess=TCheck SCRF=Check MP2=Full/GTLargeXP
 -----------------------------------------------------------

 Structure from the checkpoint file:  "/public/home/users/caep010/.cache/gau_scr/Gau-173108.chk"
 ------
 DIDHIJ
 ------
 Charge =  0 Multiplicity = 1

 SCF Done:  E(RHF) =  -645.805436934     A.U. after   13 cycles
 E2 =    -0.3096019739D+01 EUMP2 =    -0.64890145667289D+03
 Normal termination of Gaussian 09 at Fri Aug 27 10:16:14 2021.
 SCF Done:  E(RHF) =  -645.855812296     A.U. after    9 cycles
 Normal termination of Gaussian 09 at Fri Aug 27 10:25:52 2021.

                         Standard orientation:
 ---------------------------------------------------------------------
 Center     Atomic      Atomic             Coordinates (Angstroms)
 Number     Number       Type             X           Y           Z
 ---------------------------------------------------------------------
      1          6           0       -1.114804   -0.133178    0.227673
      2          6           0       -0.067081   -0.349964   -0.895092
      3          6           0       -1.914912   -1.374401    0.604946
      4          1           0        0.026496    0.536968   -1.534941
      5          6           0        0.085975    0.180529    1.151552
      6          1           0        0.227128    1.261951    1.263618
      7          1           0        0.067208   -0.294878    2.138847
      8          8           0       -2.688219   -1.885722   -0.454771
      9          1           0       -3.377614   -1.230276   -0.617380
     10          1           0       -2.521194   -1.160572    1.497069
     11          1           0       -0.225127   -1.240317   -1.509319
     12          7           0        0.958675   -0.472830    0.158348
     13          6           0        2.352409   -0.052756   -0.053023
     14          6           0        2.929777   -0.951502   -1.158085
     15          1           0        2.833732   -2.005795   -0.883759
     16          1           0        3.987961   -0.727064   -1.321911
     17          6           0        2.497155    1.430035   -0.459676
     18          1           0        3.553348    1.683112   -0.594875
     19          1           0        1.986743    1.644823   -1.403501
     20          6           0        3.101833   -0.302661    1.265314
     21          1           0        4.165083   -0.071445    1.152310
     22          1           0        2.711813    0.328132    2.071305
     23          7           0       -2.027727    1.048990   -0.032532
     24          8           0       -3.236395    0.837753   -0.091420
     25          8           0       -1.512139    2.142312   -0.187973
     26          1           0        2.408991   -0.797725   -2.109190
     27          1           0        3.002000   -1.348220    1.570502
     28          1           0        2.093940    2.102714    0.303393
     29          1           0       -1.185235   -2.145870    0.868788
 ---------------------------------------------------------------------

 SCF Done:  E(RHF) =  -645.866386002     A.U. after    8 cycles

 The electronic state is 1-A.
 Alpha  occ. eigenvalues --  -20.61133 -20.60992 -20.56332 -15.85238 -15.56175
 Alpha  occ. eigenvalues --  -11.31595 -11.29884 -11.28252 -11.27966 -11.27532
 Alpha  occ. eigenvalues --  -11.22154 -11.22045 -11.21995  -1.61277  -1.40924
 Alpha  occ. eigenvalues --   -1.37419  -1.27933  -1.13118  -1.05635  -0.96333
 Alpha  occ. eigenvalues --   -0.95023  -0.94353  -0.93213  -0.90280  -0.81563
 Alpha  occ. eigenvalues --   -0.75227  -0.73878  -0.73117  -0.72604  -0.70436
 Alpha  occ. eigenvalues --   -0.67853  -0.64236  -0.63026  -0.61556  -0.61044
 Alpha  occ. eigenvalues --   -0.59414  -0.57681  -0.56110  -0.54561  -0.54242
 Alpha  occ. eigenvalues --   -0.53066  -0.52339  -0.51458  -0.50621  -0.49296
 Alpha  occ. eigenvalues --   -0.48636  -0.47347  -0.46522  -0.46303  -0.45368
 Alpha  occ. eigenvalues --   -0.37344
 Alpha virt. eigenvalues --    0.02531   0.03359   0.03756   0.04082   0.05148
 Alpha virt. eigenvalues --    0.05241   0.05783   0.06052   0.06751   0.07208
 Alpha virt. eigenvalues --    0.07752   0.08213   0.08368   0.08636   0.08904

 Mulliken charges:
               1
     1  C    0.297154
     2  C   -0.340193
     3  C   -0.214716
     4  H    0.209458
     5  C   -0.362576
     6  H    0.213984
     7  H    0.190404
     8  O   -0.589704
     9  H    0.398045
    10  H    0.170470
    11  H    0.209633
    12  N   -0.157147
    13  C    0.466210
    14  C   -0.642470
    15  H    0.183971
    16  H    0.180965
    17  C   -0.622565
    18  H    0.179297
    19  H    0.173935
    20  C   -0.642911
    21  H    0.182294
    22  H    0.169967
    23  N    0.490681
    24  O   -0.457078
    25  O   -0.422151
    26  H    0.171884
    27  H    0.183446
    28  H    0.176752
    29  H    0.202960
 Sum of Mulliken charges =  -0.00000

 Dipole moment (field-independent basis, Debye):
    X=              3.0599    Y=             -0.6508    Z=              1.1653  Tot=              3.3383
 Quadrupole moment (field-independent basis, Debye-Ang):
   XX=            -85.2217   YY=            -90.8461   ZZ=            -76.3517
   XY=              2.9386   XZ=             -2.7357   YZ=             -0.7743

 Normal termination of Gaussian 09 at Fri Aug 27 11:32:27 2021.
