 Gaussian 09, Revision E.01,
 Gaussian 09:  ES64L-G09RevE.01 30-Nov-2015

 ----------------
 #P G4 OPT=calcfc
 ----------------

 ------
 DUJQOP
 ------
 Symbolic Z-matrix:
 Charge =  0 Multiplicity = 1

 SCF Done:  E(RB3LYP) =  -680.616612336     A.U. after   15 cycles
 SCF Done:  E(RB3LYP) =  -680.708181070     A.U. after   13 cycles
 SCF Done:  E(RB3LYP) =  -680.740182427     A.U. after   15 cycles
 SCF Done:  E(RB3LYP) =  -680.741984149     A.U. after   14 cycles
 SCF Done:  E(RB3LYP) =  -680.742461787     A.U. after   14 cycles
 SCF Done:  E(RB3LYP) =  -680.742618731     A.U. after   12 cycles
 SCF Done:  E(RB3LYP) =  -680.742668244     A.U. after   10 cycles
 SCF Done:  E(RB3LYP) =  -680.742678743     A.U. after   11 cycles
 SCF Done:  E(RB3LYP) =  -680.742680972     A.U. after    9 cycles
 SCF Done:  E(RB3LYP) =  -680.742681910     A.U. after    9 cycles
 SCF Done:  E(RB3LYP) =  -680.742683296     A.U. after   10 cycles
 SCF Done:  E(RB3LYP) =  -680.742686186     A.U. after   10 cycles
 SCF Done:  E(RB3LYP) =  -680.742687387     A.U. after    9 cycles
 Optimization completed.
    -- Stationary point found.
 Normal termination of Gaussian 09 at Thu Aug 26 12:41:32 2021.

 ----------------------------------------------------------
 #P Geom=AllCheck Guess=TCheck SCRF=Check B3LYP/GTBas3 Freq
 ----------------------------------------------------------

 Structure from the checkpoint file:  "/public/home/users/caep010/.cache/gau_scr/Gau-210132.chk"
 ------
 DUJQOP
 ------
 Charge =  0 Multiplicity = 1

 SCF Done:  E(RB3LYP) =  -680.742687387     A.U. after    1 cycles

  Exact polarizability: 152.425   0.179 122.490   0.377  -0.058  43.747
 Approx polarizability: 261.182   9.547 226.544   1.379  -0.762  72.730

                      1                      2                      3
                      A                      A                      A
 Frequencies --     41.6191                67.3084               127.5612
 Red. masses --      3.6494                12.9761                 7.4881
 Frc consts  --      0.0037                 0.0346                 0.0718
 IR Inten    --     21.2633                 2.0813                 0.3918

                      4                      5                      6
                      A                      A                      A
 Frequencies --    152.1539               168.3662               222.4268
 Red. masses --      4.9148                 7.6309                 1.5130
 Frc consts  --      0.0670                 0.1274                 0.0441
 IR Inten    --      1.4189                11.4786               141.2871

                      7                      8                      9
                      A                      A                      A
 Frequencies --    304.9660               314.2281               353.7544
 Red. masses --      5.0691                 6.4463                11.3735
 Frc consts  --      0.2778                 0.3750                 0.8386
 IR Inten    --     11.2871                 5.0338                 1.6849

                     10                     11                     12
                      A                      A                      A
 Frequencies --    378.1633               424.4858               440.9701
 Red. masses --      7.4894                 2.6180                 6.6227
 Frc consts  --      0.6310                 0.2779                 0.7588
 IR Inten    --      6.3143                 9.8492                 2.0079

                     13                     14                     15
                      A                      A                      A
 Frequencies --    500.7658               532.2303               558.8080
 Red. masses --      5.0999                 3.2375                 2.3194
 Frc consts  --      0.7535                 0.5403                 0.4267
 IR Inten    --      1.0620                 5.2083                 6.8074

                     16                     17                     18
                      A                      A                      A
 Frequencies --    566.5687               649.6053               673.8983
 Red. masses --      1.7185                 7.2715                 4.4935
 Frc consts  --      0.3250                 1.8079                 1.2023
 IR Inten    --      9.1879                20.5942                43.8406

                     19                     20                     21
                      A                      A                      A
 Frequencies --    715.1732               766.1805               777.9502
 Red. masses --      4.9665                 5.1150                 5.5916
 Frc consts  --      1.4967                 1.7691                 1.9939
 IR Inten    --     14.9197                14.1416                16.7844

                     22                     23                     24
                      A                      A                      A
 Frequencies --    796.2522               835.6096               873.2746
 Red. masses --      3.3697                 7.7296                 1.7792
 Frc consts  --      1.2588                 3.1799                 0.7994
 IR Inten    --      0.3581                 2.8727                27.1591

                     25                     26                     27
                      A                      A                      A
 Frequencies --    921.0230               925.2257               930.4294
 Red. masses --      1.1073                 1.6256                 5.4909
 Frc consts  --      0.5534                 0.8199                 2.8006
 IR Inten    --     79.7518                 1.1357                23.1934

                     28                     29                     30
                      A                      A                      A
 Frequencies --    996.6598              1078.8352              1107.2559
 Red. masses --      1.3351                 2.2729                 1.7910
 Frc consts  --      0.7814                 1.5586                 1.2937
 IR Inten    --      0.3070                 5.4278                16.6018

                     31                     32                     33
                      A                      A                      A
 Frequencies --   1143.2116              1157.0552              1260.7886
 Red. masses --      1.4443                 2.9686                 1.4727
 Frc consts  --      1.1121                 2.3416                 1.3793
 IR Inten    --      9.6964                76.3613                25.8886

                     34                     35                     36
                      A                      A                      A
 Frequencies --   1321.5113              1349.8400              1385.8280
 Red. masses --      3.5092                 3.0134                10.0191
 Frc consts  --      3.6107                 3.2350                11.3369
 IR Inten    --    100.2202               115.9511               461.6698

                     37                     38                     39
                      A                      A                      A
 Frequencies --   1422.8832              1450.1725              1478.2680
 Red. masses --      4.9328                 2.8803                 4.2814
 Frc consts  --      5.8842                 3.5688                 5.5125
 IR Inten    --    132.2128                80.7406                14.7605

                     40                     41                     42
                      A                      A                      A
 Frequencies --   1525.1288              1607.9420              1616.9121
 Red. masses --      2.6163                 3.4285                 2.1435
 Frc consts  --      3.5855                 5.2228                 3.3018
 IR Inten    --    164.7478               138.2755                82.9794

                     43                     44                     45
                      A                      A                      A
 Frequencies --   1635.6872              1662.6129              1729.9512
 Red. masses --      2.9925                 5.7108                 4.5264
 Frc consts  --      4.7173                 9.3010                 7.9813
 IR Inten    --     70.5353               310.3159               269.0611

                     46                     47                     48
                      A                      A                      A
 Frequencies --   3128.1881              3210.0534              3222.4192
 Red. masses --      1.0705                 1.0894                 1.0892
 Frc consts  --      6.1717                 6.6142                 6.6640
 IR Inten    --    612.7635                 2.0695                 2.2836

                     49                     50                     51
                      A                      A                      A
 Frequencies --   3234.8094              3616.2787              3751.3517
 Red. masses --      1.0932                 1.0462                 1.1031
 Frc consts  --      6.7400                 8.0607                 9.1466
 IR Inten    --      2.6038                72.0206                51.0010

 - Thermochemistry -
 -------------------
 Temperature   298.150 Kelvin.  Pressure   1.00000 Atm.
 Atom     1 has atomic number  8 and mass  15.99491

 Molecular mass:   182.03276 amu.
 Principal axes and moments of inertia in atomic units:
                           1         2         3
     Eigenvalues --  1200.663373333.131004532.53186
           X            0.99980  -0.01985  -0.00041
           Y            0.01986   0.99980   0.00171
           Z            0.00037  -0.00172   1.00000
 This molecule is an asymmetric top.
 Rotational symmetry number  1.
 Warning -- assumption of classical behavior for rotation
           may cause significant error
 Rotational temperatures (Kelvin)      0.07214     0.02599     0.01911
 Rotational constants (GHZ):           1.50312     0.54146     0.39818
 Zero-point vibrational energy     353572.1 (Joules/Mol)
                                   84.50576 (Kcal/Mol)
 Warning -- explicit consideration of  16 degrees of freedom as
           vibrations may cause significant error
 Vibrational temperatures:     59.88    96.84   183.53   218.92   242.24
          (Kelvin)            320.02   438.78   452.10   508.97   544.09
                              610.74   634.46   720.49   765.76   804.00
                              815.16   934.64   969.59  1028.97  1102.36
                             1119.30  1145.63  1202.25  1256.45  1325.15
                             1331.19  1338.68  1433.97  1552.20  1593.09
                             1644.82  1664.74  1813.99  1901.36  1942.12
                             1993.89  2047.21  2086.47  2126.90  2194.32
                             2313.47  2326.37  2353.39  2392.13  2489.01
                             4500.76  4618.55  4636.34  4654.16  5203.01
                             5397.35

 Zero-point correction=                           0.134669 (Hartree/Particle)
 Thermal correction to Energy=                    0.145565
 Thermal correction to Enthalpy=                  0.146509
 Thermal correction to Gibbs Free Energy=         0.097093
 Sum of electronic and zero-point Energies=           -680.608019
 Sum of electronic and thermal Energies=              -680.597123
 Sum of electronic and thermal Enthalpies=            -680.596179
 Sum of electronic and thermal Free Energies=         -680.645594

                     E (Thermal)             CV                S
                      KCal/Mol        Cal/Mol-Kelvin    Cal/Mol-Kelvin
 Total                   91.343             40.996            104.005
 Electronic               0.000              0.000              0.000
 Translational            0.889              2.981             41.504
 Rotational               0.889              2.981             31.273
 Vibrational             89.566             35.034             31.228
 Vibration     1          0.594              1.981              5.180
 Vibration     2          0.598              1.970              4.231
 Vibration     3          0.611              1.926              2.982
 Vibration     4          0.619              1.900              2.645
 Vibration     5          0.625              1.881              2.454
 Vibration     6          0.648              1.807              1.939
 Vibration     7          0.696              1.664              1.390
 Vibration     8          0.702              1.647              1.340
 Vibration     9          0.730              1.568              1.149
 Vibration    10          0.748              1.517              1.047
 Vibration    11          0.786              1.417              0.877
 Vibration    12          0.801              1.381              0.824
 Vibration    13          0.856              1.248              0.656
 Vibration    14          0.887              1.179              0.582
 Vibration    15          0.914              1.120              0.526
 Vibration    16          0.922              1.104              0.511

 Optimization completed.
    -- Stationary point found.
 Normal termination of Gaussian 09 at Thu Aug 26 12:44:19 2021.

 -----------------------------------------------------------------
 #P Geom=AllCheck Guess=TCheck SCRF=Check CCSD(T,E4T,FrzG4)/GTBas1
 -----------------------------------------------------------------

 Structure from the checkpoint file:  "/public/home/users/caep010/.cache/gau_scr/Gau-210132.chk"
 ------
 DUJQOP
 ------
 Charge =  0 Multiplicity = 1

 SCF Done:  E(RHF) =  -676.819535300     A.U. after   15 cycles
 E2 =    -0.1939070216D+01 EUMP2 =    -0.67875860551643D+03
 CCSD(T)
 CCSD(T)= -0.67886681586D+03
 73\CCSD=-678.7830718\CCSD(T)=-678.8668159\RMSD=4.189e-09\PG=C01 [X(C7H
 Normal termination of Gaussian 09 at Thu Aug 26 14:14:56 2021.

 ---------------------------------------------------------
 #P Geom=AllCheck Guess=TCheck SCRF=Check MP4=FrzG4/GTBas2
 ---------------------------------------------------------

 Structure from the checkpoint file:  "/public/home/users/caep010/.cache/gau_scr/Gau-210132.chk"
 ------
 DUJQOP
 ------
 Charge =  0 Multiplicity = 1

 SCF Done:  E(RHF) =  -676.839347940     A.U. after   19 cycles
 E2 =    -0.1965602675D+01 EUMP2 =    -0.67880495061480D+03
 Normal termination of Gaussian 09 at Thu Aug 26 14:47:54 2021.

 ---------------------------------------------------------
 #P Geom=AllCheck Guess=TCheck SCRF=Check MP4=FrzG4/GTBas3
 ---------------------------------------------------------

 Structure from the checkpoint file:  "/public/home/users/caep010/.cache/gau_scr/Gau-210132.chk"
 ------
 DUJQOP
 ------
 Charge =  0 Multiplicity = 1

 SCF Done:  E(RHF) =  -676.893485468     A.U. after   13 cycles
 E2 =    -0.2322897048D+01 EUMP2 =    -0.67921638251678D+03
 Normal termination of Gaussian 09 at Thu Aug 26 18:56:41 2021.

 -----------------------------------------------------------
 #P Geom=AllCheck Guess=TCheck SCRF=Check MP2=Full/GTLargeXP
 -----------------------------------------------------------

 Structure from the checkpoint file:  "/public/home/users/caep010/.cache/gau_scr/Gau-210132.chk"
 ------
 DUJQOP
 ------
 Charge =  0 Multiplicity = 1

 SCF Done:  E(RHF) =  -677.065391745     A.U. after   14 cycles
 E2 =    -0.3044004332D+01 EUMP2 =    -0.68010939607664D+03
 Normal termination of Gaussian 09 at Thu Aug 26 19:09:33 2021.
 SCF Done:  E(RHF) =  -677.119612008     A.U. after    9 cycles
 Normal termination of Gaussian 09 at Thu Aug 26 19:15:45 2021.

                         Standard orientation:
 ---------------------------------------------------------------------
 Center     Atomic      Atomic             Coordinates (Angstroms)
 Number     Number       Type             X           Y           Z
 ---------------------------------------------------------------------
      1          8           0        2.285717    1.889938    0.002590
      2          6           0        1.104840    1.290746   -0.006253
      3          6           0       -0.049380    2.096886   -0.026270
      4          1           0        0.084440    3.171732   -0.038554
      5          6           0       -1.304333    1.529198   -0.023731
      6          6           0       -1.423977    0.135936   -0.000600
      7          6           0       -0.307096   -0.681328    0.013746
      8          1           0        2.966467    1.158920    0.035248
      9          1           0       -2.201561    2.133520   -0.035692
     10          1           0       -0.480119   -1.748945    0.044757
     11          6           0        0.972985   -0.128036    0.003403
     12          6           0        2.214837   -0.942923    0.005722
     13          8           0        3.331062   -0.407599    0.060261
     14          7           0       -2.750601   -0.475241    0.010680
     15          8           0       -2.816179   -1.701377    0.031163
     16          7           0        2.112363   -2.290508   -0.045892
     17          1           0        2.970906   -2.815122   -0.088671
     18          1           0        1.246603   -2.772857   -0.202089
     19          8           0       -3.721391    0.272803   -0.002092
 ---------------------------------------------------------------------

 SCF Done:  E(RHF) =  -677.130202462     A.U. after    8 cycles

 The electronic state is 1-A.
 Alpha  occ. eigenvalues --  -20.60470 -20.60250 -20.59840 -20.55878 -15.85918
 Alpha  occ. eigenvalues --  -15.61744 -11.40010 -11.35836 -11.30962 -11.30461
 Alpha  occ. eigenvalues --  -11.29376 -11.28160 -11.26233  -1.60834  -1.44622
 Alpha  occ. eigenvalues --   -1.41162  -1.40199  -1.25163  -1.20744  -1.09765
 Alpha  occ. eigenvalues --   -1.07850  -0.96308  -0.92650  -0.86176  -0.83715
 Alpha  occ. eigenvalues --   -0.79820  -0.76440  -0.74560  -0.73834  -0.72554
 Alpha  occ. eigenvalues --   -0.71301  -0.69254  -0.65407  -0.64055  -0.63717
 Alpha  occ. eigenvalues --   -0.62164  -0.59550  -0.59248  -0.55418  -0.52269
 Alpha  occ. eigenvalues --   -0.50458  -0.49993  -0.46748  -0.46223  -0.45600
 Alpha  occ. eigenvalues --   -0.39330  -0.35580
 Alpha virt. eigenvalues --    0.02549   0.03308   0.03815   0.04463   0.04533
 Alpha virt. eigenvalues --    0.05407   0.05479   0.05978   0.07160   0.07401
 Alpha virt. eigenvalues --    0.07697   0.07895   0.08002   0.09305   0.09837

 Mulliken charges:
               1
     1  O   -0.604405
     2  C    0.249612
     3  C   -0.181537
     4  H    0.245886
     5  C   -0.192004
     6  C    0.024321
     7  C   -0.203465
     8  H    0.453353
     9  H    0.267607
    10  H    0.235707
    11  C    0.218253
    12  C    0.533592
    13  O   -0.681201
    14  N    0.547249
    15  O   -0.457838
    16  N   -0.728948
    17  H    0.376491
    18  H    0.342218
    19  O   -0.444894
 Sum of Mulliken charges =  -0.00000

 Dipole moment (field-independent basis, Debye):
    X=              2.1785    Y=             -1.4370    Z=             -0.4082  Tot=              2.6415
 Quadrupole moment (field-independent basis, Debye-Ang):
   XX=            -98.9142   YY=            -64.0535   ZZ=            -75.4941
   XY=            -13.7926   XZ=             -0.7073   YZ=              1.0957

 Normal termination of Gaussian 09 at Thu Aug 26 20:01:59 2021.
