 Gaussian 09, Revision E.01,
 Gaussian 09:  ES64L-G09RevE.01 30-Nov-2015

 ----------------
 #P G4 OPT=calcfc
 ----------------

 --------
 DNBENZ10
 --------
 Symbolic Z-matrix:
 Charge =  0 Multiplicity = 1

 SCF Done:  E(RB3LYP) =  -641.138463939     A.U. after   16 cycles
 SCF Done:  E(RB3LYP) =  -641.232663833     A.U. after   15 cycles
 SCF Done:  E(RB3LYP) =  -641.285860436     A.U. after   15 cycles
 SCF Done:  E(RB3LYP) =  -641.291776099     A.U. after   15 cycles
 SCF Done:  E(RB3LYP) =  -641.292857945     A.U. after   16 cycles
 SCF Done:  E(RB3LYP) =  -641.292941806     A.U. after   13 cycles
 SCF Done:  E(RB3LYP) =  -641.292946017     A.U. after    9 cycles
 SCF Done:  E(RB3LYP) =  -641.292946658     A.U. after    9 cycles
 Optimization completed.
    -- Stationary point found.
 Normal termination of Gaussian 09 at Thu Aug 26 08:19:15 2021.

 ----------------------------------------------------------
 #P Geom=AllCheck Guess=TCheck SCRF=Check B3LYP/GTBas3 Freq
 ----------------------------------------------------------

 Structure from the checkpoint file:  "/public/home/users/caep010/.cache/gau_scr/Gau-13926.chk"
 --------
 DNBENZ10
 --------
 Charge =  0 Multiplicity = 1

 SCF Done:  E(RB3LYP) =  -641.292946658     A.U. after    1 cycles

  Exact polarizability: 128.087   0.004 108.417   0.001  -0.003  38.974
 Approx polarizability: 212.899   0.004 221.022   0.005  -0.023  64.766

                      1                      2                      3
                      A                      A                      A
 Frequencies --     52.0376                57.7114               155.7086
 Red. masses --     15.9218                12.4816                 6.0216
 Frc consts  --      0.0254                 0.0245                 0.0860
 IR Inten    --      0.0000                 1.4235                 3.2035

                      4                      5                      6
                      A                      A                      A
 Frequencies --    161.6038               195.4259               303.0961
 Red. masses --     12.9282                 4.7784                 7.5673
 Frc consts  --      0.1989                 0.1075                 0.4096
 IR Inten    --      3.5000                 0.0001                 0.2751

                      7                      8                      9
                      A                      A                      A
 Frequencies --    352.6613               407.3278               441.0616
 Red. masses --     12.8593                 8.0712                 3.2587
 Frc consts  --      0.9423                 0.7890                 0.3735
 IR Inten    --      0.8846                 1.4550                 0.0001

                     10                     11                     12
                      A                      A                      A
 Frequencies --    485.0130               516.0813               568.0960
 Red. masses --      5.5846                11.1318                 5.7245
 Frc consts  --      0.7740                 1.7468                 1.0885
 IR Inten    --      0.0001                 3.2066                 0.8220

                     13                     14                     15
                      A                      A                      A
 Frequencies --    662.3506               678.3752               740.1105
 Red. masses --      7.1460                 3.3309                10.3282
 Frc consts  --      1.8471                 0.9031                 3.3332
 IR Inten    --      2.1518                 0.9863                42.9666

                     16                     17                     18
                      A                      A                      A
 Frequencies --    740.7935               795.9154               847.8243
 Red. masses --      2.7153                 8.1611                 1.5591
 Frc consts  --      0.8779                 3.0460                 0.6603
 IR Inten    --     55.2900                 0.0001                 6.3633

                     19                     20                     21
                      A                      A                      A
 Frequencies --    852.8713               918.5932               975.3957
 Red. masses --     13.5625                 7.0983                 1.5119
 Frc consts  --      5.8124                 3.5290                 0.8475
 IR Inten    --     17.9635                32.6843                 7.7474

                     22                     23                     24
                      A                      A                      A
 Frequencies --    977.5653              1008.1934              1016.5573
 Red. masses --      1.4189                 1.3657                 6.3318
 Frc consts  --      0.7989                 0.8179                 3.8551
 IR Inten    --      0.0203                 1.8684                 0.1417

                     25                     26                     27
                      A                      A                      A
 Frequencies --   1076.1473              1100.5010              1160.4710
 Red. masses --      1.5149                 1.4850                 6.9851
 Frc consts  --      1.0337                 1.0597                 5.5423
 IR Inten    --     65.6125                16.5343                10.1639

                     28                     29                     30
                      A                      A                      A
 Frequencies --   1180.3028              1283.6867              1372.6755
 Red. masses --      1.1194                 1.4073                 9.0132
 Frc consts  --      0.9188                 1.3663                10.0062
 IR Inten    --      4.8481                 1.0953                 7.1289

                     31                     32                     33
                      A                      A                      A
 Frequencies --   1391.0355              1401.1948              1464.4623
 Red. masses --     14.4228                14.8018                 3.1594
 Frc consts  --     16.4428                17.1223                 3.9922
 IR Inten    --    375.1939                88.7978                 1.7435

                     34                     35                     36
                      A                      A                      A
 Frequencies --   1494.7996              1617.9779              1619.7964
 Red. masses --      2.3643                 9.1689                 8.0404
 Frc consts  --      3.1126                14.1421                12.4293
 IR Inten    --      7.1416               153.1812                18.6017

                     37                     38                     39
                      A                      A                      A
 Frequencies --   1656.7785              1673.8649              3203.0457
 Red. masses --     10.5806                10.8527                 1.0896
 Frc consts  --     17.1115                17.9155                 6.5861
 IR Inten    --     88.7993               167.5373                 3.4859

                     40                     41                     42
                      A                      A                      A
 Frequencies --   3237.8279              3242.3724              3262.2441
 Red. masses --      1.0919                 1.0931                 1.0911
 Frc consts  --      6.7444                 6.7708                 6.8413
 IR Inten    --      5.2960                 2.3281                19.6232

 - Thermochemistry -
 -------------------
 Temperature   298.150 Kelvin.  Pressure   1.00000 Atm.
 Atom     1 has atomic number  6 and mass  12.00000

 Molecular mass:   168.01711 amu.
 Principal axes and moments of inertia in atomic units:
                           1         2         3
     Eigenvalues --   920.937752941.883323862.82094
           X            1.00000   0.00000  -0.00000
           Y           -0.00000   1.00000   0.00001
           Z            0.00000  -0.00001   1.00000
 This molecule is an asymmetric top.
 Rotational symmetry number  1.
 Warning -- assumption of classical behavior for rotation
           may cause significant error
 Rotational temperatures (Kelvin)      0.09405     0.02944     0.02242
 Rotational constants (GHZ):           1.95968     0.61346     0.46721
 Zero-point vibrational energy     277231.9 (Joules/Mol)
                                   66.26001 (Kcal/Mol)
 Warning -- explicit consideration of  12 degrees of freedom as
           vibrations may cause significant error
 Vibrational temperatures:     74.87    83.03   224.03   232.51   281.17
          (Kelvin)            436.09   507.40   586.05   634.59   697.82
                              742.52   817.36   952.97   976.03  1064.85
                             1065.84  1145.14  1219.83  1227.09  1321.65
                             1403.38  1406.50  1450.56  1462.60  1548.33
                             1583.37  1669.66  1698.19  1846.94  1974.97
                             2001.39  2016.00  2107.03  2150.68  2327.91
                             2330.52  2383.73  2408.32  4608.46  4658.51
                             4665.04  4693.64

 Zero-point correction=                           0.105592 (Hartree/Particle)
 Thermal correction to Energy=                    0.114877
 Thermal correction to Enthalpy=                  0.115821
 Thermal correction to Gibbs Free Energy=         0.069569
 Sum of electronic and zero-point Energies=           -641.187355
 Sum of electronic and thermal Energies=              -641.178070
 Sum of electronic and thermal Enthalpies=            -641.177126
 Sum of electronic and thermal Free Energies=         -641.223377

                     E (Thermal)             CV                S
                      KCal/Mol        Cal/Mol-Kelvin    Cal/Mol-Kelvin
 Total                   72.086             34.168             97.345
 Electronic               0.000              0.000              0.000
 Translational            0.889              2.981             41.265
 Rotational               0.889              2.981             30.727
 Vibrational             70.309             28.206             25.353
 Vibration     1          0.596              1.977              4.738
 Vibration     2          0.596              1.974              4.534
 Vibration     3          0.620              1.896              2.601
 Vibration     4          0.622              1.889              2.531
 Vibration     5          0.636              1.846              2.176
 Vibration     6          0.695              1.668              1.400
 Vibration     7          0.729              1.570              1.154
 Vibration     8          0.772              1.454              0.936
 Vibration     9          0.801              1.381              0.823
 Vibration    10          0.841              1.283              0.697
 Vibration    11          0.871              1.214              0.619
 Vibration    12          0.924              1.100              0.508

 Optimization completed.
    -- Stationary point found.
 Normal termination of Gaussian 09 at Thu Aug 26 08:21:15 2021.

 -----------------------------------------------------------------
 #P Geom=AllCheck Guess=TCheck SCRF=Check CCSD(T,E4T,FrzG4)/GTBas1
 -----------------------------------------------------------------

 Structure from the checkpoint file:  "/public/home/users/caep010/.cache/gau_scr/Gau-13926.chk"
 --------
 DNBENZ10
 --------
 Charge =  0 Multiplicity = 1

 SCF Done:  E(RHF) =  -637.632551779     A.U. after   14 cycles
 E2 =    -0.1838665207D+01 EUMP2 =    -0.63947121698506D+03
 CCSD(T)
 CCSD(T)= -0.63956270413D+03
 72\MP4SDQ=-639.4833398\CCSD=-639.4763491\CCSD(T)=-639.5627041\RMSD=6.5
 Normal termination of Gaussian 09 at Thu Aug 26 09:15:10 2021.

 ---------------------------------------------------------
 #P Geom=AllCheck Guess=TCheck SCRF=Check MP4=FrzG4/GTBas2
 ---------------------------------------------------------

 Structure from the checkpoint file:  "/public/home/users/caep010/.cache/gau_scr/Gau-13926.chk"
 --------
 DNBENZ10
 --------
 Charge =  0 Multiplicity = 1

 SCF Done:  E(RHF) =  -637.651101263     A.U. after   14 cycles
 E2 =    -0.1862176066D+01 EUMP2 =    -0.63951327732872D+03
 Normal termination of Gaussian 09 at Thu Aug 26 09:33:33 2021.

 ---------------------------------------------------------
 #P Geom=AllCheck Guess=TCheck SCRF=Check MP4=FrzG4/GTBas3
 ---------------------------------------------------------

 Structure from the checkpoint file:  "/public/home/users/caep010/.cache/gau_scr/Gau-13926.chk"
 --------
 DNBENZ10
 --------
 Charge =  0 Multiplicity = 1

 SCF Done:  E(RHF) =  -637.695715022     A.U. after   12 cycles
 E2 =    -0.2187461867D+01 EUMP2 =    -0.63988317688878D+03
 Normal termination of Gaussian 09 at Thu Aug 26 11:44:26 2021.

 -----------------------------------------------------------
 #P Geom=AllCheck Guess=TCheck SCRF=Check MP2=Full/GTLargeXP
 -----------------------------------------------------------

 Structure from the checkpoint file:  "/public/home/users/caep010/.cache/gau_scr/Gau-13926.chk"
 --------
 DNBENZ10
 --------
 Charge =  0 Multiplicity = 1

 SCF Done:  E(RHF) =  -637.856203265     A.U. after   15 cycles
 E2 =    -0.2854103033D+01 EUMP2 =    -0.64071030629836D+03
 Normal termination of Gaussian 09 at Thu Aug 26 11:59:56 2021.
 SCF Done:  E(RHF) =  -637.908178697     A.U. after   10 cycles
 Normal termination of Gaussian 09 at Thu Aug 26 12:05:01 2021.

                         Standard orientation:
 ---------------------------------------------------------------------
 Center     Atomic      Atomic             Coordinates (Angstroms)
 Number     Number       Type             X           Y           Z
 ---------------------------------------------------------------------
      1          6           0        1.183148    0.149105    0.000066
      2          6           0       -0.000000   -0.574800    0.000100
      3          6           0       -1.183125    0.149129    0.000059
      4          6           0       -1.206953    1.539718    0.000239
      5          7           0        2.464197   -0.588271   -0.000095
      6          8           0        3.491639    0.075059   -0.000509
      7          1           0       -0.000025   -1.654682    0.000015
      8          6           0       -0.000031    2.232873    0.000146
      9          1           0        0.000345    3.316680    0.000615
     10          6           0        1.206869    1.539718    0.000238
     11          1           0       -2.160450    2.049652    0.000201
     12          1           0        2.160665    2.050078    0.000138
     13          7           0       -2.464188   -0.588265   -0.000052
     14          8           0       -3.491601    0.075110   -0.000720
     15          8           0       -2.409931   -1.808854    0.000432
     16          8           0        2.409888   -1.808869    0.000170
 ---------------------------------------------------------------------

 SCF Done:  E(RHF) =  -637.918172307     A.U. after    8 cycles

 The electronic state is 1-A.
 Alpha  occ. eigenvalues --  -20.62051 -20.62050 -20.61988 -20.61987 -15.87409
 Alpha  occ. eigenvalues --  -15.87409 -11.34016 -11.34014 -11.31372 -11.31005
 Alpha  occ. eigenvalues --  -11.30999 -11.29435  -1.62653  -1.62630  -1.42112
 Alpha  occ. eigenvalues --   -1.42093  -1.24152  -1.14216  -1.10564  -0.99952
 Alpha  occ. eigenvalues --   -0.98637  -0.88197  -0.84686  -0.81817  -0.76468
 Alpha  occ. eigenvalues --   -0.75245  -0.74343  -0.74336  -0.73902  -0.73583
 Alpha  occ. eigenvalues --   -0.68997  -0.66821  -0.59924  -0.58395  -0.57079
 Alpha  occ. eigenvalues --   -0.52263  -0.51763  -0.51548  -0.51132  -0.47508
 Alpha  occ. eigenvalues --   -0.47446  -0.41369  -0.40473
 Alpha virt. eigenvalues --    0.00671   0.02386   0.02387   0.04017   0.04914
 Alpha virt. eigenvalues --    0.05309   0.06029   0.06332   0.07204   0.07432
 Alpha virt. eigenvalues --    0.07966   0.08611   0.09093   0.09101   0.09453

 Mulliken charges:
               1
     1  C    0.172255
     2  C   -0.228050
     3  C    0.172308
     4  C   -0.206543
     5  N    0.536444
     6  O   -0.429194
     7  H    0.304675
     8  C   -0.144304
     9  H    0.235411
    10  C   -0.206582
    11  H    0.267283
    12  H    0.267297
    13  N    0.536461
    14  O   -0.429205
    15  O   -0.424127
    16  O   -0.424128
 Sum of Mulliken charges =  -0.00000

 Dipole moment (field-independent basis, Debye):
    X=              0.0002    Y=              4.8264    Z=              0.0012  Tot=              4.8264
 Quadrupole moment (field-independent basis, Debye-Ang):
   XX=            -92.1974   YY=            -64.8591   ZZ=            -67.1497
   XY=              0.0018   XZ=             -0.0006   YZ=              0.0045

 Normal termination of Gaussian 09 at Thu Aug 26 12:40:44 2021.
