 Gaussian 09, Revision E.01,
 Gaussian 09:  ES64L-G09RevE.01 30-Nov-2015

 ----------------
 #P G4 OPT=calcfc
 ----------------

 --------
 DIMNAN03
 --------
 Symbolic Z-matrix:
 Charge =  0 Multiplicity = 1

 SCF Done:  E(RB3LYP) =  -570.592437640     A.U. after   15 cycles
 SCF Done:  E(RB3LYP) =  -570.697766691     A.U. after   13 cycles
 SCF Done:  E(RB3LYP) =  -570.763669605     A.U. after   14 cycles
 SCF Done:  E(RB3LYP) =  -570.765036025     A.U. after   12 cycles
 SCF Done:  E(RB3LYP) =  -570.763252806     A.U. after   13 cycles
 SCF Done:  E(RB3LYP) =  -570.765056827     A.U. after   10 cycles
 SCF Done:  E(RB3LYP) =  -570.765401427     A.U. after   11 cycles
 SCF Done:  E(RB3LYP) =  -570.765278223     A.U. after   12 cycles
 SCF Done:  E(RB3LYP) =  -570.765605176     A.U. after    9 cycles
 SCF Done:  E(RB3LYP) =  -570.765633579     A.U. after   11 cycles
 SCF Done:  E(RB3LYP) =  -570.765659548     A.U. after   10 cycles
 SCF Done:  E(RB3LYP) =  -570.765659916     A.U. after    8 cycles
 SCF Done:  E(RB3LYP) =  -570.765659969     A.U. after    7 cycles
 Optimization completed.
    -- Stationary point found.
 Normal termination of Gaussian 09 at Fri Aug 27 02:00:11 2021.

 ----------------------------------------------------------
 #P Geom=AllCheck Guess=TCheck SCRF=Check B3LYP/GTBas3 Freq
 ----------------------------------------------------------

 Structure from the checkpoint file:  "/public/home/users/caep010/.cache/gau_scr/Gau-35184.chk"
 --------
 DIMNAN03
 --------
 Charge =  0 Multiplicity = 1

 SCF Done:  E(RB3LYP) =  -570.765659969     A.U. after    1 cycles

  Exact polarizability: 188.284  -0.000 112.597  -0.001  -0.001  54.784
 Approx polarizability: 291.912  -0.000 208.590   0.004  -0.005  87.959

                      1                      2                      3
                      A                      A                      A
 Frequencies --     60.4407                64.8475                83.8105
 Red. masses --      2.7253                 4.5160                 2.8245
 Frc consts  --      0.0059                 0.0112                 0.0117
 IR Inten    --      0.6018                 0.0000                 0.0000

                      4                      5                      6
                      A                      A                      A
 Frequencies --     87.5901               175.8904               199.0956
 Red. masses --      2.1297                 5.0252                 1.1518
 Frc consts  --      0.0096                 0.0916                 0.0269
 IR Inten    --      1.2898                 0.5305                 0.0035

                      7                      8                      9
                      A                      A                      A
 Frequencies --    199.6640               289.6980               305.3038
 Red. masses --      2.0715                 4.2588                 5.9055
 Frc consts  --      0.0487                 0.2106                 0.3243
 IR Inten    --      4.1644                 0.1525                 0.1155

                     10                     11                     12
                      A                      A                      A
 Frequencies --    321.4763               436.5575               473.6184
 Red. masses --      3.9430                 3.3098                 3.2743
 Frc consts  --      0.2401                 0.3717                 0.4327
 IR Inten    --      0.1163                 0.0000                 0.1990

                     13                     14                     15
                      A                      A                      A
 Frequencies --    475.9659               516.5185               547.8961
 Red. masses --      4.3411                 2.6635                 5.7932
 Frc consts  --      0.5794                 0.4187                 1.0246
 IR Inten    --      2.0738                 4.5180                 4.8682

                     16                     17                     18
                      A                      A                      A
 Frequencies --    620.3441               642.4846               715.9024
 Red. masses --      4.8307                 7.2125                 3.2391
 Frc consts  --      1.0953                 1.7541                 0.9781
 IR Inten    --      4.7275                 0.6368                10.8029

                     19                     20                     21
                      A                      A                      A
 Frequencies --    762.6237               785.3639               817.3040
 Red. masses --      5.7224                 5.5493                 1.2482
 Frc consts  --      1.9609                 2.0167                 0.4913
 IR Inten    --      8.2308                23.0052                 0.0000

                     22                     23                     24
                      A                      A                      A
 Frequencies --    851.7557               868.6470               960.6776
 Red. masses --      2.0266                10.5518                 1.2938
 Frc consts  --      0.8663                 4.6910                 0.7035
 IR Inten    --     28.1407                20.7279                 0.0000

                     25                     26                     27
                      A                      A                      A
 Frequencies --    965.8570               990.3232              1013.2337
 Red. masses --      3.0273                 1.3611                 3.0717
 Frc consts  --      1.6639                 0.7865                 1.8580
 IR Inten    --     18.2727                 1.5641                 5.2050

                     28                     29                     30
                      A                      A                      A
 Frequencies --   1084.2291              1135.5257              1141.2346
 Red. masses --      1.5186                 2.3211                 1.2892
 Frc consts  --      1.0518                 1.7634                 0.9893
 IR Inten    --     25.5910               150.7057                 4.6403

                     31                     32                     33
                      A                      A                      A
 Frequencies --   1144.9571              1149.9127              1200.5541
 Red. masses --      1.3185                 1.2384                 1.7042
 Frc consts  --      1.0184                 0.9648                 1.4472
 IR Inten    --      0.1248                 0.0000                 7.7440

                     34                     35                     36
                      A                      A                      A
 Frequencies --   1222.1781              1275.2151              1336.2279
 Red. masses --      1.4048                 2.9017                 1.4791
 Frc consts  --      1.2364                 2.7802                 1.5560
 IR Inten    --     22.7372                28.1140                 3.6624

                     37                     38                     39
                      A                      A                      A
 Frequencies --   1371.9752              1379.4576              1403.2330
 Red. masses --      6.9832                 8.0906                 3.7032
 Frc consts  --      7.7445                 9.0709                 4.2962
 IR Inten    --    959.6952                 3.7129                 4.8115

                     40                     41                     42
                      A                      A                      A
 Frequencies --   1448.9088              1469.3835              1480.9821
 Red. masses --      1.2716                 2.5072                 1.0374
 Frc consts  --      1.5729                 3.1894                 1.3406
 IR Inten    --      0.2150                 3.2609                 0.0000

                     43                     44                     45
                      A                      A                      A
 Frequencies --   1489.5032              1492.4257              1516.6449
 Red. masses --      1.0436                 1.2612                 1.1044
 Frc consts  --      1.3642                 1.6550                 1.4968
 IR Inten    --     10.3276                21.7975                 0.5274

                     46                     47                     48
                      A                      A                      A
 Frequencies --   1528.0123              1553.5991              1582.6427
 Red. masses --      1.1369                 2.3457                 9.2735
 Frc consts  --      1.5640                 3.3358                13.6855
 IR Inten    --     17.5824               155.6003                68.9821

                     49                     50                     51
                      A                      A                      A
 Frequencies --   1638.7301              1645.1864              3001.2168
 Red. masses --      9.9048                 5.7300                 1.0379
 Frc consts  --     15.6715                 9.1377                 5.5080
 IR Inten    --    150.9781               294.4022                73.8931

                     52                     53                     54
                      A                      A                      A
 Frequencies --   3008.2673              3048.8488              3049.9100
 Red. masses --      1.0413                 1.1017                 1.1050
 Frc consts  --      5.5519                 6.0338                 6.0558
 IR Inten    --     53.6905                 0.5865                58.0942

                     55                     56                     57
                      A                      A                      A
 Frequencies --   3134.9557              3147.6826              3219.5875
 Red. masses --      1.0967                 1.0940                 1.0864
 Frc consts  --      6.3503                 6.3862                 6.6350
 IR Inten    --      1.6188                28.6314                 3.5663

                     58                     59                     60
                      A                      A                      A
 Frequencies --   3220.6918              3234.6143              3235.6012
 Red. masses --      1.0865                 1.0932                 1.0940
 Frc consts  --      6.6402                 6.7393                 6.7480
 IR Inten    --      5.6152                 0.8347                 5.7855

 - Thermochemistry -
 -------------------
 Temperature   298.150 Kelvin.  Pressure   1.00000 Atm.
 Atom     1 has atomic number  8 and mass  15.99491

 Molecular mass:   166.07423 amu.
 Principal axes and moments of inertia in atomic units:
                           1         2         3
     Eigenvalues --   656.185933781.747674415.23223
           X            1.00000  -0.00000  -0.00000
           Y            0.00000   1.00000   0.00000
           Z            0.00000  -0.00000   1.00000
 This molecule is an asymmetric top.
 Rotational symmetry number  1.
 Warning -- assumption of classical behavior for rotation
           may cause significant error
 Rotational temperatures (Kelvin)      0.13200     0.02290     0.01962
 Rotational constants (GHZ):           2.75035     0.47722     0.40875
 Zero-point vibrational energy     461908.0 (Joules/Mol)
                                  110.39866 (Kcal/Mol)
 Warning -- explicit consideration of  16 degrees of freedom as
           vibrations may cause significant error
 Vibrational temperatures:     86.96    93.30   120.58   126.02   253.07
          (Kelvin)            286.45   287.27   416.81   439.26   462.53
                              628.11   681.43   684.81   743.15   788.30
                              892.54   924.39  1030.02  1097.24  1129.96
                             1175.92  1225.48  1249.79  1382.20  1389.65
                             1424.85  1457.82  1559.96  1633.77  1641.98
                             1647.34  1654.47  1727.33  1758.44  1834.75
                             1922.53  1973.96  1984.73  2018.94  2084.65
                             2114.11  2130.80  2143.06  2147.27  2182.11
                             2198.47  2235.28  2277.07  2357.76  2367.05
                             4318.08  4328.22  4386.61  4388.13  4510.50
                             4528.81  4632.26  4633.85  4653.88  4655.30

 Zero-point correction=                           0.175931 (Hartree/Particle)
 Thermal correction to Energy=                    0.187196
 Thermal correction to Enthalpy=                  0.188140
 Thermal correction to Gibbs Free Energy=         0.137975
 Sum of electronic and zero-point Energies=           -570.589729
 Sum of electronic and thermal Energies=              -570.578464
 Sum of electronic and thermal Enthalpies=            -570.577520
 Sum of electronic and thermal Free Energies=         -570.627685

                     E (Thermal)             CV                S
                      KCal/Mol        Cal/Mol-Kelvin    Cal/Mol-Kelvin
 Total                  117.467             41.225            105.582
 Electronic               0.000              0.000              0.000
 Translational            0.889              2.981             41.230
 Rotational               0.889              2.981             30.772
 Vibrational            115.690             35.264             33.580
 Vibration     1          0.597              1.973              4.443
 Vibration     2          0.597              1.971              4.304
 Vibration     3          0.601              1.960              3.800
 Vibration     4          0.601              1.958              3.713
 Vibration     5          0.628              1.872              2.372
 Vibration     6          0.637              1.841              2.141
 Vibration     7          0.638              1.840              2.136
 Vibration     8          0.686              1.693              1.476
 Vibration     9          0.696              1.664              1.388
 Vibration    10          0.707              1.632              1.303
 Vibration    11          0.797              1.391              0.838
 Vibration    12          0.830              1.309              0.727
 Vibration    13          0.833              1.303              0.721
 Vibration    14          0.872              1.213              0.618
 Vibration    15          0.903              1.144              0.549
 Vibration    16          0.980              0.989              0.416

 Optimization completed.
    -- Stationary point found.
 Normal termination of Gaussian 09 at Fri Aug 27 02:02:54 2021.

 -----------------------------------------------------------------
 #P Geom=AllCheck Guess=TCheck SCRF=Check CCSD(T,E4T,FrzG4)/GTBas1
 -----------------------------------------------------------------

 Structure from the checkpoint file:  "/public/home/users/caep010/.cache/gau_scr/Gau-35184.chk"
 --------
 DIMNAN03
 --------
 Charge =  0 Multiplicity = 1

 SCF Done:  E(RHF) =  -567.253466562     A.U. after   14 cycles
 E2 =    -0.1725003692D+01 EUMP2 =    -0.56897847025375D+03
 CCSD(T)
 CCSD(T)= -0.56910195919D+03
 256411\CCSD(T)=-569.1019592\RMSD=6.345e-09\PG=C01 [X(C8H10N2O2)]\\@
 Normal termination of Gaussian 09 at Fri Aug 27 03:12:39 2021.

 ---------------------------------------------------------
 #P Geom=AllCheck Guess=TCheck SCRF=Check MP4=FrzG4/GTBas2
 ---------------------------------------------------------

 Structure from the checkpoint file:  "/public/home/users/caep010/.cache/gau_scr/Gau-35184.chk"
 --------
 DIMNAN03
 --------
 Charge =  0 Multiplicity = 1

 SCF Done:  E(RHF) =  -567.268517863     A.U. after   15 cycles
 E2 =    -0.1746239859D+01 EUMP2 =    -0.56901475772180D+03
 Normal termination of Gaussian 09 at Fri Aug 27 03:37:38 2021.

 ---------------------------------------------------------
 #P Geom=AllCheck Guess=TCheck SCRF=Check MP4=FrzG4/GTBas3
 ---------------------------------------------------------

 Structure from the checkpoint file:  "/public/home/users/caep010/.cache/gau_scr/Gau-35184.chk"
 --------
 DIMNAN03
 --------
 Charge =  0 Multiplicity = 1

 SCF Done:  E(RHF) =  -567.312301268     A.U. after   12 cycles
 E2 =    -0.2076056502D+01 EUMP2 =    -0.56938835776965D+03
 Normal termination of Gaussian 09 at Fri Aug 27 06:43:40 2021.

 -----------------------------------------------------------
 #P Geom=AllCheck Guess=TCheck SCRF=Check MP2=Full/GTLargeXP
 -----------------------------------------------------------

 Structure from the checkpoint file:  "/public/home/users/caep010/.cache/gau_scr/Gau-35184.chk"
 --------
 DIMNAN03
 --------
 Charge =  0 Multiplicity = 1

 SCF Done:  E(RHF) =  -567.446178019     A.U. after   13 cycles
 E2 =    -0.2725561706D+01 EUMP2 =    -0.57017173972535D+03
 Normal termination of Gaussian 09 at Fri Aug 27 06:56:26 2021.
 SCF Done:  E(RHF) =  -567.491425269     A.U. after   10 cycles
 Normal termination of Gaussian 09 at Fri Aug 27 07:03:16 2021.

                         Standard orientation:
 ---------------------------------------------------------------------
 Center     Atomic      Atomic             Coordinates (Angstroms)
 Number     Number       Type             X           Y           Z
 ---------------------------------------------------------------------
      1          8           0        3.525221    1.086172   -0.000052
      2          7           0        2.950509   -0.000001    0.000022
      3          8           0        3.525219   -1.086174    0.000108
      4          6           0        1.496161    0.000001   -0.000000
      5          6           0        0.804873   -1.209154    0.000067
      6          6           0       -0.576788   -1.212160    0.000029
      7          6           0        0.804877    1.209156   -0.000082
      8          1           0        1.365471    2.134430   -0.000109
      9          6           0       -0.576786    1.212159   -0.000117
     10          1           0       -1.093296    2.161932   -0.000186
     11          6           0       -1.310386    0.000000   -0.000102
     12          7           0       -2.681612    0.000003   -0.000230
     13          6           0       -3.413670   -1.254061   -0.000069
     14          1           0       -4.483282   -1.044671   -0.000476
     15          6           0       -3.413674    1.254057    0.000287
     16          1           0       -4.483261    1.044678   -0.000002
     17          1           0       -3.187946    1.858530    0.888574
     18          1           0       -3.187672    1.859335   -0.887345
     19          1           0       -3.187531   -1.859141   -0.887863
     20          1           0       -3.188110   -1.858711    0.888025
     21          1           0       -1.093288   -2.161933    0.000142
     22          1           0        1.365467   -2.134430    0.000166
 ---------------------------------------------------------------------

 SCF Done:  E(RHF) =  -567.500169848     A.U. after    7 cycles

 The electronic state is 1-A.
 Alpha  occ. eigenvalues --  -20.58079 -20.58074 -15.83626 -15.59800 -11.31437
 Alpha  occ. eigenvalues --  -11.28149 -11.27966 -11.27964 -11.26747 -11.26740
 Alpha  occ. eigenvalues --  -11.24491 -11.24490  -1.58440  -1.37769  -1.28774
 Alpha  occ. eigenvalues --   -1.17827  -1.07467  -1.04596  -0.99417  -0.97098
 Alpha  occ. eigenvalues --   -0.88631  -0.85388  -0.79986  -0.76822  -0.71855
 Alpha  occ. eigenvalues --   -0.71456  -0.70242  -0.67444  -0.66267  -0.64880
 Alpha  occ. eigenvalues --   -0.61591  -0.60343  -0.59828  -0.58484  -0.56390
 Alpha  occ. eigenvalues --   -0.55549  -0.53074  -0.50822  -0.48194  -0.47720
 Alpha  occ. eigenvalues --   -0.44084  -0.43811  -0.36585  -0.31052
 Alpha virt. eigenvalues --    0.02568   0.02967   0.04085   0.04263   0.05193
 Alpha virt. eigenvalues --    0.05195   0.05925   0.06451   0.06563   0.07613
 Alpha virt. eigenvalues --    0.07916   0.07966   0.09240   0.09270   0.09285

 Mulliken charges:
               1
     1  O   -0.455450
     2  N    0.521224
     3  O   -0.455449
     4  C    0.073069
     5  C   -0.196335
     6  C   -0.259987
     7  C   -0.196334
     8  H    0.260012
     9  C   -0.259984
    10  H    0.204031
    11  C    0.259338
    12  N    0.011311
    13  C   -0.549621
    14  H    0.200634
    15  C   -0.549625
    16  H    0.200639
    17  H    0.182124
    18  H    0.182117
    19  H    0.182128
    20  H    0.182117
    21  H    0.204031
    22  H    0.260011
 Sum of Mulliken charges =  -0.00000

 Dipole moment (field-independent basis, Debye):
    X=             -8.2417    Y=             -0.0001    Z=              0.0004  Tot=              8.2417
 Quadrupole moment (field-independent basis, Debye-Ang):
   XX=            -81.2366   YY=            -66.4950   ZZ=            -73.4340
   XY=              0.0001   XZ=             -0.0013   YZ=             -0.0002

 Normal termination of Gaussian 09 at Fri Aug 27 07:43:36 2021.
