 Gaussian 09, Revision E.01,
 Gaussian 09:  ES64L-G09RevE.01 30-Nov-2015

 ----------------
 #P G4 OPT=calcfc
 ----------------

 --------
 DNOPHL03
 --------
 Symbolic Z-matrix:
 Charge =  0 Multiplicity = 1

 SCF Done:  E(RB3LYP) =  -716.419583700     A.U. after   15 cycles
 SCF Done:  E(RB3LYP) =  -716.492848834     A.U. after   17 cycles
 SCF Done:  E(RB3LYP) =  -716.506880802     A.U. after   17 cycles
 SCF Done:  E(RB3LYP) =  -716.509458944     A.U. after   17 cycles
 SCF Done:  E(RB3LYP) =  -716.512130855     A.U. after   17 cycles
 SCF Done:  E(RB3LYP) =  -716.512070654     A.U. after   15 cycles
 SCF Done:  E(RB3LYP) =  -716.512797161     A.U. after   11 cycles
 SCF Done:  E(RB3LYP) =  -716.509000579     A.U. after   16 cycles
 SCF Done:  E(RB3LYP) =  -716.512964686     A.U. after   12 cycles
 SCF Done:  E(RB3LYP) =  -716.513323116     A.U. after   14 cycles
 SCF Done:  E(RB3LYP) =  -716.513337757     A.U. after   13 cycles
 SCF Done:  E(RB3LYP) =  -716.513341597     A.U. after   12 cycles
 SCF Done:  E(RB3LYP) =  -716.513342036     A.U. after   10 cycles
 Optimization completed.
    -- Stationary point found.
 Normal termination of Gaussian 09 at Fri Aug 27 02:18:09 2021.

 ----------------------------------------------------------
 #P Geom=AllCheck Guess=TCheck SCRF=Check B3LYP/GTBas3 Freq
 ----------------------------------------------------------

 Structure from the checkpoint file:  "/public/home/users/caep010/.cache/gau_scr/Gau-132099.chk"
 --------
 DNOPHL03
 --------
 Charge =  0 Multiplicity = 1

 SCF Done:  E(RB3LYP) =  -716.513342036     A.U. after    1 cycles

  Exact polarizability: 139.824   3.408 115.820  -1.397  -1.035  42.691
 Approx polarizability: 240.078  11.229 226.889  -7.566  -7.358  73.532

                      1                      2                      3
                      A                      A                      A
 Frequencies --     35.0388                59.4156               109.6111
 Red. masses --     14.5979                14.9207                 7.4666
 Frc consts  --      0.0106                 0.0310                 0.0529
 IR Inten    --      0.6467                 0.5943                 1.3405

                      4                      5                      6
                      A                      A                      A
 Frequencies --    154.5081               165.2169               275.2235
 Red. masses --      5.7895                13.0730                 8.4538
 Frc consts  --      0.0814                 0.2102                 0.3773
 IR Inten    --      0.6566                 3.5117                 0.3066

                      7                      8                      9
                      A                      A                      A
 Frequencies --    313.1616               349.5484               354.5352
 Red. masses --      7.1843                12.2623                 9.4561
 Frc consts  --      0.4151                 0.8827                 0.7003
 IR Inten    --      1.5774                 0.3857                 1.1589

                     10                     11                     12
                      A                      A                      A
 Frequencies --    403.6052               436.4167               470.3888
 Red. masses --      6.9213                 1.5650                 2.0256
 Frc consts  --      0.6643                 0.1756                 0.2641
 IR Inten    --      3.7232                58.7582                41.6165

                     13                     14                     15
                      A                      A                      A
 Frequencies --    522.5306               544.4625               588.9876
 Red. masses --      6.8980                 4.0787                 4.6144
 Frc consts  --      1.1097                 0.7124                 0.9431
 IR Inten    --      5.2225                 5.3085                 3.7233

                     16                     17                     18
                      A                      A                      A
 Frequencies --    651.3442               697.5879               728.0654
 Red. masses --      8.0507                 5.9040                 7.0236
 Frc consts  --      2.0124                 1.6928                 2.1936
 IR Inten    --      8.7138                13.6168                43.7799

                     19                     20                     21
                      A                      A                      A
 Frequencies --    775.8328               793.8432               828.9791
 Red. masses --      5.1749                 4.3143                 6.4641
 Frc consts  --      1.8352                 1.6019                 2.6172
 IR Inten    --     25.9586                 0.9956                 3.9176

                     22                     23                     24
                      A                      A                      A
 Frequencies --    845.7716               850.1540               938.4593
 Red. masses --      1.8772                13.5125                 7.7532
 Frc consts  --      0.7912                 5.7542                 4.0231
 IR Inten    --     21.2398                19.3315                51.0633

                     25                     26                     27
                      A                      A                      A
 Frequencies --    973.2913               984.6644              1075.8502
 Red. masses --      1.3765                 1.4510                 1.9358
 Frc consts  --      0.7683                 0.8289                 1.3201
 IR Inten    --      3.7988                 5.8540                68.9330

                     28                     29                     30
                      A                      A                      A
 Frequencies --   1137.0389              1161.1013              1202.9203
 Red. masses --      1.9491                 1.9942                 1.4823
 Frc consts  --      1.4847                 1.5840                 1.2638
 IR Inten    --     22.7631                54.3518                52.7445

                     31                     32                     33
                      A                      A                      A
 Frequencies --   1296.7732              1326.9231              1379.1519
 Red. masses --      1.6100                 3.5282                 7.7264
 Frc consts  --      1.5951                 3.6601                 8.6587
 IR Inten    --     43.0873               137.4796               253.3924

                     34                     35                     36
                      A                      A                      A
 Frequencies --   1392.0780              1404.2876              1457.1139
 Red. masses --      7.2266                 8.1713                 4.5223
 Frc consts  --      8.2511                 9.4940                 5.6571
 IR Inten    --    285.0930                74.9427                36.0366

                     37                     38                     39
                      A                      A                      A
 Frequencies --   1527.1140              1611.6229              1622.5483
 Red. masses --      3.0149                 8.3957                 9.3669
 Frc consts  --      4.1426                12.8480                14.5293
 IR Inten    --     26.5561                69.9838                31.6370

                     40                     41                     42
                      A                      A                      A
 Frequencies --   1658.2579              1668.6980              3172.6705
 Red. masses --      9.8005                 9.8518                 1.0900
 Frc consts  --     15.8783                16.1630                 6.4643
 IR Inten    --    184.1169               281.7657                 6.3838

                     43                     44                     45
                      A                      A                      A
 Frequencies --   3237.0071              3255.8838              3797.4152
 Red. masses --      1.0922                 1.0905                 1.0658
 Frc consts  --      6.7430                 6.8109                 9.0551
 IR Inten    --      4.1501                19.5960                91.4561

 - Thermochemistry -
 -------------------
 Temperature   298.150 Kelvin.  Pressure   1.00000 Atm.
 Atom     1 has atomic number  8 and mass  15.99491

 Molecular mass:   184.01202 amu.
 Principal axes and moments of inertia in atomic units:
                           1         2         3
     Eigenvalues --  1204.901633254.671924424.48057
           X            0.99998   0.00565   0.00038
           Y           -0.00565   0.99998   0.00213
           Z           -0.00037  -0.00213   1.00000
 This molecule is an asymmetric top.
 Rotational symmetry number  1.
 Warning -- assumption of classical behavior for rotation
           may cause significant error
 Rotational temperatures (Kelvin)      0.07188     0.02661     0.01958
 Rotational constants (GHZ):           1.49783     0.55451     0.40790
 Zero-point vibrational energy     288510.0 (Joules/Mol)
                                   68.95554 (Kcal/Mol)
 Warning -- explicit consideration of  15 degrees of freedom as
           vibrations may cause significant error
 Vibrational temperatures:     50.41    85.49   157.71   222.30   237.71
          (Kelvin)            395.98   450.57   502.92   510.10   580.70
                              627.91   676.78   751.80   783.36   847.42
                              937.14  1003.67  1047.52  1116.25  1142.16
                             1192.71  1216.88  1223.18  1350.23  1400.35
                             1416.71  1547.91  1635.94  1670.56  1730.73
                             1865.77  1909.14  1984.29  2002.89  2020.45
                             2096.46  2197.17  2318.76  2334.48  2385.86
                             2400.88  4564.76  4657.33  4684.48  5463.63

 Zero-point correction=                           0.109888 (Hartree/Particle)
 Thermal correction to Energy=                    0.120335
 Thermal correction to Enthalpy=                  0.121280
 Thermal correction to Gibbs Free Energy=         0.072277
 Sum of electronic and zero-point Energies=           -716.403454
 Sum of electronic and thermal Energies=              -716.393007
 Sum of electronic and thermal Enthalpies=            -716.392062
 Sum of electronic and thermal Free Energies=         -716.441065

                     E (Thermal)             CV                S
                      KCal/Mol        Cal/Mol-Kelvin    Cal/Mol-Kelvin
 Total                   75.512             38.557            103.135
 Electronic               0.000              0.000              0.000
 Translational            0.889              2.981             41.536
 Rotational               0.889              2.981             31.229
 Vibrational             73.734             32.595             30.370
 Vibration     1          0.594              1.982              5.522
 Vibration     2          0.597              1.974              4.477
 Vibration     3          0.606              1.942              3.276
 Vibration     4          0.620              1.898              2.616
 Vibration     5          0.624              1.885              2.489
 Vibration     6          0.677              1.719              1.563
 Vibration     7          0.701              1.649              1.346
 Vibration     8          0.727              1.576              1.168
 Vibration     9          0.730              1.566              1.146
 Vibration    10          0.769              1.462              0.949
 Vibration    11          0.797              1.391              0.838
 Vibration    12          0.827              1.316              0.736
 Vibration    13          0.877              1.200              0.604
 Vibration    14          0.900              1.152              0.556
 Vibration    15          0.946              1.055              0.469

 Normal termination of Gaussian 09 at Fri Aug 27 02:20:45 2021.

 -----------------------------------------------------------------
 #P Geom=AllCheck Guess=TCheck SCRF=Check CCSD(T,E4T,FrzG4)/GTBas1
 -----------------------------------------------------------------

 Structure from the checkpoint file:  "/public/home/users/caep010/.cache/gau_scr/Gau-132099.chk"
 --------
 DNOPHL03
 --------
 Charge =  0 Multiplicity = 1

 SCF Done:  E(RHF) =  -712.478045269     A.U. after   16 cycles
 E2 =    -0.2017010652D+01 EUMP2 =    -0.71449505592041D+03
 CCSD(T)
 CCSD(T)= -0.71459101219D+03
 Normal termination of Gaussian 09 at Fri Aug 27 03:48:30 2021.

 ---------------------------------------------------------
 #P Geom=AllCheck Guess=TCheck SCRF=Check MP4=FrzG4/GTBas2
 ---------------------------------------------------------

 Structure from the checkpoint file:  "/public/home/users/caep010/.cache/gau_scr/Gau-132099.chk"
 --------
 DNOPHL03
 --------
 Charge =  0 Multiplicity = 1

 SCF Done:  E(RHF) =  -712.499071304     A.U. after   19 cycles
 E2 =    -0.2044827098D+01 EUMP2 =    -0.71454389840181D+03
 Normal termination of Gaussian 09 at Fri Aug 27 04:19:48 2021.

 ---------------------------------------------------------
 #P Geom=AllCheck Guess=TCheck SCRF=Check MP4=FrzG4/GTBas3
 ---------------------------------------------------------

 Structure from the checkpoint file:  "/public/home/users/caep010/.cache/gau_scr/Gau-132099.chk"
 --------
 DNOPHL03
 --------
 Charge =  0 Multiplicity = 1

 SCF Done:  E(RHF) =  -712.553855237     A.U. after   12 cycles
 E2 =    -0.2407078421D+01 EUMP2 =    -0.71496093365728D+03
 Normal termination of Gaussian 09 at Fri Aug 27 07:56:41 2021.

 -----------------------------------------------------------
 #P Geom=AllCheck Guess=TCheck SCRF=Check MP2=Full/GTLargeXP
 -----------------------------------------------------------

 Structure from the checkpoint file:  "/public/home/users/caep010/.cache/gau_scr/Gau-132099.chk"
 --------
 DNOPHL03
 --------
 Charge =  0 Multiplicity = 1

 SCF Done:  E(RHF) =  -712.736731398     A.U. after   15 cycles
 E2 =    -0.3137962150D+01 EUMP2 =    -0.71587469354839D+03
 Normal termination of Gaussian 09 at Fri Aug 27 08:18:16 2021.
 SCF Done:  E(RHF) =  -712.794984100     A.U. after   10 cycles
 Normal termination of Gaussian 09 at Fri Aug 27 08:24:27 2021.

                         Standard orientation:
 ---------------------------------------------------------------------
 Center     Atomic      Atomic             Coordinates (Angstroms)
 Number     Number       Type             X           Y           Z
 ---------------------------------------------------------------------
      1          8           0        2.430630    1.743192    0.091658
      2          1           0        2.375550    2.704711    0.149332
      3          6           0        1.194452    1.230610    0.039645
      4          6           0        0.059208    2.058354    0.047174
      5          6           0        0.993585   -0.165561    0.009135
      6          6           0       -0.286216   -0.702018   -0.002442
      7          1           0       -0.417899   -1.774412   -0.008156
      8          6           0       -1.217726    1.531553    0.017514
      9          1           0       -2.093050    2.167055    0.017015
     10          7           0        2.117219   -1.118832   -0.014487
     11          8           0        1.876625   -2.263533    0.347866
     12          1           0        0.199992    3.134867    0.076762
     13          6           0       -1.378014    0.148269   -0.007469
     14          7           0       -2.730838   -0.420065   -0.036091
     15          8           0       -2.832838   -1.638662   -0.063044
     16          8           0       -3.669655    0.366917   -0.031033
     17          8           0        3.200114   -0.716312   -0.408229
 ---------------------------------------------------------------------

 SCF Done:  E(RHF) =  -712.806335890     A.U. after    8 cycles

 The electronic state is 1-A.
 Alpha  occ. eigenvalues --  -20.64727 -20.61513 -20.61436 -20.61333 -20.60914
 Alpha  occ. eigenvalues --  -15.87011 -15.86820 -11.39000 -11.33692 -11.32934
 Alpha  occ. eigenvalues --  -11.31642 -11.31534 -11.29300  -1.62076  -1.61904
 Alpha  occ. eigenvalues --   -1.47516  -1.41495  -1.41212  -1.23622  -1.13799
 Alpha  occ. eigenvalues --   -1.10496  -0.99524  -0.98158  -0.90384  -0.84642
 Alpha  occ. eigenvalues --   -0.81464  -0.79605  -0.76100  -0.75620  -0.73984
 Alpha  occ. eigenvalues --   -0.73656  -0.73360  -0.71479  -0.67056  -0.65692
 Alpha  occ. eigenvalues --   -0.65092  -0.61883  -0.58329  -0.54952  -0.51670
 Alpha  occ. eigenvalues --   -0.51246  -0.50897  -0.50263  -0.47094  -0.46433
 Alpha  occ. eigenvalues --   -0.41382  -0.38638
 Alpha virt. eigenvalues --    0.01543   0.01980   0.02751   0.03540   0.05091
 Alpha virt. eigenvalues --    0.05212   0.05932   0.06356   0.06860   0.07317
 Alpha virt. eigenvalues --    0.07625   0.08578   0.08911   0.09133   0.09332

 Mulliken charges:
               1
     1  O   -0.525720
     2  H    0.401544
     3  C    0.257584
     4  C   -0.173743
     5  C    0.178800
     6  C   -0.191734
     7  H    0.303315
     8  C   -0.213760
     9  H    0.268242
    10  N    0.509049
    11  O   -0.432284
    12  H    0.196847
    13  C    0.142210
    14  N    0.542715
    15  O   -0.430477
    16  O   -0.438666
    17  O   -0.393923
 Sum of Mulliken charges =  -0.00000

 Dipole moment (field-independent basis, Debye):
    X=              0.6486    Y=              6.5175    Z=              0.2341  Tot=              6.5538
 Quadrupole moment (field-independent basis, Debye-Ang):
   XX=            -99.6048   YY=            -65.7592   ZZ=            -72.8931
   XY=              5.5673   XZ=              1.0356   YZ=              1.5607

 Normal termination of Gaussian 09 at Fri Aug 27 09:07:06 2021.
