 Gaussian 09, Revision E.01,
 Gaussian 09:  ES64L-G09RevE.01 30-Nov-2015

 ----------------
 #P G4 OPT=calcfc
 ----------------

 ------
 DUMPEG
 ------
 Symbolic Z-matrix:
 Charge =  0 Multiplicity = 1

 SCF Done:  E(RB3LYP) =  -831.155309995     A.U. after   15 cycles
 SCF Done:  E(RB3LYP) =  -831.155660560     A.U. after   11 cycles
 SCF Done:  E(RB3LYP) =  -831.155661377     A.U. after   11 cycles
 SCF Done:  E(RB3LYP) =  -831.155662193     A.U. after   10 cycles
 SCF Done:  E(RB3LYP) =  -831.155662196     A.U. after    7 cycles
 Optimization completed.
    -- Stationary point found.
 Normal termination of Gaussian 09 at Fri Aug 27 02:12:24 2021.

 ----------------------------------------------------------
 #P Geom=AllCheck Guess=TCheck SCRF=Check B3LYP/GTBas3 Freq
 ----------------------------------------------------------

 Structure from the checkpoint file:  "/public/home/users/caep010/.cache/gau_scr/Gau-177310.chk"
 ------
 DUMPEG
 ------
 Charge =  0 Multiplicity = 1

 SCF Done:  E(RB3LYP) =  -831.155662196     A.U. after    1 cycles

  Exact polarizability: 102.656  -0.000  95.409   3.500  -0.000  92.516
 Approx polarizability: 137.574   0.000 135.064   4.317  -0.001 179.800

                      1                      2                      3
                      A                      A                      A
 Frequencies --     20.8887                26.5311                47.5054
 Red. masses --      6.0149                11.7667                13.5929
 Frc consts  --      0.0015                 0.0049                 0.0181
 IR Inten    --      5.4725                 0.9391                 0.1049

                      4                      5                      6
                      A                      A                      A
 Frequencies --     51.4603                71.5950               116.7228
 Red. masses --     11.8774                 5.9528                 7.4177
 Frc consts  --      0.0185                 0.0180                 0.0595
 IR Inten    --      0.6046                 1.4085                 1.6461

                      7                      8                      9
                      A                      A                      A
 Frequencies --    138.5396               147.9417               189.0524
 Red. masses --      3.7670                 7.9242                 3.4637
 Frc consts  --      0.0426                 0.1022                 0.0729
 IR Inten    --      0.0970                 0.3889                 0.4986

                     10                     11                     12
                      A                      A                      A
 Frequencies --    242.7854               276.8809               301.5124
 Red. masses --      8.2383                 3.4544                 3.6756
 Frc consts  --      0.2861                 0.1560                 0.1969
 IR Inten    --      1.2595                 4.4216                 0.1255

                     13                     14                     15
                      A                      A                      A
 Frequencies --    359.0927               380.8789               475.9723
 Red. masses --      2.2281                 3.8194                 2.6861
 Frc consts  --      0.1693                 0.3264                 0.3585
 IR Inten    --      0.7165                 3.1904                 1.4470

                     16                     17                     18
                      A                      A                      A
 Frequencies --    602.7567               617.5654               658.2172
 Red. masses --      7.6536                 6.3601                 8.4856
 Frc consts  --      1.6383                 1.4292                 2.1661
 IR Inten    --      1.2746                 1.6684                10.9068

                     19                     20                     21
                      A                      A                      A
 Frequencies --    712.4986               778.6532               779.2963
 Red. masses --     10.0735                 9.6048                13.8253
 Frc consts  --      3.0130                 3.4311                 4.9469
 IR Inten    --     41.5876                 3.2900                10.4245

                     22                     23                     24
                      A                      A                      A
 Frequencies --    785.9230               865.1861               867.6778
 Red. masses --      5.1725                 4.1204                13.7070
 Frc consts  --      1.8824                 1.8172                 6.0801
 IR Inten    --     19.1143                77.6327               397.6954

                     25                     26                     27
                      A                      A                      A
 Frequencies --    887.6010               912.0993               952.0158
 Red. masses --      8.1077                 2.0262                 1.4421
 Frc consts  --      3.7634                 0.9932                 0.7701
 IR Inten    --    178.4284                 1.3055                 3.0761

                     28                     29                     30
                      A                      A                      A
 Frequencies --    966.8741               976.2125              1017.2067
 Red. masses --      2.3357                 1.8519                 8.9815
 Frc consts  --      1.2865                 1.0398                 5.4754
 IR Inten    --     45.8862                 0.9716                48.3683

                     31                     32                     33
                      A                      A                      A
 Frequencies --   1024.0339              1050.2469              1053.3244
 Red. masses --      2.4645                11.4246                 5.0342
 Frc consts  --      1.5227                 7.4246                 3.2908
 IR Inten    --      8.8588               113.0371                35.3594

                     34                     35                     36
                      A                      A                      A
 Frequencies --   1140.2461              1155.8843              1163.3725
 Red. masses --      3.3231                 1.2951                 1.0625
 Frc consts  --      2.5456                 1.0195                 0.8473
 IR Inten    --      5.1926                 1.6957                 0.2550

                     37                     38                     39
                      A                      A                      A
 Frequencies --   1203.7059              1244.7302              1282.6140
 Red. masses --      1.8570                 1.3228                 1.3204
 Frc consts  --      1.5853                 1.2076                 1.2798
 IR Inten    --      0.2610                 0.9596                31.0325

                     40                     41                     42
                      A                      A                      A
 Frequencies --   1312.6864              1314.4239              1340.0902
 Red. masses --      2.1207                 1.2835                 4.8940
 Frc consts  --      2.1530                 1.3065                 5.1783
 IR Inten    --    152.2271                 8.5284               169.5503

                     43                     44                     45
                      A                      A                      A
 Frequencies --   1341.2162              1388.7311              1396.1871
 Red. masses --      3.8549                 1.5324                 1.8451
 Frc consts  --      4.0857                 1.7413                 2.1191
 IR Inten    --    142.5654                 1.3679                61.6238

                     46                     47                     48
                      A                      A                      A
 Frequencies --   1414.5467              1505.2644              1507.2797
 Red. masses --      1.7531                 1.0801                 1.0842
 Frc consts  --      2.0668                 1.4419                 1.4513
 IR Inten    --     19.9535                 2.8144                 8.2596

                     49                     50                     51
                      A                      A                      A
 Frequencies --   1519.2073              1539.7472              1757.7629
 Red. masses --      1.0800                 1.1050                14.4908
 Frc consts  --      1.4687                 1.5436                26.3792
 IR Inten    --      3.8001                 0.9209                88.9060

                     52                     53                     54
                      A                      A                      A
 Frequencies --   1759.4814              3015.4853              3025.1941
 Red. masses --     14.4848                 1.0535                 1.0593
 Frc consts  --     26.4199                 5.6443                 5.7120
 IR Inten    --    586.0276                86.8495                 0.3995

                     55                     56                     57
                      A                      A                      A
 Frequencies --   3060.2673              3063.5132              3066.2263
 Red. masses --      1.0671                 1.0629                 1.1020
 Frc consts  --      5.8879                 5.8776                 6.1043
 IR Inten    --     14.4545                 3.4286                 0.7200

                     58                     59                     60
                      A                      A                      A
 Frequencies --   3069.5974              3119.6870              3120.8524
 Red. masses --      1.1000                 1.1085                 1.1102
 Frc consts  --      6.1067                 6.3562                 6.3708
 IR Inten    --     62.3706                10.1440                11.5551

 - Thermochemistry -
 -------------------
 Temperature   298.150 Kelvin.  Pressure   1.00000 Atm.
 Atom     1 has atomic number  8 and mass  15.99491

 Molecular mass:   208.03315 amu.
 Principal axes and moments of inertia in atomic units:
                           1         2         3
     Eigenvalues --  2455.623073931.122785518.64961
           X            1.00000  -0.00000  -0.00304
           Y            0.00000   1.00000   0.00000
           Z            0.00304  -0.00000   1.00000
 This molecule is an asymmetric top.
 Rotational symmetry number  1.
 Warning -- assumption of classical behavior for rotation
           may cause significant error
 Rotational temperatures (Kelvin)      0.03527     0.02203     0.01569
 Rotational constants (GHZ):           0.73494     0.45909     0.32703
 Zero-point vibrational energy     413804.7 (Joules/Mol)
                                   98.90170 (Kcal/Mol)
 Warning -- explicit consideration of  17 degrees of freedom as
           vibrations may cause significant error
 Vibrational temperatures:     30.05    38.17    68.35    74.04   103.01
          (Kelvin)            167.94   199.33   212.85   272.00   349.31
                              398.37   433.81   516.65   548.00   684.82
                              867.23   888.54   947.03  1025.13  1120.31
                             1121.23  1130.77  1244.81  1248.39  1277.06
                             1312.31  1369.74  1391.11  1404.55  1463.53
                             1473.35  1511.07  1515.50  1640.56  1663.06
                             1673.83  1731.86  1790.89  1845.39  1888.66
                             1891.16  1928.09  1929.71  1998.07  2008.80
                             2035.21  2165.74  2168.64  2185.80  2215.35
                             2529.03  2531.50  4338.61  4352.57  4403.04
                             4407.71  4411.61  4416.46  4488.53  4490.20

 Zero-point correction=                           0.157610 (Hartree/Particle)
 Thermal correction to Energy=                    0.171038
 Thermal correction to Enthalpy=                  0.171982
 Thermal correction to Gibbs Free Energy=         0.113501
 Sum of electronic and zero-point Energies=           -830.998052
 Sum of electronic and thermal Energies=              -830.984624
 Sum of electronic and thermal Enthalpies=            -830.983680
 Sum of electronic and thermal Free Energies=         -831.042161

                     E (Thermal)             CV                S
                      KCal/Mol        Cal/Mol-Kelvin    Cal/Mol-Kelvin
 Total                  107.328             45.938            123.085
 Electronic               0.000              0.000              0.000
 Translational            0.889              2.981             41.902
 Rotational               0.889              2.981             32.344
 Vibrational            105.551             39.977             48.839
 Vibration     1          0.593              1.986              6.548
 Vibration     2          0.593              1.984              6.073
 Vibration     3          0.595              1.979              4.919
 Vibration     4          0.596              1.977              4.760
 Vibration     5          0.598              1.968              4.109
 Vibration     6          0.608              1.935              3.154
 Vibration     7          0.614              1.915              2.824
 Vibration     8          0.617              1.905              2.699
 Vibration     9          0.633              1.855              2.237
 Vibration    10          0.659              1.775              1.782
 Vibration    11          0.678              1.716              1.553
 Vibration    12          0.693              1.671              1.408
 Vibration    13          0.734              1.557              1.126
 Vibration    14          0.751              1.511              1.036
 Vibration    15          0.833              1.303              0.721
 Vibration    16          0.961              1.026              0.445
 Vibration    17          0.977              0.995              0.420

 Optimization completed.
    -- Stationary point found.
 Normal termination of Gaussian 09 at Fri Aug 27 02:15:54 2021.

 -----------------------------------------------------------------
 #P Geom=AllCheck Guess=TCheck SCRF=Check CCSD(T,E4T,FrzG4)/GTBas1
 -----------------------------------------------------------------

 Structure from the checkpoint file:  "/public/home/users/caep010/.cache/gau_scr/Gau-177310.chk"
 ------
 DUMPEG
 ------
 Charge =  0 Multiplicity = 1

 SCF Done:  E(RHF) =  -826.529191315     A.U. after   14 cycles
 E2 =    -0.2276949172D+01 EUMP2 =    -0.82880614048646D+03
 CCSD(T)
 CCSD(T)= -0.82892254336D+03
 4SDQ=-828.8412328\CCSD=-828.8326139\CCSD(T)=-828.9225434\RMSD=9.017e-0
 Normal termination of Gaussian 09 at Fri Aug 27 04:38:07 2021.

 ---------------------------------------------------------
 #P Geom=AllCheck Guess=TCheck SCRF=Check MP4=FrzG4/GTBas2
 ---------------------------------------------------------

 Structure from the checkpoint file:  "/public/home/users/caep010/.cache/gau_scr/Gau-177310.chk"
 ------
 DUMPEG
 ------
 Charge =  0 Multiplicity = 1

 SCF Done:  E(RHF) =  -826.553093098     A.U. after   14 cycles
 E2 =    -0.2309905173D+01 EUMP2 =    -0.82886299827094D+03
 Normal termination of Gaussian 09 at Fri Aug 27 05:30:37 2021.

 ---------------------------------------------------------
 #P Geom=AllCheck Guess=TCheck SCRF=Check MP4=FrzG4/GTBas3
 ---------------------------------------------------------

 Structure from the checkpoint file:  "/public/home/users/caep010/.cache/gau_scr/Gau-177310.chk"
 ------
 DUMPEG
 ------
 Charge =  0 Multiplicity = 1

 SCF Done:  E(RHF) =  -826.616503466     A.U. after   11 cycles
 E2 =    -0.2756554092D+01 EUMP2 =    -0.82937305755818D+03
 Normal termination of Gaussian 09 at Fri Aug 27 14:15:10 2021.

 -----------------------------------------------------------
 #P Geom=AllCheck Guess=TCheck SCRF=Check MP2=Full/GTLargeXP
 -----------------------------------------------------------

 Structure from the checkpoint file:  "/public/home/users/caep010/.cache/gau_scr/Gau-177310.chk"
 ------
 DUMPEG
 ------
 Charge =  0 Multiplicity = 1

 SCF Done:  E(RHF) =  -826.837664574     A.U. after   14 cycles
 E2 =    -0.3567239623D+01 EUMP2 =    -0.83040490419753D+03
 Normal termination of Gaussian 09 at Fri Aug 27 14:32:39 2021.
 SCF Done:  E(RHF) =  -826.906183773     A.U. after   10 cycles
 Normal termination of Gaussian 09 at Fri Aug 27 14:40:27 2021.

                         Standard orientation:
 ---------------------------------------------------------------------
 Center     Atomic      Atomic             Coordinates (Angstroms)
 Number     Number       Type             X           Y           Z
 ---------------------------------------------------------------------
      1          8           0        0.000191    3.309970   -0.000038
      2          6           0        0.000009    1.159914    0.000019
      3          6           0       -0.504271    2.312306   -0.906686
      4          6           0        0.504384    2.312269    0.906718
      5          1           0       -0.036248    2.374690   -1.896747
      6          1           0        0.036243    2.374771    1.896717
      7          6           0       -1.096079    0.320025    0.641151
      8          6           0        1.096062    0.319989   -0.641130
      9          8           0       -1.691862   -0.431561   -0.435381
     10          8           0        1.691819   -0.431639    0.435387
     11          1           0       -1.592575    2.364247   -1.025234
     12          1           0        1.592679    2.364045    1.025402
     13          1           0       -0.693927   -0.363169    1.393368
     14          1           0        0.693880   -0.363177   -1.393356
     15          1           0       -1.853321    0.956632    1.107022
     16          1           0        1.853327    0.956575   -1.106993
     17          7           0       -2.751806   -1.282195   -0.027205
     18          7           0        2.751732   -1.282303    0.027194
     19          8           0       -3.041324   -1.275506    1.144110
     20          8           0        3.041247   -1.275605   -1.144122
     21          8           0       -3.220635   -1.901519   -0.939649
     22          8           0        3.220542   -1.901659    0.939626
 ---------------------------------------------------------------------

 SCF Done:  E(RHF) =  -826.920028215     A.U. after    8 cycles

 The electronic state is 1-A.
 Alpha  occ. eigenvalues --  -20.68191 -20.68191 -20.64332 -20.64332 -20.64194
 Alpha  occ. eigenvalues --  -20.64194 -20.57928 -15.93708 -15.93708 -11.33416
 Alpha  occ. eigenvalues --  -11.33415 -11.31476 -11.31475 -11.29293  -1.68448
 Alpha  occ. eigenvalues --   -1.68433  -1.46560  -1.46547  -1.44818  -1.44236
 Alpha  occ. eigenvalues --   -1.41280  -1.13541  -1.02697  -0.97667  -0.97390
 Alpha  occ. eigenvalues --   -0.90668  -0.89009  -0.82783  -0.82227  -0.80350
 Alpha  occ. eigenvalues --   -0.79832  -0.79353  -0.78228  -0.76872  -0.72436
 Alpha  occ. eigenvalues --   -0.71235  -0.67017  -0.66610  -0.64683  -0.63580
 Alpha  occ. eigenvalues --   -0.61987  -0.59695  -0.57998  -0.55127  -0.54162
 Alpha  occ. eigenvalues --   -0.53743  -0.53597  -0.53275  -0.52584  -0.50139
 Alpha  occ. eigenvalues --   -0.50013  -0.49184  -0.48125  -0.44994
 Alpha virt. eigenvalues --    0.02540   0.03255   0.03656   0.04200   0.05824
 Alpha virt. eigenvalues --    0.05976   0.06080   0.06248   0.06813   0.07605
 Alpha virt. eigenvalues --    0.08186   0.08860   0.09152   0.09216   0.09370

 Mulliken charges:
               1
     1  O   -0.398324
     2  C    0.327091
     3  C   -0.198402
     4  C   -0.198411
     5  H    0.167868
     6  H    0.167866
     7  C   -0.247460
     8  C   -0.247482
     9  O   -0.218861
    10  O   -0.218862
    11  H    0.172504
    12  H    0.172508
    13  H    0.229044
    14  H    0.229045
    15  H    0.215269
    16  H    0.215275
    17  N    0.658931
    18  N    0.658932
    19  O   -0.388551
    20  O   -0.388551
    21  O   -0.354713
    22  O   -0.354714
 Sum of Mulliken charges =  -0.00000

 Dipole moment (field-independent basis, Debye):
    X=             -0.0002    Y=              2.7075    Z=              0.0001  Tot=              2.7075
 Quadrupole moment (field-independent basis, Debye-Ang):
   XX=            -95.0225   YY=            -93.3938   ZZ=            -80.8393
   XY=             -0.0009   XZ=             -1.0634   YZ=              0.0004

 Normal termination of Gaussian 09 at Fri Aug 27 15:31:04 2021.
