 Gaussian 09, Revision E.01,
 Gaussian 09:  ES64L-G09RevE.01 30-Nov-2015

 ----------------
 #P G4 OPT=calcfc
 ----------------

 ------
 DNPIMZ
 ------
 Symbolic Z-matrix:
 Charge =  0 Multiplicity = 1

 SCF Done:  E(RB3LYP) =  -752.907804807     A.U. after   16 cycles
 SCF Done:  E(RB3LYP) =  -753.059385522     A.U. after   14 cycles
 SCF Done:  E(RB3LYP) =  -753.174167935     A.U. after   14 cycles
 SCF Done:  E(RB3LYP) =  -753.180253618     A.U. after   14 cycles
 SCF Done:  E(RB3LYP) =  -753.180670087     A.U. after   13 cycles
 SCF Done:  E(RB3LYP) =  -753.180788998     A.U. after   13 cycles
 SCF Done:  E(RB3LYP) =  -753.180824196     A.U. after   11 cycles
 SCF Done:  E(RB3LYP) =  -753.180837380     A.U. after   10 cycles
 SCF Done:  E(RB3LYP) =  -753.180841015     A.U. after   10 cycles
 SCF Done:  E(RB3LYP) =  -753.180841677     A.U. after    8 cycles
 Optimization completed.
    -- Stationary point found.
 Normal termination of Gaussian 09 at Wed Aug 25 16:22:53 2021.

 ----------------------------------------------------------
 #P Geom=AllCheck Guess=TCheck SCRF=Check B3LYP/GTBas3 Freq
 ----------------------------------------------------------

 Structure from the checkpoint file:  "/public/home/users/caep010/.cache/gau_scr/Gau-18116.chk"
 ------
 DNPIMZ
 ------
 Charge =  0 Multiplicity = 1

 SCF Done:  E(RB3LYP) =  -753.180841677     A.U. after    2 cycles

  Exact polarizability: 140.506   0.181 124.989   0.221   1.274  64.256
 Approx polarizability: 217.481  -1.325 230.971   4.072   2.264  99.980

                      1                      2                      3
                      A                      A                      A
 Frequencies --     45.5242                56.8359                86.7502
 Red. masses --      5.4867                13.5570                 3.8037
 Frc consts  --      0.0067                 0.0258                 0.0169
 IR Inten    --      0.1866                 0.0822                 0.3229

                      4                      5                      6
                      A                      A                      A
 Frequencies --    111.0684               133.0063               150.5419
 Red. masses --      6.8781                 5.5079                 5.6814
 Frc consts  --      0.0500                 0.0574                 0.0759
 IR Inten    --      2.4386                 1.8041                 4.7398

                      7                      8                      9
                      A                      A                      A
 Frequencies --    176.2458               225.1715               240.7114
 Red. masses --      5.3035                 1.0486                 2.9741
 Frc consts  --      0.0971                 0.0313                 0.1015
 IR Inten    --      2.0105                 0.0428                 0.0119

                     10                     11                     12
                      A                      A                      A
 Frequencies --    256.3339               287.1515               324.0610
 Red. masses --      1.4235                 3.4171                 4.8944
 Frc consts  --      0.0551                 0.1660                 0.3028
 IR Inten    --      0.8596                 1.4102                 0.9156

                     13                     14                     15
                      A                      A                      A
 Frequencies --    345.3289               398.8642               436.0520
 Red. masses --      9.1645                 5.4247                 3.0924
 Frc consts  --      0.6439                 0.5085                 0.3464
 IR Inten    --      3.2420                 2.6583                 0.7628

                     16                     17                     18
                      A                      A                      A
 Frequencies --    478.4246               545.0865               610.2714
 Red. masses --      5.5714                 8.8372                 4.4473
 Frc consts  --      0.7513                 1.5470                 0.9759
 IR Inten    --      3.2377                 2.0558                 0.2901

                     19                     20                     21
                      A                      A                      A
 Frequencies --    660.7414               689.0033               731.3184
 Red. masses --      5.2894                 4.0585                 5.0924
 Frc consts  --      1.3606                 1.1352                 1.6047
 IR Inten    --     10.8722                 4.4747                15.4821

                     22                     23                     24
                      A                      A                      A
 Frequencies --    770.3043               777.3202               833.5568
 Red. masses --      4.9509                 4.0650                13.1301
 Frc consts  --      1.7308                 1.4471                 5.3751
 IR Inten    --      0.3620                24.8124                16.5234

                     25                     26                     27
                      A                      A                      A
 Frequencies --    834.6088               843.4718               890.2503
 Red. masses --      2.4992                 7.1835                 2.7645
 Frc consts  --      1.0257                 3.0111                 1.2909
 IR Inten    --      6.7997               111.0207                 6.4594

                     28                     29                     30
                      A                      A                      A
 Frequencies --    938.8581               972.9910               994.1289
 Red. masses --      1.1718                 1.5233                 8.2876
 Frc consts  --      0.6086                 0.8497                 4.8257
 IR Inten    --      1.7046                 5.7926                27.7489

                     31                     32                     33
                      A                      A                      A
 Frequencies --   1052.1737              1097.8660              1126.9974
 Red. masses --      2.1421                 2.3981                 1.9289
 Frc consts  --      1.3972                 1.7030                 1.4434
 IR Inten    --    192.7133                53.0050                 0.8516

                     34                     35                     36
                      A                      A                      A
 Frequencies --   1132.7478              1197.4098              1224.1981
 Red. masses --      2.4315                 1.9924                 3.1668
 Frc consts  --      1.8382                 1.6831                 2.7963
 IR Inten    --     10.7126                 5.0965               176.8734

                     37                     38                     39
                      A                      A                      A
 Frequencies --   1304.9522              1322.6866              1348.6295
 Red. masses --      6.5381                 1.4174                 6.9973
 Frc consts  --      6.5598                 1.4610                 7.4983
 IR Inten    --     59.8642                 3.8989               286.9742

                     40                     41                     42
                      A                      A                      A
 Frequencies --   1365.8570              1388.4351              1399.4706
 Red. masses --      4.0040                 1.8853                 1.3013
 Frc consts  --      4.4011                 2.1414                 1.5016
 IR Inten    --     21.9619                11.3020                 4.0237

                     43                     44                     45
                      A                      A                      A
 Frequencies --   1408.8192              1421.4856              1486.2417
 Red. masses --     13.7704                 1.2266                 1.0414
 Frc consts  --     16.1030                 1.4603                 1.3554
 IR Inten    --    156.3050                 7.5847                 2.2326

                     46                     47                     48
                      A                      A                      A
 Frequencies --   1487.9906              1501.3142              1509.3170
 Red. masses --      1.0492                 1.0527                 1.0729
 Frc consts  --      1.3687                 1.3980                 1.4400
 IR Inten    --      3.0032                 5.5833                 3.3959

                     49                     50                     51
                      A                      A                      A
 Frequencies --   1573.8532              1590.8263              1647.7190
 Red. masses --      7.8601                 8.5386                13.8886
 Frc consts  --     11.4712                12.7316                22.2165
 IR Inten    --     46.9387                16.6871               184.7472

                     52                     53                     54
                      A                      A                      A
 Frequencies --   1718.7104              3044.2866              3051.5077
 Red. masses --     13.8937                 1.0346                 1.0352
 Frc consts  --     24.1810                 5.6493                 5.6797
 IR Inten    --    325.9580                17.1835                16.9545

                     55                     56                     57
                      A                      A                      A
 Frequencies --   3078.9147              3118.0767              3122.3522
 Red. masses --      1.0830                 1.1024                 1.1025
 Frc consts  --      6.0487                 6.3146                 6.3327
 IR Inten    --      2.4006                10.1811                22.5554

                     58                     59                     60
                      A                      A                      A
 Frequencies --   3129.3129              3136.7624              3336.4407
 Red. masses --      1.1017                 1.1011                 1.1003
 Frc consts  --      6.3562                 6.3834                 7.2167
 IR Inten    --     18.6623                16.0919                32.6699

 - Thermochemistry -
 -------------------
 Temperature   298.150 Kelvin.  Pressure   1.00000 Atm.
 Atom     1 has atomic number  6 and mass  12.00000

 Molecular mass:   200.05455 amu.
 Principal axes and moments of inertia in atomic units:
                           1         2         3
     Eigenvalues --  1882.483473368.953754976.28599
           X            0.99719   0.07466  -0.00616
           Y           -0.07464   0.99720   0.00383
           Z            0.00643  -0.00336   0.99997
 This molecule is an asymmetric top.
 Rotational symmetry number  1.
 Warning -- assumption of classical behavior for rotation
           may cause significant error
 Rotational temperatures (Kelvin)      0.04601     0.02571     0.01741
 Rotational constants (GHZ):           0.95870     0.53570     0.36267
 Zero-point vibrational energy     419705.8 (Joules/Mol)
                                  100.31210 (Kcal/Mol)
 Warning -- explicit consideration of  18 degrees of freedom as
           vibrations may cause significant error
 Vibrational temperatures:     65.50    81.77   124.81   159.80   191.37
          (Kelvin)            216.60   253.58   323.97   346.33   368.81
                              413.15   466.25   496.85   573.88   627.38
                              688.35   784.26   878.04   950.66   991.32
                             1052.20  1108.29  1118.39  1199.30  1200.81
                             1213.57  1280.87  1350.81  1399.92  1430.33
                             1513.84  1579.58  1621.50  1629.77  1722.80
                             1761.35  1877.53  1903.05  1940.37  1965.16
                             1997.65  2013.52  2026.97  2045.20  2138.37
                             2140.88  2160.05  2171.57  2264.42  2288.84
                             2370.70  2472.84  4380.04  4390.43  4429.87
                             4486.21  4492.36  4502.38  4513.10  4800.39

 Zero-point correction=                           0.159858 (Hartree/Particle)
 Thermal correction to Energy=                    0.172749
 Thermal correction to Enthalpy=                  0.173693
 Thermal correction to Gibbs Free Energy=         0.119553
 Sum of electronic and zero-point Energies=           -753.020984
 Sum of electronic and thermal Energies=              -753.008093
 Sum of electronic and thermal Enthalpies=            -753.007149
 Sum of electronic and thermal Free Energies=         -753.061288

                     E (Thermal)             CV                S
                      KCal/Mol        Cal/Mol-Kelvin    Cal/Mol-Kelvin
 Total                  108.401             46.471            113.946
 Electronic               0.000              0.000              0.000
 Translational            0.889              2.981             41.785
 Rotational               0.889              2.981             31.823
 Vibrational            106.624             40.509             40.338
 Vibration     1          0.595              1.979              5.003
 Vibration     2          0.596              1.975              4.564
 Vibration     3          0.601              1.958              3.732
 Vibration     4          0.607              1.940              3.250
 Vibration     5          0.613              1.920              2.902
 Vibration     6          0.618              1.902              2.665
 Vibration     7          0.628              1.872              2.368
 Vibration     8          0.650              1.803              1.917
 Vibration     9          0.658              1.778              1.798
 Vibration    10          0.666              1.752              1.687
 Vibration    11          0.684              1.698              1.491
 Vibration    12          0.709              1.627              1.290
 Vibration    13          0.724              1.585              1.187
 Vibration    14          0.765              1.473              0.967
 Vibration    15          0.797              1.392              0.839
 Vibration    16          0.835              1.298              0.714
 Vibration    17          0.900              1.150              0.554
 Vibration    18          0.969              1.010              0.432

 Normal termination of Gaussian 09 at Wed Aug 25 16:26:43 2021.

 -----------------------------------------------------------------
 #P Geom=AllCheck Guess=TCheck SCRF=Check CCSD(T,E4T,FrzG4)/GTBas1
 -----------------------------------------------------------------

 Structure from the checkpoint file:  "/public/home/users/caep010/.cache/gau_scr/Gau-18116.chk"
 ------
 DNPIMZ
 ------
 Charge =  0 Multiplicity = 1

 SCF Done:  E(RHF) =  -748.810196922     A.U. after   15 cycles
 E2 =    -0.2190354413D+01 EUMP2 =    -0.75100055133576D+03
 CCSD(T)
 CCSD(T)= -0.75111807684D+03
 265\CCSD=-751.0215865\CCSD(T)=-751.1180768\RMSD=6.887e-09\PG=C01 [X(C6
 Normal termination of Gaussian 09 at Wed Aug 25 18:54:34 2021.

 ---------------------------------------------------------
 #P Geom=AllCheck Guess=TCheck SCRF=Check MP4=FrzG4/GTBas2
 ---------------------------------------------------------

 Structure from the checkpoint file:  "/public/home/users/caep010/.cache/gau_scr/Gau-18116.chk"
 ------
 DNPIMZ
 ------
 Charge =  0 Multiplicity = 1

 SCF Done:  E(RHF) =  -748.828737022     A.U. after   14 cycles
 E2 =    -0.2218569556D+01 EUMP2 =    -0.75104730657816D+03
 Normal termination of Gaussian 09 at Wed Aug 25 19:43:54 2021.

 ---------------------------------------------------------
 #P Geom=AllCheck Guess=TCheck SCRF=Check MP4=FrzG4/GTBas3
 ---------------------------------------------------------

 Structure from the checkpoint file:  "/public/home/users/caep010/.cache/gau_scr/Gau-18116.chk"
 ------
 DNPIMZ
 ------
 Charge =  0 Multiplicity = 1

 SCF Done:  E(RHF) =  -748.890105568     A.U. after   13 cycles
 E2 =    -0.2620304303D+01 EUMP2 =    -0.75151040987052D+03
 Normal termination of Gaussian 09 at Thu Aug 26 05:19:09 2021.

 -----------------------------------------------------------
 #P Geom=AllCheck Guess=TCheck SCRF=Check MP2=Full/GTLargeXP
 -----------------------------------------------------------

 Structure from the checkpoint file:  "/public/home/users/caep010/.cache/gau_scr/Gau-18116.chk"
 ------
 DNPIMZ
 ------
 Charge =  0 Multiplicity = 1

 SCF Done:  E(RHF) =  -749.075876293     A.U. after   14 cycles
 E2 =    -0.3404271994D+01 EUMP2 =    -0.75248014828660D+03
 Normal termination of Gaussian 09 at Thu Aug 26 05:37:48 2021.
 SCF Done:  E(RHF) =  -749.135844587     A.U. after   10 cycles
 Normal termination of Gaussian 09 at Thu Aug 26 05:46:35 2021.

                         Standard orientation:
 ---------------------------------------------------------------------
 Center     Atomic      Atomic             Coordinates (Angstroms)
 Number     Number       Type             X           Y           Z
 ---------------------------------------------------------------------
      1          6           0       -0.561875   -0.548729   -0.127759
      2          7           0        0.636269   -1.062338   -0.079510
      3          6           0        1.511896   -0.014997    0.006907
      4          6           0        0.892663    1.193864    0.011916
      5          7           0       -0.445149    0.858431   -0.068990
      6          6           0       -1.839147   -1.336999   -0.192072
      7          6           0       -1.562893   -2.738341   -0.755090
      8          1           0       -0.874401   -3.291927   -0.112938
      9          6           0       -2.497568   -1.414713    1.202748
     10          1           0       -1.837670   -1.928156    1.908695
     11          1           0       -3.432520   -1.978466    1.135625
     12          1           0        1.240466    2.207812    0.058333
     13          1           0       -2.526588   -0.812040   -0.860041
     14          1           0       -2.502640   -3.293492   -0.820861
     15          1           0       -1.119457   -2.688452   -1.753180
     16          1           0       -2.730767   -0.423431    1.597937
     17          7           0       -1.468853    1.857341   -0.128047
     18          8           0       -1.073515    3.000475   -0.121599
     19          8           0       -2.609966    1.457247   -0.176197
     20          7           0        2.945983   -0.212545    0.079634
     21          8           0        3.623927    0.808718    0.153984
     22          8           0        3.365475   -1.356263    0.061928
 ---------------------------------------------------------------------

 SCF Done:  E(RHF) =  -749.147642264     A.U. after    7 cycles

 The electronic state is 1-A.
 Alpha  occ. eigenvalues --  -20.65982 -20.65935 -20.61381 -20.60477 -15.95001
 Alpha  occ. eigenvalues --  -15.86556 -15.73051 -15.60707 -11.37252 -11.34789
 Alpha  occ. eigenvalues --  -11.33990 -11.27718 -11.24395 -11.23535  -1.68897
 Alpha  occ. eigenvalues --   -1.61603  -1.47736  -1.41961  -1.40993  -1.26778
 Alpha  occ. eigenvalues --   -1.14521  -1.08455  -1.04705  -0.96942  -0.95530
 Alpha  occ. eigenvalues --   -0.87615  -0.86275  -0.84068  -0.80825  -0.79715
 Alpha  occ. eigenvalues --   -0.78378  -0.76162  -0.73520  -0.72646  -0.68669
 Alpha  occ. eigenvalues --   -0.67165  -0.65217  -0.62867  -0.58697  -0.57736
 Alpha  occ. eigenvalues --   -0.56105  -0.55787  -0.53845  -0.52131  -0.51137
 Alpha  occ. eigenvalues --   -0.50942  -0.50684  -0.50462  -0.49284  -0.47819
 Alpha  occ. eigenvalues --   -0.46160  -0.38446
 Alpha virt. eigenvalues --    0.01254   0.02729   0.03561   0.03639   0.04403
 Alpha virt. eigenvalues --    0.05296   0.05349   0.06005   0.06318   0.06897
 Alpha virt. eigenvalues --    0.06930   0.07882   0.08353   0.08541   0.08919

 Mulliken charges:
               1
     1  C    0.399913
     2  N   -0.468091
     3  C    0.221804
     4  C   -0.140588
     5  N   -0.023418
     6  C    0.025076
     7  C   -0.605476
     8  H    0.207584
     9  C   -0.568260
    10  H    0.186119
    11  H    0.182225
    12  H    0.316517
    13  H    0.197103
    14  H    0.186793
    15  H    0.177283
    16  H    0.177046
    17  N    0.600793
    18  O   -0.389963
    19  O   -0.365302
    20  N    0.508527
    21  O   -0.450161
    22  O   -0.375522
 Sum of Mulliken charges =  -0.00000

 Dipole moment (field-independent basis, Debye):
    X=             -4.5995    Y=             -0.0346    Z=             -0.0991  Tot=              4.6007
 Quadrupole moment (field-independent basis, Debye-Ang):
   XX=           -100.0056   YY=            -86.6459   ZZ=            -78.1349
   XY=              9.8113   XZ=             -0.8808   YZ=              0.2685

 Normal termination of Gaussian 09 at Thu Aug 26 06:38:29 2021.
