 Gaussian 09, Revision E.01,
 Gaussian 09:  ES64L-G09RevE.01 30-Nov-2015

 ----------------
 #P G4 OPT=calcfc
 ----------------

 ------
 DNPHOL
 ------
 Symbolic Z-matrix:
 Charge =  0 Multiplicity = 1

 SCF Done:  E(RB3LYP) =  -716.387932871     A.U. after   16 cycles
 SCF Done:  E(RB3LYP) =  -716.483516968     A.U. after   16 cycles
 SCF Done:  E(RB3LYP) =  -716.508741841     A.U. after   17 cycles
 SCF Done:  E(RB3LYP) =  -716.515546315     A.U. after   17 cycles
 SCF Done:  E(RB3LYP) =  -716.518856338     A.U. after   17 cycles
 SCF Done:  E(RB3LYP) =  -716.451862584     A.U. after   15 cycles
 SCF Done:  E(RB3LYP) =  -716.519070924     A.U. after   10 cycles
 SCF Done:  E(RB3LYP) =  -716.519763727     A.U. after   15 cycles
 SCF Done:  E(RB3LYP) =  -716.519935226     A.U. after   12 cycles
 SCF Done:  E(RB3LYP) =  -716.520012995     A.U. after   12 cycles
 SCF Done:  E(RB3LYP) =  -716.520045897     A.U. after   11 cycles
 SCF Done:  E(RB3LYP) =  -716.520047919     A.U. after   10 cycles
 SCF Done:  E(RB3LYP) =  -716.520048169     A.U. after    9 cycles
 Optimization completed.
    -- Stationary point found.
 Normal termination of Gaussian 09 at Wed Aug 25 15:49:50 2021.

 ----------------------------------------------------------
 #P Geom=AllCheck Guess=TCheck SCRF=Check B3LYP/GTBas3 Freq
 ----------------------------------------------------------

 Structure from the checkpoint file:  "/public/home/users/caep010/.cache/gau_scr/Gau-198480.chk"
 ------
 DNPHOL
 ------
 Charge =  0 Multiplicity = 1

 SCF Done:  E(RB3LYP) =  -716.520048169     A.U. after    1 cycles

  Exact polarizability: 139.294   1.240 115.535   1.647   0.946  43.546
 Approx polarizability: 234.830   0.696 237.055   7.516   8.339  76.646

                      1                      2                      3
                      A                      A                      A
 Frequencies --     43.3405                66.5831               104.1808
 Red. masses --     13.9280                12.1386                13.8440
 Frc consts  --      0.0154                 0.0317                 0.0885
 IR Inten    --      0.5802                 3.0441                 0.1705

                      4                      5                      6
                      A                      A                      A
 Frequencies --    192.2987               195.9759               263.1655
 Red. masses --      5.1789                12.8238                 6.3766
 Frc consts  --      0.1128                 0.2902                 0.2602
 IR Inten    --      0.1484                 3.5863                 0.5471

                      7                      8                      9
                      A                      A                      A
 Frequencies --    321.0386               346.7938               402.7702
 Red. masses --      8.9829                10.3889                 6.8753
 Frc consts  --      0.5455                 0.7361                 0.6571
 IR Inten    --      2.5047                 0.5228                 6.5500

                     10                     11                     12
                      A                      A                      A
 Frequencies --    415.3898               454.7344               505.8409
 Red. masses --      7.5536                 7.1706                 9.4022
 Frc consts  --      0.7679                 0.8736                 1.4175
 IR Inten    --      0.2620                 2.1079                 0.5264

                     13                     14                     15
                      A                      A                      A
 Frequencies --    552.9859               605.4331               629.8722
 Red. masses --      3.5278                 8.6448                 5.3831
 Frc consts  --      0.6356                 1.8670                 1.2583
 IR Inten    --      4.0496                 8.4384                 5.7216

                     16                     17                     18
                      A                      A                      A
 Frequencies --    711.9115               733.0156               766.9366
 Red. masses --      9.2233                 8.9150                 1.9624
 Frc consts  --      2.7542                 2.8223                 0.6801
 IR Inten    --      6.6039                28.1480                38.3729

                     19                     20                     21
                      A                      A                      A
 Frequencies --    784.3279               823.8226               838.0149
 Red. masses --      7.0180                 1.1471                 7.5009
 Frc consts  --      2.5437                 0.4587                 3.1036
 IR Inten    --      5.9763                84.7750                 2.5254

                     22                     23                     24
                      A                      A                      A
 Frequencies --    845.1317               869.1661               926.9396
 Red. masses --      2.5417                 7.5671                 9.0303
 Frc consts  --      1.0696                 3.3681                 4.5715
 IR Inten    --      0.8682                17.6494                73.8665

                     25                     26                     27
                      A                      A                      A
 Frequencies --    978.7233               984.4488              1107.4869
 Red. masses --      1.3760                 1.3304                 1.6692
 Frc consts  --      0.7766                 0.7596                 1.2063
 IR Inten    --      0.3726                 1.3054                25.1912

                     28                     29                     30
                      A                      A                      A
 Frequencies --   1153.7345              1182.4363              1203.5474
 Red. masses --      8.0441                 1.1405                 2.1984
 Frc consts  --      6.3087                 0.9395                 1.8762
 IR Inten    --     14.4381                13.9647                29.8102

                     31                     32                     33
                      A                      A                      A
 Frequencies --   1311.9849              1335.5219              1350.0870
 Red. masses --      6.0405                 3.1418                 4.8842
 Frc consts  --      6.1261                 3.3016                 5.2452
 IR Inten    --    156.8396               100.0758               238.6325

                     34                     35                     36
                      A                      A                      A
 Frequencies --   1389.7008              1436.7333              1492.1560
 Red. masses --      8.0900                 2.1896                 2.7431
 Frc consts  --      9.2053                 2.6630                 3.5984
 IR Inten    --    121.9725                87.2322               157.9986

                     37                     38                     39
                      A                      A                      A
 Frequencies --   1510.0558              1602.8125              1622.3026
 Red. masses --      4.5125                 7.8848                 4.8430
 Frc consts  --      6.0625                11.9346                 7.5099
 IR Inten    --     80.0646               168.8479                80.5101

                     40                     41                     42
                      A                      A                      A
 Frequencies --   1639.0070              1684.2062              3213.9494
 Red. masses --      6.7332                 7.7636                 1.0878
 Frc consts  --     10.6569                12.9749                 6.6203
 IR Inten    --    112.1973               222.1685                 1.9388

                     43                     44                     45
                      A                      A                      A
 Frequencies --   3229.8115              3238.3764              3311.3670
 Red. masses --      1.0921                 1.0940                 1.0667
 Frc consts  --      6.7122                 6.7598                 6.8914
 IR Inten    --      4.0424                 2.1692               356.0279

 - Thermochemistry -
 -------------------
 Temperature   298.150 Kelvin.  Pressure   1.00000 Atm.
 Atom     1 has atomic number  6 and mass  12.00000

 Molecular mass:   184.01202 amu.
 Principal axes and moments of inertia in atomic units:
                           1         2         3
     Eigenvalues --  1103.769303059.562244109.04492
           X            0.99999   0.00356  -0.00004
           Y           -0.00356   0.99999  -0.00365
           Z            0.00002   0.00365   0.99999
 This molecule is an asymmetric top.
 Rotational symmetry number  1.
 Warning -- assumption of classical behavior for rotation
           may cause significant error
 Rotational temperatures (Kelvin)      0.07847     0.02831     0.02108
 Rotational constants (GHZ):           1.63507     0.58987     0.43921
 Zero-point vibrational energy     289365.4 (Joules/Mol)
                                   69.15999 (Kcal/Mol)
 Warning -- explicit consideration of  14 degrees of freedom as
           vibrations may cause significant error
 Vibrational temperatures:     62.36    95.80   149.89   276.67   281.97
          (Kelvin)            378.64   461.90   498.96   579.50   597.65
                              654.26   727.79   795.62   871.08   906.24
                             1024.28  1054.64  1103.45  1128.47  1185.30
                             1205.72  1215.95  1250.53  1333.66  1408.16
                             1416.40  1593.42  1659.96  1701.26  1731.63
                             1887.65  1921.52  1942.47  1999.47  2067.14
                             2146.88  2172.63  2306.09  2334.13  2358.16
                             2423.19  4624.15  4646.97  4659.30  4764.31

 Zero-point correction=                           0.110213 (Hartree/Particle)
 Thermal correction to Energy=                    0.120278
 Thermal correction to Enthalpy=                  0.121222
 Thermal correction to Gibbs Free Energy=         0.073313
 Sum of electronic and zero-point Energies=           -716.409835
 Sum of electronic and thermal Energies=              -716.399771
 Sum of electronic and thermal Enthalpies=            -716.398826
 Sum of electronic and thermal Free Energies=         -716.446735

                     E (Thermal)             CV                S
                      KCal/Mol        Cal/Mol-Kelvin    Cal/Mol-Kelvin
 Total                   75.475             37.529            100.832
 Electronic               0.000              0.000              0.000
 Translational            0.889              2.981             41.536
 Rotational               0.889              2.981             31.007
 Vibrational             73.698             31.568             28.289
 Vibration     1          0.595              1.980              5.100
 Vibration     2          0.598              1.970              4.252
 Vibration     3          0.605              1.946              3.375
 Vibration     4          0.634              1.851              2.206
 Vibration     5          0.636              1.845              2.171
 Vibration     6          0.670              1.740              1.641
 Vibration     7          0.707              1.633              1.305
 Vibration     8          0.725              1.582              1.181
 Vibration     9          0.768              1.464              0.953
 Vibration    10          0.779              1.437              0.908
 Vibration    11          0.813              1.350              0.782
 Vibration    12          0.861              1.237              0.644
 Vibration    13          0.908              1.133              0.538
 Vibration    14          0.964              1.020              0.440

 Normal termination of Gaussian 09 at Wed Aug 25 15:52:26 2021.

 -----------------------------------------------------------------
 #P Geom=AllCheck Guess=TCheck SCRF=Check CCSD(T,E4T,FrzG4)/GTBas1
 -----------------------------------------------------------------

 Structure from the checkpoint file:  "/public/home/users/caep010/.cache/gau_scr/Gau-198480.chk"
 ------
 DNPHOL
 ------
 Charge =  0 Multiplicity = 1

 SCF Done:  E(RHF) =  -712.477746935     A.U. after   17 cycles
 E2 =    -0.2021102689D+01 EUMP2 =    -0.71449884962416D+03
 CCSD(T)
 CCSD(T)= -0.71459460134D+03
 D=-714.5021588\CCSD(T)=-714.5946013\RMSD=2.319e-09\PG=C01 [X(C6H4N2O5)
 Normal termination of Gaussian 09 at Wed Aug 25 17:10:54 2021.

 ---------------------------------------------------------
 #P Geom=AllCheck Guess=TCheck SCRF=Check MP4=FrzG4/GTBas2
 ---------------------------------------------------------

 Structure from the checkpoint file:  "/public/home/users/caep010/.cache/gau_scr/Gau-198480.chk"
 ------
 DNPHOL
 ------
 Charge =  0 Multiplicity = 1

 SCF Done:  E(RHF) =  -712.498311813     A.U. after   21 cycles
 E2 =    -0.2048563612D+01 EUMP2 =    -0.71454687542486D+03
 Normal termination of Gaussian 09 at Wed Aug 25 17:42:43 2021.

 ---------------------------------------------------------
 #P Geom=AllCheck Guess=TCheck SCRF=Check MP4=FrzG4/GTBas3
 ---------------------------------------------------------

 Structure from the checkpoint file:  "/public/home/users/caep010/.cache/gau_scr/Gau-198480.chk"
 ------
 DNPHOL
 ------
 Charge =  0 Multiplicity = 1

 SCF Done:  E(RHF) =  -712.553761785     A.U. after   13 cycles
 E2 =    -0.2412097583D+01 EUMP2 =    -0.71496585936878D+03
 Normal termination of Gaussian 09 at Wed Aug 25 21:14:06 2021.

 -----------------------------------------------------------
 #P Geom=AllCheck Guess=TCheck SCRF=Check MP2=Full/GTLargeXP
 -----------------------------------------------------------

 Structure from the checkpoint file:  "/public/home/users/caep010/.cache/gau_scr/Gau-198480.chk"
 ------
 DNPHOL
 ------
 Charge =  0 Multiplicity = 1

 SCF Done:  E(RHF) =  -712.735817369     A.U. after   17 cycles
 E2 =    -0.3142516699D+01 EUMP2 =    -0.71587833406868D+03
 Normal termination of Gaussian 09 at Wed Aug 25 21:36:59 2021.
 SCF Done:  E(RHF) =  -712.794087658     A.U. after   11 cycles
 Normal termination of Gaussian 09 at Wed Aug 25 21:43:52 2021.

                         Standard orientation:
 ---------------------------------------------------------------------
 Center     Atomic      Atomic             Coordinates (Angstroms)
 Number     Number       Type             X           Y           Z
 ---------------------------------------------------------------------
      1          6           0        0.002461   -0.476196    0.017522
      2          6           0        1.204201    0.269364   -0.013235
      3          6           0        1.206460    1.654477   -0.050186
      4          8           0        0.015462   -1.790915    0.103918
      5          1           0       -0.932543   -2.072819    0.138575
      6          7           0        2.515798   -0.402355   -0.010240
      7          8           0        3.456639    0.235653    0.449039
      8          1           0        2.167003    2.153747   -0.047054
      9          8           0        2.587621   -1.523901   -0.483242
     10          6           0       -1.193923    0.291480   -0.010006
     11          7           0       -2.487448   -0.370401    0.030388
     12          8           0       -2.511125   -1.614279    0.111868
     13          6           0       -1.186420    1.685089   -0.072694
     14          6           0        0.013176    2.372466   -0.092453
     15          1           0        0.026741    3.453744   -0.137290
     16          1           0       -2.139298    2.196349   -0.098202
     17          8           0       -3.498107    0.305716   -0.015428
 ---------------------------------------------------------------------

 SCF Done:  E(RHF) =  -712.805410940     A.U. after    8 cycles

 The electronic state is 1-A.
 Alpha  occ. eigenvalues --  -20.64128 -20.63289 -20.62661 -20.61299 -20.60727
 Alpha  occ. eigenvalues --  -15.89273 -15.86641 -11.39801 -11.33923 -11.33304
 Alpha  occ. eigenvalues --  -11.31579 -11.31542 -11.28301  -1.64104  -1.61752
 Alpha  occ. eigenvalues --   -1.47079  -1.42887  -1.41058  -1.23338  -1.15244
 Alpha  occ. eigenvalues --   -1.09906  -1.00019  -0.98540  -0.89882  -0.86289
 Alpha  occ. eigenvalues --   -0.81363  -0.78572  -0.77797  -0.75930  -0.75809
 Alpha  occ. eigenvalues --   -0.74094  -0.73686  -0.71526  -0.68903  -0.64072
 Alpha  occ. eigenvalues --   -0.63463  -0.60481  -0.59163  -0.54413  -0.53716
 Alpha  occ. eigenvalues --   -0.52735  -0.50877  -0.49994  -0.49578  -0.46268
 Alpha  occ. eigenvalues --   -0.41970  -0.37721
 Alpha virt. eigenvalues --   -0.00141   0.02424   0.03937   0.04151   0.04862
 Alpha virt. eigenvalues --    0.05276   0.05949   0.06424   0.06974   0.07170
 Alpha virt. eigenvalues --    0.07731   0.08565   0.08963   0.09030   0.09311

 Mulliken charges:
               1
     1  C    0.236624
     2  C    0.185584
     3  C   -0.186183
     4  O   -0.559285
     5  H    0.452309
     6  N    0.499809
     7  O   -0.435867
     8  H    0.263925
     9  O   -0.387695
    10  C    0.158720
    11  N    0.519526
    12  O   -0.462707
    13  C   -0.209914
    14  C   -0.169135
    15  H    0.235544
    16  H    0.264251
    17  O   -0.405508
 Sum of Mulliken charges =  -0.00000

 Dipole moment (field-independent basis, Debye):
    X=             -1.6882    Y=              4.6222    Z=             -0.1843  Tot=              4.9243
 Quadrupole moment (field-independent basis, Debye-Ang):
   XX=            -96.2284   YY=            -68.6060   ZZ=            -73.2444
   XY=              2.7311   XZ=             -0.8356   YZ=             -1.7743

 Normal termination of Gaussian 09 at Wed Aug 25 22:27:21 2021.
