 Gaussian 09, Revision E.01,
 Gaussian 09:  ES64L-G09RevE.01 30-Nov-2015

 ----------------
 #P G4 OPT=calcfc
 ----------------

 ------
 DIXDUJ
 ------
 Symbolic Z-matrix:
 Charge =  0 Multiplicity = 1

 SCF Done:  E(RB3LYP) =  -644.645150364     A.U. after   16 cycles
 SCF Done:  E(RB3LYP) =  -644.754281310     A.U. after   13 cycles
 SCF Done:  E(RB3LYP) =  -644.813525722     A.U. after   15 cycles
 SCF Done:  E(RB3LYP) =  -644.816531173     A.U. after   16 cycles
 SCF Done:  E(RB3LYP) =  -644.816452802     A.U. after   14 cycles
 SCF Done:  E(RB3LYP) =  -644.815896073     A.U. after   12 cycles
 SCF Done:  E(RB3LYP) =  -644.816703268     A.U. after   10 cycles
 SCF Done:  E(RB3LYP) =  -644.817417118     A.U. after   16 cycles
 SCF Done:  E(RB3LYP) =  -644.817512586     A.U. after   15 cycles
 SCF Done:  E(RB3LYP) =  -644.817477976     A.U. after   16 cycles
 SCF Done:  E(RB3LYP) =  -644.817625019     A.U. after    9 cycles
 SCF Done:  E(RB3LYP) =  -644.817625259     A.U. after    9 cycles
 SCF Done:  E(RB3LYP) =  -644.817625366     A.U. after    9 cycles
 Optimization completed.
    -- Stationary point found.
 Normal termination of Gaussian 09 at Thu Aug 26 08:30:46 2021.

 ----------------------------------------------------------
 #P Geom=AllCheck Guess=TCheck SCRF=Check B3LYP/GTBas3 Freq
 ----------------------------------------------------------

 Structure from the checkpoint file:  "/public/home/users/caep010/.cache/gau_scr/Gau-212788.chk"
 ------
 DIXDUJ
 ------
 Charge =  0 Multiplicity = 1

 SCF Done:  E(RB3LYP) =  -644.817625366     A.U. after    1 cycles

  Exact polarizability: 157.435  -4.916 136.304   0.001   0.000  51.068
 Approx polarizability: 259.952   4.622 237.418   0.006  -0.001  83.823

                      1                      2                      3
                      A                      A                      A
 Frequencies --     38.7407                45.0110                81.2536
 Red. masses --      2.9850                 1.7921                 2.3873
 Frc consts  --      0.0026                 0.0021                 0.0093
 IR Inten    --      4.3264                 0.3231                 3.8437

                      4                      5                      6
                      A                      A                      A
 Frequencies --     88.1166               145.4247               154.1052
 Red. masses --      6.8324                 4.9485                 4.6948
 Frc consts  --      0.0313                 0.0617                 0.0657
 IR Inten    --      0.7735                 0.4160                10.3630

                      7                      8                      9
                      A                      A                      A
 Frequencies --    272.4980               273.5452               331.1254
 Red. masses --      8.9406                 5.0258                 4.4258
 Frc consts  --      0.3912                 0.2216                 0.2859
 IR Inten    --      0.0636                 0.0773                 0.4411

                     10                     11                     12
                      A                      A                      A
 Frequencies --    350.1455               420.3986               440.7032
 Red. masses --      8.2667                 6.8409                 3.7714
 Frc consts  --      0.5971                 0.7123                 0.4316
 IR Inten    --      1.9149                 3.0724                 0.0028

                     13                     14                     15
                      A                      A                      A
 Frequencies --    534.7849               537.4391               561.0936
 Red. masses --      5.9734                 3.3064                 5.7949
 Frc consts  --      1.0065                 0.5627                 1.0749
 IR Inten    --     13.8471                 7.8243                 1.0858

                     16                     17                     18
                      A                      A                      A
 Frequencies --    599.0139               664.2618               703.9056
 Red. masses --      2.8126                 5.6870                 6.2710
 Frc consts  --      0.5946                 1.4785                 1.8307
 IR Inten    --      2.9965                 8.4244                 3.5239

                     19                     20                     21
                      A                      A                      A
 Frequencies --    716.2647               766.4759               770.5194
 Red. masses --      4.3186                 1.1484                 1.8400
 Frc consts  --      1.3054                 0.3975                 0.6436
 IR Inten    --     10.4004                22.0382                65.7992

                     22                     23                     24
                      A                      A                      A
 Frequencies --    816.7461               846.6309               869.1529
 Red. masses --      2.3188                 4.6017                 9.4779
 Frc consts  --      0.9114                 1.9434                 4.2184
 IR Inten    --      2.9446                 0.6921                24.8319

                     25                     26                     27
                      A                      A                      A
 Frequencies --    907.3839               964.5075               974.6133
 Red. masses --      1.4513                 6.1578                 1.3293
 Frc consts  --      0.7040                 3.3751                 0.7440
 IR Inten    --      2.5665                 5.8208                 0.9897

                     28                     29                     30
                      A                      A                      A
 Frequencies --   1006.1249              1006.2221              1051.2369
 Red. masses --      1.2949                 1.7147                 1.7798
 Frc consts  --      0.7723                 1.0229                 1.1588
 IR Inten    --      1.1549                38.4911                 4.2192

                     31                     32                     33
                      A                      A                      A
 Frequencies --   1067.5309              1097.1553              1165.2053
 Red. masses --      2.5816                 2.9665                 1.7220
 Frc consts  --      1.7334                 2.1039                 1.3775
 IR Inten    --     17.7049                35.0341                47.5978

                     34                     35                     36
                      A                      A                      A
 Frequencies --   1185.4146              1243.5879              1250.0572
 Red. masses --      1.1529                 2.7308                 1.7336
 Frc consts  --      0.9545                 2.4883                 1.5961
 IR Inten    --      5.4772               123.7619                18.8192

                     37                     38                     39
                      A                      A                      A
 Frequencies --   1305.6517              1348.8840              1375.4150
 Red. masses --      3.0990                 3.5716                 3.6801
 Frc consts  --      3.1127                 3.8288                 4.1019
 IR Inten    --    207.9307                67.0691               189.1853

                     40                     41                     42
                      A                      A                      A
 Frequencies --   1389.2857              1461.0751              1471.7204
 Red. masses --      1.5048                 1.6771                 1.3600
 Frc consts  --      1.7112                 2.1094                 1.7355
 IR Inten    --    123.7274               123.1637                 4.4908

                     43                     44                     45
                      A                      A                      A
 Frequencies --   1480.6054              1493.5537              1543.3856
 Red. masses --      1.0455                 2.6003                 2.8002
 Frc consts  --      1.3503                 3.4176                 3.9300
 IR Inten    --      7.0820                46.7839               589.6451

                     46                     47                     48
                      A                      A                      A
 Frequencies --   1608.4538              1623.8769              1658.3371
 Red. masses --      7.3142                 3.0298                 6.4878
 Frc consts  --     11.1490                 4.7073                10.5122
 IR Inten    --    124.1255               114.9822               121.2495

                     49                     50                     51
                      A                      A                      A
 Frequencies --   1794.6550              3044.8135              3107.8088
 Red. masses --      8.7130                 1.0380                 1.0998
 Frc consts  --     16.5340                 5.6697                 6.2584
 IR Inten    --    170.9234                 2.3209                 6.0846

                     52                     53                     54
                      A                      A                      A
 Frequencies --   3168.2073              3184.8356              3206.5494
 Red. masses --      1.1006                 1.0877                 1.0930
 Frc consts  --      6.5089                 6.5003                 6.6212
 IR Inten    --      5.9595                 6.3093                 8.5325

                     55                     56                     57
                      A                      A                      A
 Frequencies --   3243.5184              3263.3216              3493.0439
 Red. masses --      1.0918                 1.0915                 1.0780
 Frc consts  --      6.7677                 6.8487                 7.7497
 IR Inten    --      3.0990                12.6626               158.1998

 - Thermochemistry -
 -------------------
 Temperature   298.150 Kelvin.  Pressure   1.00000 Atm.
 Atom     1 has atomic number  8 and mass  15.99491

 Molecular mass:   180.05349 amu.
 Principal axes and moments of inertia in atomic units:
                           1         2         3
     Eigenvalues --  1586.250852689.241814264.25522
           X            0.99685  -0.07926   0.00000
           Y            0.07926   0.99685  -0.00000
           Z           -0.00000   0.00000   1.00000
 This molecule is an asymmetric top.
 Rotational symmetry number  1.
 Warning -- assumption of classical behavior for rotation
           may cause significant error
 Rotational temperatures (Kelvin)      0.05460     0.03221     0.02031
 Rotational constants (GHZ):           1.13774     0.67110     0.42323
 Zero-point vibrational energy     413988.0 (Joules/Mol)
                                   98.94551 (Kcal/Mol)
 Warning -- explicit consideration of  16 degrees of freedom as
           vibrations may cause significant error
 Vibrational temperatures:     55.74    64.76   116.91   126.78   209.23
          (Kelvin)            221.72   392.06   393.57   476.41   503.78
                              604.86   634.07   769.44   773.25   807.29
                              861.85   955.72  1012.76  1030.54  1102.79
                             1108.60  1175.11  1218.11  1250.52  1305.52
                             1387.71  1402.25  1447.59  1447.73  1512.49
                             1535.94  1578.56  1676.47  1705.55  1789.24
                             1798.55  1878.54  1940.74  1978.91  1998.87
                             2102.16  2117.47  2130.26  2148.89  2220.58
                             2314.20  2336.39  2385.97  2582.10  4380.80
                             4471.44  4558.34  4582.26  4613.50  4666.69
                             4695.19  5025.70

 Zero-point correction=                           0.157680 (Hartree/Particle)
 Thermal correction to Energy=                    0.169138
 Thermal correction to Enthalpy=                  0.170082
 Thermal correction to Gibbs Free Energy=         0.118566
 Sum of electronic and zero-point Energies=           -644.659946
 Sum of electronic and thermal Energies=              -644.648487
 Sum of electronic and thermal Enthalpies=            -644.647543
 Sum of electronic and thermal Free Energies=         -644.699059

                     E (Thermal)             CV                S
                      KCal/Mol        Cal/Mol-Kelvin    Cal/Mol-Kelvin
 Total                  106.136             42.071            108.425
 Electronic               0.000              0.000              0.000
 Translational            0.889              2.981             41.471
 Rotational               0.889              2.981             31.276
 Vibrational            104.358             36.109             35.678
 Vibration     1          0.594              1.981              5.322
 Vibration     2          0.595              1.979              5.025
 Vibration     3          0.600              1.962              3.860
 Vibration     4          0.601              1.958              3.701
 Vibration     5          0.617              1.908              2.731
 Vibration     6          0.620              1.898              2.621
 Vibration     7          0.675              1.724              1.580
 Vibration     8          0.676              1.722              1.574
 Vibration     9          0.713              1.613              1.255
 Vibration    10          0.727              1.575              1.166
 Vibration    11          0.783              1.426              0.891
 Vibration    12          0.801              1.381              0.824
 Vibration    13          0.890              1.173              0.577
 Vibration    14          0.892              1.167              0.571
 Vibration    15          0.917              1.115              0.522
 Vibration    16          0.957              1.034              0.451

 Optimization completed.
    -- Stationary point found.
 Normal termination of Gaussian 09 at Thu Aug 26 08:33:47 2021.

 -----------------------------------------------------------------
 #P Geom=AllCheck Guess=TCheck SCRF=Check CCSD(T,E4T,FrzG4)/GTBas1
 -----------------------------------------------------------------

 Structure from the checkpoint file:  "/public/home/users/caep010/.cache/gau_scr/Gau-212788.chk"
 ------
 DIXDUJ
 ------
 Charge =  0 Multiplicity = 1

 SCF Done:  E(RHF) =  -640.984225900     A.U. after   15 cycles
 E2 =    -0.1893292541D+01 EUMP2 =    -0.64287751844100D+03
 CCSD(T)
 CCSD(T)= -0.64299784921D+03
 104\MP4SDQ=-642.9184618\CCSD=-642.9138144\CCSD(T)=-642.9978492\RMSD=6.
 Normal termination of Gaussian 09 at Thu Aug 26 10:00:07 2021.

 ---------------------------------------------------------
 #P Geom=AllCheck Guess=TCheck SCRF=Check MP4=FrzG4/GTBas2
 ---------------------------------------------------------

 Structure from the checkpoint file:  "/public/home/users/caep010/.cache/gau_scr/Gau-212788.chk"
 ------
 DIXDUJ
 ------
 Charge =  0 Multiplicity = 1

 SCF Done:  E(RHF) =  -641.001555126     A.U. after   15 cycles
 E2 =    -0.1916738870D+01 EUMP2 =    -0.64291829399584D+03
 Normal termination of Gaussian 09 at Thu Aug 26 10:34:53 2021.

 ---------------------------------------------------------
 #P Geom=AllCheck Guess=TCheck SCRF=Check MP4=FrzG4/GTBas3
 ---------------------------------------------------------

 Structure from the checkpoint file:  "/public/home/users/caep010/.cache/gau_scr/Gau-212788.chk"
 ------
 DIXDUJ
 ------
 Charge =  0 Multiplicity = 1

 SCF Done:  E(RHF) =  -641.049421699     A.U. after   13 cycles
 E2 =    -0.2269080886D+01 EUMP2 =    -0.64331850258491D+03
 Normal termination of Gaussian 09 at Thu Aug 26 14:37:51 2021.

 -----------------------------------------------------------
 #P Geom=AllCheck Guess=TCheck SCRF=Check MP2=Full/GTLargeXP
 -----------------------------------------------------------

 Structure from the checkpoint file:  "/public/home/users/caep010/.cache/gau_scr/Gau-212788.chk"
 ------
 DIXDUJ
 ------
 Charge =  0 Multiplicity = 1

 SCF Done:  E(RHF) =  -641.205335864     A.U. after   14 cycles
 E2 =    -0.2977078813D+01 EUMP2 =    -0.64418241467646D+03
 Normal termination of Gaussian 09 at Thu Aug 26 14:51:22 2021.
 SCF Done:  E(RHF) =  -641.256177203     A.U. after   10 cycles
 Normal termination of Gaussian 09 at Thu Aug 26 14:58:58 2021.

                         Standard orientation:
 ---------------------------------------------------------------------
 Center     Atomic      Atomic             Coordinates (Angstroms)
 Number     Number       Type             X           Y           Z
 ---------------------------------------------------------------------
      1          8           0        2.876993    1.310903   -0.000267
      2          6           0        2.549885    0.142207   -0.000107
      3          7           0        1.238926   -0.309502    0.000041
      4          6           0        0.059929    0.420122    0.000065
      5          6           0        0.054382    1.828697    0.000040
      6          6           0       -1.205891   -0.227148    0.000057
      7          7           0       -1.357724   -1.682065   -0.000033
      8          8           0       -0.345111   -2.398732    0.000172
      9          8           0       -2.486985   -2.147686   -0.000281
     10          6           0       -2.396293    0.507080    0.000059
     11          6           0       -2.369958    1.887340    0.000063
     12          1           0       -3.295761    2.449916    0.000090
     13          6           0       -1.134052    2.538472    0.000042
     14          1           0       -1.093593    3.622843    0.000038
     15          6           0        3.556407   -0.995878    0.000139
     16          1           0        1.080517   -1.312011    0.000191
     17          1           0       -3.326265   -0.043522    0.000019
     18          1           0        3.426787   -1.630077   -0.883104
     19          1           0        1.006780    2.335112    0.000011
     20          1           0        3.427304   -1.629147    0.883917
     21          1           0        4.560190   -0.573379   -0.000352
 ---------------------------------------------------------------------

 SCF Done:  E(RHF) =  -641.265995763     A.U. after    7 cycles

 The electronic state is 1-A.
 Alpha  occ. eigenvalues --  -20.61241 -20.60761 -20.54322 -15.86646 -15.61161
 Alpha  occ. eigenvalues --  -11.37616 -11.33801 -11.31338 -11.27586 -11.27266
 Alpha  occ. eigenvalues --  -11.25369 -11.24919 -11.24918  -1.61422  -1.40973
 Alpha  occ. eigenvalues --   -1.40498  -1.28063  -1.18621  -1.09957  -1.05668
 Alpha  occ. eigenvalues --   -1.00935  -0.96141  -0.88412  -0.85407  -0.80920
 Alpha  occ. eigenvalues --   -0.77336  -0.74228  -0.73628  -0.73091  -0.69898
 Alpha  occ. eigenvalues --   -0.67380  -0.64441  -0.63871  -0.62822  -0.60868
 Alpha  occ. eigenvalues --   -0.57736  -0.57103  -0.56521  -0.54144  -0.52577
 Alpha  occ. eigenvalues --   -0.50846  -0.50134  -0.47675  -0.46018  -0.44232
 Alpha  occ. eigenvalues --   -0.37947  -0.33583
 Alpha virt. eigenvalues --    0.02561   0.03237   0.03418   0.04380   0.05121
 Alpha virt. eigenvalues --    0.05491   0.05643   0.06474   0.06705   0.07300
 Alpha virt. eigenvalues --    0.07817   0.07948   0.08383   0.08452   0.09555

 Mulliken charges:
               1
     1  O   -0.616402
     2  C    0.598287
     3  N   -0.492862
     4  C    0.299227
     5  C   -0.261028
     6  C    0.047618
     7  N    0.499300
     8  O   -0.479520
     9  O   -0.432624
    10  C   -0.155816
    11  C   -0.235491
    12  H    0.218891
    13  C   -0.162332
    14  H    0.223926
    15  C   -0.638800
    16  H    0.406494
    17  H    0.258078
    18  H    0.211053
    19  H    0.272819
    20  H    0.211067
    21  H    0.228114
 Sum of Mulliken charges =  -0.00000

 Dipole moment (field-independent basis, Debye):
    X=             -0.0644    Y=              1.4081    Z=              0.0008  Tot=              1.4096
 Quadrupole moment (field-independent basis, Debye-Ang):
   XX=            -73.5521   YY=            -80.3577   ZZ=            -76.6381
   XY=            -17.4959   XZ=              0.0011   YZ=              0.0002

 Normal termination of Gaussian 09 at Thu Aug 26 15:43:59 2021.
