 Gaussian 09, Revision E.01,
 Gaussian 09:  ES64L-G09RevE.01 30-Nov-2015

 -----
 #P G4
 -----

 ------
 DMNPYO
 ------
 Symbolic Z-matrix:
 Charge =  0 Multiplicity = 1

 SCF Done:  E(RB3LYP) =  -606.385302616     A.U. after   15 cycles
 SCF Done:  E(RB3LYP) =  -606.522601066     A.U. after   13 cycles
 SCF Done:  E(RB3LYP) =  -606.616880455     A.U. after   13 cycles
 SCF Done:  E(RB3LYP) =  -606.621650758     A.U. after   13 cycles
 SCF Done:  E(RB3LYP) =  -606.622514019     A.U. after   13 cycles
 SCF Done:  E(RB3LYP) =  -606.622600754     A.U. after   13 cycles
 SCF Done:  E(RB3LYP) =  -606.622622544     A.U. after   12 cycles
 SCF Done:  E(RB3LYP) =  -606.622625164     A.U. after   10 cycles
 SCF Done:  E(RB3LYP) =  -606.622625998     A.U. after    8 cycles
 Optimization completed.
    -- Stationary point found.
 Normal termination of Gaussian 09 at Tue Aug 24 14:09:05 2021.

 ----------------------------------------------------------
 #P Geom=AllCheck Guess=TCheck SCRF=Check B3LYP/GTBas3 Freq
 ----------------------------------------------------------

 Structure from the checkpoint file:  "/public/home/users/caep010/.cache/gau_scr/Gau-106516.chk"
 ------
 DMNPYO
 ------
 Charge =  0 Multiplicity = 1

 SCF Done:  E(RB3LYP) =  -606.622625998     A.U. after    1 cycles

  Exact polarizability:  54.624   4.655 118.804   0.000   0.000 148.805
 Approx polarizability:  96.494  18.962 194.519   0.000   0.000 309.044

                      1                      2                      3
                      A                      B                      B
 Frequencies --     69.3995                80.3300               184.5910
 Red. masses --     10.1050                 5.5814                 3.0752
 Frc consts  --      0.0287                 0.0212                 0.0617
 IR Inten    --      1.3557                 7.1631                 0.1270

                      4                      5                      6
                      A                      B                      A
 Frequencies --    203.4705               209.6156               241.9900
 Red. masses --      1.1535                 1.2165                 2.3295
 Frc consts  --      0.0281                 0.0315                 0.0804
 IR Inten    --      0.0624                 1.4207                 0.1886

                      7                      8                      9
                      B                      B                      A
 Frequencies --    252.3353               276.5746               317.2139
 Red. masses --      5.3990                 7.0426                 3.7212
 Frc consts  --      0.2025                 0.3174                 0.2206
 IR Inten    --      8.7289                 1.6006                 0.6456

                     10                     11                     12
                      B                      A                      B
 Frequencies --    345.8019               363.5944               471.5558
 Red. masses --      3.8803                 5.4893                 8.1318
 Frc consts  --      0.2734                 0.4276                 1.0654
 IR Inten    --      2.2033                 1.2989                 3.7445

                     13                     14                     15
                      A                      B                      A
 Frequencies --    533.4157               539.1962               574.8966
 Red. masses --      3.1267                 5.6652                 4.7470
 Frc consts  --      0.5242                 0.9704                 0.9244
 IR Inten    --      2.4728                 1.8997                 0.2318

                     16                     17                     18
                      B                      B                      A
 Frequencies --    602.2394               650.9090               656.5962
 Red. masses --      4.5146                 3.3559                 7.4717
 Frc consts  --      0.9647                 0.8377                 1.8979
 IR Inten    --      1.2850                 0.3109                34.7252

                     19                     20                     21
                      B                      B                      A
 Frequencies --    719.6537               797.9302               860.7024
 Red. masses --      3.3982                 7.6632                 9.0394
 Frc consts  --      1.0369                 2.8747                 3.9455
 IR Inten    --      6.5110                 2.9892                13.8172

                     22                     23                     24
                      A                      B                      B
 Frequencies --    864.8174               889.7803               987.2897
 Red. masses --      1.2957                 1.6901                 3.4598
 Frc consts  --      0.5710                 0.7884                 1.9870
 IR Inten    --      0.0004                27.8486                 1.6546

                     25                     26                     27
                      A                      A                      B
 Frequencies --   1010.0077              1059.2338              1062.0719
 Red. masses --      1.9726                 1.5819                 1.5545
 Frc consts  --      1.1856                 1.0457                 1.0331
 IR Inten    --      2.3412                 4.1754                 6.2071

                     28                     29                     30
                      B                      A                      A
 Frequencies --   1068.0504              1074.1568              1143.9873
 Red. masses --      1.6557                 2.0443                 6.9039
 Frc consts  --      1.1128                 1.3897                 5.3233
 IR Inten    --      0.1402                15.4379                53.9171

                     31                     32                     33
                      A                      B                      B
 Frequencies --   1231.4188              1247.6809              1292.2465
 Red. masses --      1.8619                 2.3802                 2.5822
 Frc consts  --      1.6635                 2.1831                 2.5406
 IR Inten    --     25.7893                 4.2708                 1.8562

                     34                     35                     36
                      A                      A                      B
 Frequencies --   1378.9070              1407.8307              1417.6029
 Red. masses --      8.8666                 5.0073                 1.2159
 Frc consts  --      9.9329                 5.8473                 1.4397
 IR Inten    --    497.2468                 0.3626                 4.6899

                     37                     38                     39
                      A                      A                      B
 Frequencies --   1420.7061              1451.1769              1461.9584
 Red. masses --      1.2513                 2.1819                 1.4013
 Frc consts  --      1.4881                 2.7072                 1.7646
 IR Inten    --      0.2666                 4.1368                12.2356

                     40                     41                     42
                      A                      B                      A
 Frequencies --   1481.0181              1481.4600              1499.6190
 Red. masses --      1.0943                 1.0851                 1.4420
 Frc consts  --      1.4141                 1.4031                 1.9106
 IR Inten    --      7.0579                 8.4832               103.0437

                     43                     44                     45
                      B                      B                      B
 Frequencies --   1508.1576              1558.8640              1625.6795
 Red. masses --      1.9581                 9.6940                11.7396
 Frc consts  --      2.6241                13.8793                18.2799
 IR Inten    --     10.2623                13.6777               254.5218

                     46                     47                     48
                      A                      B                      A
 Frequencies --   1645.2641              3059.7291              3059.9626
 Red. masses --      5.5503                 1.0353                 1.0353
 Frc consts  --      8.8519                 5.7108                 5.7117
 IR Inten    --    130.9478                19.0043                 0.0081

                     49                     50                     51
                      B                      A                      B
 Frequencies --   3131.4521              3131.4640              3136.7075
 Red. masses --      1.0999                 1.0999                 1.1031
 Frc consts  --      6.3549                 6.3547                 6.3948
 IR Inten    --      5.3929                 2.3537                14.9282

                     52                     53                     54
                      A                      B                      A
 Frequencies --   3137.0370              3246.8372              3248.0078
 Red. masses --      1.1031                 1.0916                 1.0929
 Frc consts  --      6.3959                 6.7803                 6.7932
 IR Inten    --      7.3068                 0.4721                 0.3723

 - Thermochemistry -
 -------------------
 Temperature   298.150 Kelvin.  Pressure   1.00000 Atm.
 Atom     1 has atomic number  7 and mass  14.00307

 Molecular mass:   168.05349 amu.
 Principal axes and moments of inertia in atomic units:
                           1         2         3
     Eigenvalues --  1184.072872245.624203329.22332
           X            0.00000   0.05190   0.99865
           Y           -0.00000   0.99865  -0.05190
           Z            1.00000   0.00000  -0.00000
 This molecule is an asymmetric top.
 Rotational symmetry number  2.
 Warning -- assumption of classical behavior for rotation
           may cause significant error
 Rotational temperatures (Kelvin)      0.07315     0.03857     0.02602
 Rotational constants (GHZ):           1.52418     0.80367     0.54209
 Zero-point vibrational energy     396993.9 (Joules/Mol)
                                   94.88382 (Kcal/Mol)
 Warning -- explicit consideration of  16 degrees of freedom as
           vibrations may cause significant error
 Vibrational temperatures:     99.85   115.58   265.58   292.75   301.59
          (Kelvin)            348.17   363.05   397.93   456.40   497.53
                              523.13   678.46   767.47   775.78   827.15
                              866.49   936.51   944.69  1035.42  1148.04
                             1238.36  1244.28  1280.19  1420.49  1453.17
                             1524.00  1528.08  1536.68  1545.47  1645.94
                             1771.73  1795.13  1859.25  1983.94  2025.55
                             2039.61  2044.08  2087.92  2103.43  2130.85
                             2131.49  2157.61  2169.90  2242.85  2338.99
                             2367.17  4402.26  4402.60  4505.46  4505.47
                             4513.02  4513.49  4671.47  4673.15

 Zero-point correction=                           0.151207 (Hartree/Particle)
 Thermal correction to Energy=                    0.161763
 Thermal correction to Enthalpy=                  0.162707
 Thermal correction to Gibbs Free Energy=         0.115709
 Sum of electronic and zero-point Energies=           -606.471419
 Sum of electronic and thermal Energies=              -606.460863
 Sum of electronic and thermal Enthalpies=            -606.459919
 Sum of electronic and thermal Free Energies=         -606.506917

                     E (Thermal)             CV                S
                      KCal/Mol        Cal/Mol-Kelvin    Cal/Mol-Kelvin
 Total                  101.508             39.919             98.914
 Electronic               0.000              0.000              0.000
 Translational            0.889              2.981             41.265
 Rotational               0.889              2.981             29.183
 Vibrational             99.730             33.957             28.466
 Vibration     1          0.598              1.969              4.170
 Vibration     2          0.600              1.963              3.883
 Vibration     3          0.631              1.861              2.281
 Vibration     4          0.639              1.835              2.101
 Vibration     5          0.642              1.826              2.047
 Vibration     6          0.658              1.776              1.788
 Vibration     7          0.664              1.759              1.714
 Vibration     8          0.678              1.717              1.555
 Vibration     9          0.704              1.641              1.324
 Vibration    10          0.724              1.584              1.185
 Vibration    11          0.737              1.547              1.107
 Vibration    12          0.828              1.313              0.733
 Vibration    13          0.888              1.176              0.580
 Vibration    14          0.894              1.163              0.567
 Vibration    15          0.931              1.086              0.495
 Vibration    16          0.961              1.027              0.446

 Optimization completed.
    -- Stationary point found.
 Normal termination of Gaussian 09 at Tue Aug 24 14:11:01 2021.

 -----------------------------------------------------------------
 #P Geom=AllCheck Guess=TCheck SCRF=Check CCSD(T,E4T,FrzG4)/GTBas1
 -----------------------------------------------------------------

 Structure from the checkpoint file:  "/public/home/users/caep010/.cache/gau_scr/Gau-106516.chk"
 ------
 DMNPYO
 ------
 Charge =  0 Multiplicity = 1

 SCF Done:  E(RHF) =  -603.001680085     A.U. after   15 cycles
 E2 =    -0.1802729275D+01 EUMP2 =    -0.60480440936040D+03
 CCSD(T)
 CCSD(T)= -0.60491248398D+03
 \MP4SDQ=-604.8350824\CCSD=-604.8298631\CCSD(T)=-604.912484\RMSD=5.910e
 Normal termination of Gaussian 09 at Tue Aug 24 14:50:49 2021.

 ---------------------------------------------------------
 #P Geom=AllCheck Guess=TCheck SCRF=Check MP4=FrzG4/GTBas2
 ---------------------------------------------------------

 Structure from the checkpoint file:  "/public/home/users/caep010/.cache/gau_scr/Gau-106516.chk"
 ------
 DMNPYO
 ------
 Charge =  0 Multiplicity = 1

 SCF Done:  E(RHF) =  -603.018563519     A.U. after   22 cycles
 E2 =    -0.1826777233D+01 EUMP2 =    -0.60484534075206D+03
 Normal termination of Gaussian 09 at Tue Aug 24 15:23:07 2021.

 ---------------------------------------------------------
 #P Geom=AllCheck Guess=TCheck SCRF=Check MP4=FrzG4/GTBas3
 ---------------------------------------------------------

 Structure from the checkpoint file:  "/public/home/users/caep010/.cache/gau_scr/Gau-106516.chk"
 ------
 DMNPYO
 ------
 Charge =  0 Multiplicity = 1

 SCF Done:  E(RHF) =  -603.064146127     A.U. after   13 cycles
 E2 =    -0.2158795539D+01 EUMP2 =    -0.60522294166637D+03
 Normal termination of Gaussian 09 at Tue Aug 24 19:19:00 2021.

 -----------------------------------------------------------
 #P Geom=AllCheck Guess=TCheck SCRF=Check MP2=Full/GTLargeXP
 -----------------------------------------------------------

 Structure from the checkpoint file:  "/public/home/users/caep010/.cache/gau_scr/Gau-106516.chk"
 ------
 DMNPYO
 ------
 Charge =  0 Multiplicity = 1

 SCF Done:  E(RHF) =  -603.211582783     A.U. after   16 cycles
 E2 =    -0.2819719286D+01 EUMP2 =    -0.60603130206911D+03
 Normal termination of Gaussian 09 at Tue Aug 24 19:25:21 2021.
 SCF Done:  E(RHF) =  -603.259536569     A.U. after   11 cycles
 Normal termination of Gaussian 09 at Tue Aug 24 19:29:03 2021.

                         Standard orientation:
 ---------------------------------------------------------------------
 Center     Atomic      Atomic             Coordinates (Angstroms)
 Number     Number       Type             X           Y           Z
 ---------------------------------------------------------------------
      1          7           0       -0.000000   -0.000000    2.236440
      2          8           0       -0.000000   -0.000000    3.498396
      3          6           0        0.000000    0.000000   -0.538441
      4          7           0        0.000000    0.000000   -1.998935
      5          6           0       -0.000000    1.224369    0.155641
      6          6           0        0.000000   -1.224369    0.155641
      7          6           0       -0.017125    1.176223    1.535729
      8          6           0        0.017125   -1.176223    1.535729
      9          8           0        0.606613    0.899054   -2.572832
     10          8           0       -0.606613   -0.899054   -2.572832
     11          1           0       -0.040174    2.052218    2.167426
     12          1           0        0.040174   -2.052218    2.167426
     13          6           0       -0.013356    2.586196   -0.492741
     14          6           0        0.013356   -2.586196   -0.492741
     15          1           0       -0.250997    3.349220    0.251744
     16          1           0        0.250997   -3.349220    0.251744
     17          1           0        0.957535    2.813550   -0.937721
     18          1           0       -0.957535   -2.813550   -0.937721
     19          1           0       -0.746695    2.642298   -1.300098
     20          1           0        0.746695   -2.642298   -1.300098
 ---------------------------------------------------------------------

 SCF Done:  E(RHF) =  -603.268885592     A.U. after    8 cycles

 The electronic state is 1-A.
 Alpha  occ. eigenvalues --  -20.61407 -20.61402 -20.54031 -15.86758 -15.76425
 Alpha  occ. eigenvalues --  -11.32926 -11.31337 -11.31331 -11.30624 -11.30622
 Alpha  occ. eigenvalues --  -11.25643 -11.25643  -1.61895  -1.48473  -1.41164
 Alpha  occ. eigenvalues --   -1.24225  -1.14640  -1.12440  -1.03905  -1.00140
 Alpha  occ. eigenvalues --   -0.95325  -0.87265  -0.86169  -0.79068  -0.77430
 Alpha  occ. eigenvalues --   -0.74119  -0.71301  -0.70112  -0.66892  -0.65545
 Alpha  occ. eigenvalues --   -0.62351  -0.61207  -0.60417  -0.60144  -0.58225
 Alpha  occ. eigenvalues --   -0.58069  -0.55461  -0.51020  -0.50698  -0.48669
 Alpha  occ. eigenvalues --   -0.46618  -0.45138  -0.38665  -0.34633
 Alpha virt. eigenvalues --    0.01663   0.03046   0.03468   0.04322   0.04513
 Alpha virt. eigenvalues --    0.05461   0.05565   0.05769   0.06670   0.07055
 Alpha virt. eigenvalues --    0.07683   0.08525   0.08599   0.08717   0.08920

 Mulliken charges:
               1
     1  N    0.227079
     2  O   -0.634614
     3  C    0.223824
     4  N    0.462806
     5  C    0.300196
     6  C    0.300196
     7  C   -0.206566
     8  C   -0.206566
     9  O   -0.423704
    10  O   -0.423704
    11  H    0.248932
    12  H    0.248932
    13  C   -0.676120
    14  C   -0.676120
    15  H    0.188127
    16  H    0.188127
    17  H    0.217823
    18  H    0.217823
    19  H    0.211765
    20  H    0.211765
 Sum of Mulliken charges =  -0.00000

 Dipole moment (field-independent basis, Debye):
    X=              0.0000    Y=             -0.0000    Z=             -0.5309  Tot=              0.5309
 Quadrupole moment (field-independent basis, Debye-Ang):
   XX=            -70.9612   YY=            -57.2202   ZZ=            -99.8101
   XY=             -1.9821   XZ=              0.0000   YZ=              0.0000

 CCSD(T)/G3Bas1=-604.912484\MP2/GTBas2=-604.8453408\MP4/GTBas2=-604.976
 Normal termination of Gaussian 09 at Tue Aug 24 19:51:06 2021.
