 Gaussian 09, Revision E.01,
 Gaussian 09:  ES64L-G09RevE.01 30-Nov-2015

 ----------------
 #P G4 OPT=calcfc
 ----------------

 ------
 DNITPY
 ------
 Symbolic Z-matrix:
 Charge =  0 Multiplicity = 1

 SCF Done:  E(RB3LYP) =  -657.276307406     A.U. after   15 cycles
 SCF Done:  E(RB3LYP) =  -657.316174920     A.U. after   13 cycles
 SCF Done:  E(RB3LYP) =  -657.320377383     A.U. after   15 cycles
 SCF Done:  E(RB3LYP) =  -657.320789579     A.U. after   13 cycles
 SCF Done:  E(RB3LYP) =  -657.320814499     A.U. after   11 cycles
 SCF Done:  E(RB3LYP) =  -657.320817753     A.U. after    9 cycles
 Optimization completed.
    -- Stationary point found.
 Normal termination of Gaussian 09 at Thu Aug 26 12:19:34 2021.

 ----------------------------------------------------------
 #P Geom=AllCheck Guess=TCheck SCRF=Check B3LYP/GTBas3 Freq
 ----------------------------------------------------------

 Structure from the checkpoint file:  "/public/home/users/caep010/.cache/gau_scr/Gau-221438.chk"
 ------
 DNITPY
 ------
 Charge =  0 Multiplicity = 1

 SCF Done:  E(RB3LYP) =  -657.320817753     A.U. after    1 cycles

  Exact polarizability: 123.772   0.002  99.032  -0.004  -0.002  38.211
 Approx polarizability: 202.053   0.003 212.290  -0.010  -0.007  63.513

                      1                      2                      3
                      A                      A                      A
 Frequencies --     49.0098                55.2761               153.2454
 Red. masses --     15.9585                14.0771                 6.9704
 Frc consts  --      0.0226                 0.0253                 0.0964
 IR Inten    --      0.0000                 0.4292                 9.1276

                      4                      5                      6
                      A                      A                      A
 Frequencies --    158.2797               192.5981               295.3015
 Red. masses --     13.2242                 4.0540                 8.4392
 Frc consts  --      0.1952                 0.0886                 0.4336
 IR Inten    --      3.8019                 0.0001                 1.5356

                      7                      8                      9
                      A                      A                      A
 Frequencies --    346.5954               411.8092               445.8922
 Red. masses --     13.0980                 9.4502                 4.9482
 Frc consts  --      0.9270                 0.9442                 0.5796
 IR Inten    --      1.3221                 0.9212                 0.0002

                     10                     11                     12
                      A                      A                      A
 Frequencies --    448.9066               510.6448               569.5240
 Red. masses --      4.5100                11.6706                 5.9739
 Frc consts  --      0.5355                 1.7930                 1.1416
 IR Inten    --      4.8500                 3.0423                 5.7664

                     13                     14                     15
                      A                      A                      A
 Frequencies --    651.8880               702.5392               752.6131
 Red. masses --      9.5134                 3.2155                 4.1361
 Frc consts  --      2.3819                 0.9351                 1.3803
 IR Inten    --      1.7189                 6.2258                32.0816

                     16                     17                     18
                      A                      A                      A
 Frequencies --    758.6674               796.7528               850.0632
 Red. masses --     11.8353                 9.7814                14.9961
 Frc consts  --      4.0136                 3.6585                 6.3845
 IR Inten    --     49.0335                 0.0000                25.5547

                     19                     20                     21
                      A                      A                      A
 Frequencies --    935.2309               979.6032              1002.7096
 Red. masses --      8.3640                 1.4736                 1.5809
 Frc consts  --      4.3103                 0.8331                 0.9365
 IR Inten    --     30.0255                 1.4159                 8.0207

                     22                     23                     24
                      A                      A                      A
 Frequencies --   1021.2514              1038.3982              1082.3608
 Red. masses --      1.5017                 5.0744                 1.4709
 Frc consts  --      0.9228                 3.2238                 1.0153
 IR Inten    --      0.0007                14.4077                53.1410

                     25                     26                     27
                      A                      A                      A
 Frequencies --   1161.4635              1199.8528              1296.6113
 Red. masses --      7.2042                 1.7922                 1.4241
 Frc consts  --      5.7260                 1.5202                 1.4107
 IR Inten    --      2.4574                25.1278                 0.0950

                     28                     29                     30
                      A                      A                      A
 Frequencies --   1319.4220              1391.6060              1401.8249
 Red. masses --      7.7212                14.7483                14.7817
 Frc consts  --      7.9196                16.8277                17.1144
 IR Inten    --     18.3819               356.7018                81.1953

                     31                     32                     33
                      A                      A                      A
 Frequencies --   1446.9963              1474.2555              1603.1615
 Red. masses --      2.5816                 2.7624                 8.2836
 Frc consts  --      3.1847                 3.5373                12.5436
 IR Inten    --     19.4382                 0.0005                40.0874

                     34                     35                     36
                      A                      A                      A
 Frequencies --   1616.2200              1655.7926              1671.5486
 Red. masses --      7.9224                12.8881                11.7207
 Frc consts  --     12.1929                20.8186                19.2949
 IR Inten    --      0.1982               120.8772               298.8977

                     37                     38                     39
                      A                      A                      A
 Frequencies --   3209.1402              3213.0411              3256.8384
 Red. masses --      1.0899                 1.0933                 1.0920
 Frc consts  --      6.6130                 6.6503                 6.8242
 IR Inten    --      0.6099                 1.4773                18.7800

 - Thermochemistry -
 -------------------
 Temperature   298.150 Kelvin.  Pressure   1.00000 Atm.
 Atom     1 has atomic number  6 and mass  12.00000

 Molecular mass:   169.01236 amu.
 Principal axes and moments of inertia in atomic units:
                           1         2         3
     Eigenvalues --   904.043822932.882323836.92609
           X            1.00000   0.00000  -0.00000
           Y           -0.00000   1.00000  -0.00000
           Z            0.00000   0.00000   1.00000
 This molecule is an asymmetric top.
 Rotational symmetry number  1.
 Warning -- assumption of classical behavior for rotation
           may cause significant error
 Rotational temperatures (Kelvin)      0.09581     0.02953     0.02257
 Rotational constants (GHZ):           1.99630     0.61535     0.47036
 Zero-point vibrational energy     245993.7 (Joules/Mol)
                                   58.79390 (Kcal/Mol)
 Warning -- explicit consideration of  12 degrees of freedom as
           vibrations may cause significant error
 Vibrational temperatures:     70.51    79.53   220.49   227.73   277.11
          (Kelvin)            424.87   498.67   592.50   641.54   645.88
                              734.70   819.42   937.92  1010.80  1082.84
                             1091.55  1146.35  1223.05  1345.59  1409.43
                             1442.67  1469.35  1494.02  1557.27  1671.08
                             1726.32  1865.53  1898.35  2002.21  2016.91
                             2081.90  2121.12  2306.59  2325.38  2382.31
                             2404.98  4617.23  4622.84  4685.86

 Zero-point correction=                           0.093694 (Hartree/Particle)
 Thermal correction to Energy=                    0.102928
 Thermal correction to Enthalpy=                  0.103872
 Thermal correction to Gibbs Free Energy=         0.057557
 Sum of electronic and zero-point Energies=           -657.227124
 Sum of electronic and thermal Energies=              -657.217890
 Sum of electronic and thermal Enthalpies=            -657.216946
 Sum of electronic and thermal Free Energies=         -657.263261

                     E (Thermal)             CV                S
                      KCal/Mol        Cal/Mol-Kelvin    Cal/Mol-Kelvin
 Total                   64.588             33.265             97.478
 Electronic               0.000              0.000              0.000
 Translational            0.889              2.981             41.282
 Rotational               0.889              2.981             30.699
 Vibrational             62.811             27.303             25.497
 Vibration     1          0.595              1.978              4.857
 Vibration     2          0.596              1.975              4.619
 Vibration     3          0.619              1.899              2.632
 Vibration     4          0.621              1.893              2.570
 Vibration     5          0.635              1.850              2.203
 Vibration     6          0.690              1.682              1.443
 Vibration     7          0.725              1.582              1.182
 Vibration     8          0.776              1.445              0.920
 Vibration     9          0.805              1.370              0.808
 Vibration    10          0.808              1.363              0.799
 Vibration    11          0.866              1.226              0.632
 Vibration    12          0.926              1.097              0.505

 Optimization completed.
    -- Stationary point found.
 Normal termination of Gaussian 09 at Thu Aug 26 12:21:32 2021.

 -----------------------------------------------------------------
 #P Geom=AllCheck Guess=TCheck SCRF=Check CCSD(T,E4T,FrzG4)/GTBas1
 -----------------------------------------------------------------

 Structure from the checkpoint file:  "/public/home/users/caep010/.cache/gau_scr/Gau-221438.chk"
 ------
 DNITPY
 ------
 Charge =  0 Multiplicity = 1

 SCF Done:  E(RHF) =  -653.617476165     A.U. after   14 cycles
 E2 =    -0.1868107319D+01 EUMP2 =    -0.65548558348382D+03
 CCSD(T)
 CCSD(T)= -0.65557422980D+03
 Normal termination of Gaussian 09 at Thu Aug 26 13:07:41 2021.

 ---------------------------------------------------------
 #P Geom=AllCheck Guess=TCheck SCRF=Check MP4=FrzG4/GTBas2
 ---------------------------------------------------------

 Structure from the checkpoint file:  "/public/home/users/caep010/.cache/gau_scr/Gau-221438.chk"
 ------
 DNITPY
 ------
 Charge =  0 Multiplicity = 1

 SCF Done:  E(RHF) =  -653.635894454     A.U. after   14 cycles
 E2 =    -0.1892307279D+01 EUMP2 =    -0.65552820173346D+03
 Normal termination of Gaussian 09 at Thu Aug 26 13:25:38 2021.

 ---------------------------------------------------------
 #P Geom=AllCheck Guess=TCheck SCRF=Check MP4=FrzG4/GTBas3
 ---------------------------------------------------------

 Structure from the checkpoint file:  "/public/home/users/caep010/.cache/gau_scr/Gau-221438.chk"
 ------
 DNITPY
 ------
 Charge =  0 Multiplicity = 1

 SCF Done:  E(RHF) =  -653.681988355     A.U. after   12 cycles
 E2 =    -0.2216195373D+01 EUMP2 =    -0.65589818372844D+03
 Normal termination of Gaussian 09 at Thu Aug 26 15:37:47 2021.

 -----------------------------------------------------------
 #P Geom=AllCheck Guess=TCheck SCRF=Check MP2=Full/GTLargeXP
 -----------------------------------------------------------

 Structure from the checkpoint file:  "/public/home/users/caep010/.cache/gau_scr/Gau-221438.chk"
 ------
 DNITPY
 ------
 Charge =  0 Multiplicity = 1

 SCF Done:  E(RHF) =  -653.848398418     A.U. after   15 cycles
 E2 =    -0.2887524788D+01 EUMP2 =    -0.65673592320615D+03
 Normal termination of Gaussian 09 at Thu Aug 26 15:52:37 2021.
 SCF Done:  E(RHF) =  -653.900777169     A.U. after   10 cycles
 Normal termination of Gaussian 09 at Thu Aug 26 15:57:24 2021.

                         Standard orientation:
 ---------------------------------------------------------------------
 Center     Atomic      Atomic             Coordinates (Angstroms)
 Number     Number       Type             X           Y           Z
 ---------------------------------------------------------------------
      1          6           0        1.142598    1.531062   -0.000064
      2          1           0        2.071579    2.090412   -0.000502
      3          7           0        0.000002    2.219685    0.000127
      4          6           0       -1.142622    1.531084    0.000234
      5          6           0        1.173717    0.138026   -0.000081
      6          1           0       -2.071404    2.090235    0.000656
      7          6           0        0.000002   -0.596769    0.000051
      8          1           0       -0.000021   -1.677381    0.000930
      9          7           0        2.469527   -0.565395   -0.000045
     10          8           0        2.441030   -1.786595    0.000279
     11          8           0        3.477409    0.125710   -0.000282
     12          6           0       -1.173746    0.138035    0.000079
     13          7           0       -2.469532   -0.565393   -0.000050
     14          8           0       -2.441002   -1.786583   -0.000138
     15          8           0       -3.477415    0.125698   -0.000187
 ---------------------------------------------------------------------

 SCF Done:  E(RHF) =  -653.910965237     A.U. after    8 cycles

 The electronic state is 1-A.
 Alpha  occ. eigenvalues --  -20.63012 -20.63012 -20.62969 -20.62969 -15.88525
 Alpha  occ. eigenvalues --  -15.88524 -15.62732 -11.35313 -11.35310 -11.34871
 Alpha  occ. eigenvalues --  -11.34863 -11.33912  -1.63698  -1.63673  -1.43188
 Alpha  occ. eigenvalues --   -1.43170  -1.33349  -1.19384  -1.15667  -1.01421
 Alpha  occ. eigenvalues --   -1.01210  -0.92122  -0.86578  -0.82893  -0.77874
 Alpha  occ. eigenvalues --   -0.77648  -0.76243  -0.75481  -0.75281  -0.74982
 Alpha  occ. eigenvalues --   -0.72223  -0.65380  -0.62182  -0.60847  -0.54654
 Alpha  occ. eigenvalues --   -0.52930  -0.52789  -0.52132  -0.48493  -0.48379
 Alpha  occ. eigenvalues --   -0.48068  -0.45715  -0.42561
 Alpha virt. eigenvalues --    0.00131   0.01084   0.03280   0.04138   0.04280
 Alpha virt. eigenvalues --    0.04348   0.06205   0.06301   0.07187   0.07302
 Alpha virt. eigenvalues --    0.07692   0.08089   0.08730   0.08821   0.09374

 Mulliken charges:
               1
     1  C   -0.033495
     2  H    0.281448
     3  N   -0.459105
     4  C   -0.033430
     5  C    0.187065
     6  H    0.281426
     7  C   -0.104046
     8  H    0.309462
     9  N    0.537411
    10  O   -0.428505
    11  O   -0.417087
    12  C    0.187026
    13  N    0.537439
    14  O   -0.428510
    15  O   -0.417100
 Sum of Mulliken charges =  -0.00000

 Dipole moment (field-independent basis, Debye):
    X=             -0.0001    Y=              2.2279    Z=              0.0010  Tot=              2.2279
 Quadrupole moment (field-independent basis, Debye-Ang):
   XX=            -89.0183   YY=            -73.5721   ZZ=            -65.1499
   XY=              0.0004   XZ=             -0.0031   YZ=             -0.0010

 Normal termination of Gaussian 09 at Thu Aug 26 16:30:51 2021.
