 Gaussian 09, Revision E.01,
 Gaussian 09:  ES64L-G09RevE.01 30-Nov-2015

 ----------------
 #P G4 OPT=calcfc
 ----------------

 ------
 DAFBOB
 ------
 Symbolic Z-matrix:
 Charge =  0 Multiplicity = 1

 SCF Done:  E(RB3LYP) =  -494.329112694     A.U. after   15 cycles
 SCF Done:  E(RB3LYP) =  -494.448815164     A.U. after   13 cycles
 SCF Done:  E(RB3LYP) =  -494.534119570     A.U. after   14 cycles
 SCF Done:  E(RB3LYP) =  -494.538083230     A.U. after   14 cycles
 SCF Done:  E(RB3LYP) =  -494.539797735     A.U. after   14 cycles
 SCF Done:  E(RB3LYP) =  -494.485449884     A.U. after   13 cycles
 SCF Done:  E(RB3LYP) =  -494.498275525     A.U. after   11 cycles
 SCF Done:  E(RB3LYP) =  -494.508961453     A.U. after   11 cycles
 SCF Done:  E(RB3LYP) =  -494.517798659     A.U. after   11 cycles
 SCF Done:  E(RB3LYP) =  -494.525025983     A.U. after   11 cycles
 SCF Done:  E(RB3LYP) =  -494.542196233     A.U. after    9 cycles
 SCF Done:  E(RB3LYP) =  -494.542198376     A.U. after    9 cycles
 SCF Done:  E(RB3LYP) =  -494.542198761     A.U. after    8 cycles
 Optimization completed.
    -- Stationary point found.
 Normal termination of Gaussian 09 at Fri Aug 27 11:38:39 2021.

 ----------------------------------------------------------
 #P Geom=AllCheck Guess=TCheck SCRF=Check B3LYP/GTBas3 Freq
 ----------------------------------------------------------

 Structure from the checkpoint file:  "/public/home/users/caep010/.cache/gau_scr/Gau-62968.chk"
 ------
 DAFBOB
 ------
 Charge =  0 Multiplicity = 1

 SCF Done:  E(RB3LYP) =  -494.542198761     A.U. after    1 cycles

  Exact polarizability: 129.673  -0.564  90.504   1.194  -0.763  56.242
 Approx polarizability: 200.526  -5.375 143.773   1.329  -3.319  88.313

                      1                      2                      3
                      A                      A                      A
 Frequencies --     64.5513               112.7287               125.2662
 Red. masses --      6.6209                 3.4533                 1.3095
 Frc consts  --      0.0163                 0.0259                 0.0121
 IR Inten    --      0.0331                 1.2601                 1.1532

                      4                      5                      6
                      A                      A                      A
 Frequencies --    157.6993               177.4421               184.3232
 Red. masses --      2.1472                 2.4025                 2.8208
 Frc consts  --      0.0315                 0.0446                 0.0565
 IR Inten    --      0.6853                 0.8903                 1.6540

                      7                      8                      9
                      A                      A                      A
 Frequencies --    238.6448               287.2683               391.6041
 Red. masses --      3.3695                 3.6000                 5.9081
 Frc consts  --      0.1131                 0.1750                 0.5338
 IR Inten    --     10.2137                 0.7283                 1.2978

                     10                     11                     12
                      A                      A                      A
 Frequencies --    459.5174               544.6020               598.2718
 Red. masses --      4.1282                 2.2727                 3.2503
 Frc consts  --      0.5136                 0.3971                 0.6854
 IR Inten    --      1.2407                 2.5392                 1.3265

                     13                     14                     15
                      A                      A                      A
 Frequencies --    662.3360               745.1479               758.1539
 Red. masses --      2.6952                 1.6081                 6.8920
 Frc consts  --      0.6966                 0.5261                 2.3340
 IR Inten    --      0.9893                 8.8519                13.0316

                     16                     17                     18
                      A                      A                      A
 Frequencies --    791.6814               806.5668               872.9115
 Red. masses --      4.3220                 2.8990                 1.9172
 Frc consts  --      1.5960                 1.1112                 0.8607
 IR Inten    --     26.4481                 3.5451                 9.9179

                     19                     20                     21
                      A                      A                      A
 Frequencies --    894.6676               941.7934               966.5109
 Red. masses --      1.8338                 2.4699                 2.9395
 Frc consts  --      0.8648                 1.2907                 1.6179
 IR Inten    --     17.8008                 9.1883                13.2510

                     22                     23                     24
                      A                      A                      A
 Frequencies --   1031.9641              1066.0581              1093.8718
 Red. masses --      2.1500                 2.9204                 1.6551
 Frc consts  --      1.3490                 1.9555                 1.1668
 IR Inten    --      1.9657                 0.3689                 1.8675

                     25                     26                     27
                      A                      A                      A
 Frequencies --   1127.8291              1144.5033              1190.0980
 Red. masses --      1.8864                 1.2867                 1.3108
 Frc consts  --      1.4137                 0.9930                 1.0939
 IR Inten    --     29.8886                12.0930                20.2051

                     28                     29                     30
                      A                      A                      A
 Frequencies --   1220.3315              1243.1469              1272.9926
 Red. masses --      1.4826                 1.2155                 2.0817
 Frc consts  --      1.3009                 1.1068                 1.9875
 IR Inten    --      7.9748                 3.6998                25.7346

                     31                     32                     33
                      A                      A                      A
 Frequencies --   1293.9384              1320.2549              1333.1447
 Red. masses --      1.6162                 1.8439                 1.3609
 Frc consts  --      1.5943                 1.8937                 1.4251
 IR Inten    --     93.8618               276.1266                21.5279

                     34                     35                     36
                      A                      A                      A
 Frequencies --   1368.0556              1400.1183              1439.2301
 Red. masses --      1.7240                 5.6143                 1.8086
 Frc consts  --      1.9011                 6.4845                 2.2073
 IR Inten    --     13.2482               385.9402                23.3432

                     37                     38                     39
                      A                      A                      A
 Frequencies --   1464.5035              1477.7655              1488.1344
 Red. masses --      1.1435                 1.3636                 1.1369
 Frc consts  --      1.4450                 1.7545                 1.4834
 IR Inten    --     13.0374                 0.6532                 7.3613

                     40                     41                     42
                      A                      A                      A
 Frequencies --   1497.8660              1512.6033              1528.9185
 Red. masses --      1.1080                 1.1227                 1.1902
 Frc consts  --      1.4647                 1.5135                 1.6392
 IR Inten    --      2.6233                 8.0844                 4.3493

                     43                     44                     45
                      A                      A                      A
 Frequencies --   1578.7799              1657.8622              2983.6295
 Red. masses --      6.9424                 6.2647                 1.0708
 Frc consts  --     10.1954                10.1450                 5.6162
 IR Inten    --    189.7207               440.2888                62.4179

                     46                     47                     48
                      A                      A                      A
 Frequencies --   3007.8781              3060.6295              3065.7132
 Red. masses --      1.0460                 1.0745                 1.0720
 Frc consts  --      5.5755                 5.9303                 5.9362
 IR Inten    --     49.0689                11.5006                 4.5208

                     49                     50                     51
                      A                      A                      A
 Frequencies --   3075.6169              3078.0876              3124.0017
 Red. masses --      1.0825                 1.0916                 1.1008
 Frc consts  --      6.0331                 6.0939                 6.3298
 IR Inten    --     43.1940                20.3400                18.8462

                     52                     53                     54
                      A                      A                      A
 Frequencies --   3130.2021              3150.3421              3266.6327
 Red. masses --      1.1003                 1.0921                 1.0903
 Frc consts  --      6.3520                 6.3860                 6.8551
 IR Inten    --     10.2256                 1.6752                 5.1500

 - Thermochemistry -
 -------------------
 Temperature   298.150 Kelvin.  Pressure   1.00000 Atm.
 Atom     1 has atomic number  7 and mass  14.00307

 Molecular mass:   142.07423 amu.
 Principal axes and moments of inertia in atomic units:
                           1         2         3
     Eigenvalues --   715.308392018.375492678.17656
           X            1.00000   0.00026   0.00106
           Y           -0.00026   1.00000   0.00227
           Z           -0.00106  -0.00227   1.00000
 This molecule is an asymmetric top.
 Rotational symmetry number  1.
 Warning -- assumption of classical behavior for rotation
           may cause significant error
 Rotational temperatures (Kelvin)      0.12109     0.04291     0.03234
 Rotational constants (GHZ):           2.52303     0.89416     0.67387
 Zero-point vibrational energy     433505.1 (Joules/Mol)
                                  103.61020 (Kcal/Mol)
 Warning -- explicit consideration of  12 degrees of freedom as
           vibrations may cause significant error
 Vibrational temperatures:     92.87   162.19   180.23   226.89   255.30
          (Kelvin)            265.20   343.36   413.31   563.43   661.14
                              783.56   860.78   952.95  1072.10  1090.81
                             1139.05  1160.47  1255.92  1287.23  1355.03
                             1390.59  1484.76  1533.82  1573.84  1622.69
                             1646.68  1712.28  1755.78  1788.61  1831.55
                             1861.69  1899.55  1918.10  1968.32  2014.46
                             2070.73  2107.09  2126.17  2141.09  2155.09
                             2176.30  2199.77  2271.51  2385.29  4292.77
                             4327.66  4403.56  4410.87  4425.12  4428.68
                             4494.74  4503.66  4532.63  4699.95

 Zero-point correction=                           0.165113 (Hartree/Particle)
 Thermal correction to Energy=                    0.174783
 Thermal correction to Enthalpy=                  0.175727
 Thermal correction to Gibbs Free Energy=         0.129722
 Sum of electronic and zero-point Energies=           -494.377085
 Sum of electronic and thermal Energies=              -494.367415
 Sum of electronic and thermal Enthalpies=            -494.366471
 Sum of electronic and thermal Free Energies=         -494.412477

                     E (Thermal)             CV                S
                      KCal/Mol        Cal/Mol-Kelvin    Cal/Mol-Kelvin
 Total                  109.678             34.981             96.827
 Electronic               0.000              0.000              0.000
 Translational            0.889              2.981             40.765
 Rotational               0.889              2.981             29.737
 Vibrational            107.901             29.020             26.325
 Vibration     1          0.597              1.971              4.313
 Vibration     2          0.607              1.939              3.221
 Vibration     3          0.610              1.928              3.017
 Vibration     4          0.621              1.894              2.577
 Vibration     5          0.628              1.870              2.355
 Vibration     6          0.631              1.861              2.284
 Vibration     7          0.657              1.781              1.813
 Vibration     8          0.684              1.697              1.490
 Vibration     9          0.759              1.488              0.994
 Vibration    10          0.817              1.340              0.768
 Vibration    11          0.900              1.152              0.555
 Vibration    12          0.956              1.035              0.453

 Normal termination of Gaussian 09 at Fri Aug 27 11:40:23 2021.

 -----------------------------------------------------------------
 #P Geom=AllCheck Guess=TCheck SCRF=Check CCSD(T,E4T,FrzG4)/GTBas1
 -----------------------------------------------------------------

 Structure from the checkpoint file:  "/public/home/users/caep010/.cache/gau_scr/Gau-62968.chk"
 ------
 DAFBOB
 ------
 Charge =  0 Multiplicity = 1

 SCF Done:  E(RHF) =  -491.513694519     A.U. after   14 cycles
 E2 =    -0.1475009350D+01 EUMP2 =    -0.49298870386947D+03
 CCSD(T)
 CCSD(T)= -0.49309845072D+03
 0387401\CCSD(T)=-493.0984507\RMSD=8.354e-09\PG=C01 [X(C6H10N2O2)]\\@
 Normal termination of Gaussian 09 at Fri Aug 27 12:07:55 2021.

 ---------------------------------------------------------
 #P Geom=AllCheck Guess=TCheck SCRF=Check MP4=FrzG4/GTBas2
 ---------------------------------------------------------

 Structure from the checkpoint file:  "/public/home/users/caep010/.cache/gau_scr/Gau-62968.chk"
 ------
 DAFBOB
 ------
 Charge =  0 Multiplicity = 1

 SCF Done:  E(RHF) =  -491.526840629     A.U. after   14 cycles
 E2 =    -0.1494489209D+01 EUMP2 =    -0.49302132983716D+03
 Normal termination of Gaussian 09 at Fri Aug 27 12:17:05 2021.

 ---------------------------------------------------------
 #P Geom=AllCheck Guess=TCheck SCRF=Check MP4=FrzG4/GTBas3
 ---------------------------------------------------------

 Structure from the checkpoint file:  "/public/home/users/caep010/.cache/gau_scr/Gau-62968.chk"
 ------
 DAFBOB
 ------
 Charge =  0 Multiplicity = 1

 SCF Done:  E(RHF) =  -491.566507885     A.U. after   12 cycles
 E2 =    -0.1787384689D+01 EUMP2 =    -0.49335389257446D+03
 Normal termination of Gaussian 09 at Fri Aug 27 13:23:24 2021.

 -----------------------------------------------------------
 #P Geom=AllCheck Guess=TCheck SCRF=Check MP2=Full/GTLargeXP
 -----------------------------------------------------------

 Structure from the checkpoint file:  "/public/home/users/caep010/.cache/gau_scr/Gau-62968.chk"
 ------
 DAFBOB
 ------
 Charge =  0 Multiplicity = 1

 SCF Done:  E(RHF) =  -491.685412190     A.U. after   14 cycles
 E2 =    -0.2337403887D+01 EUMP2 =    -0.49402281607735D+03
 Normal termination of Gaussian 09 at Fri Aug 27 13:35:36 2021.
 SCF Done:  E(RHF) =  -491.724424962     A.U. after   10 cycles
 Normal termination of Gaussian 09 at Fri Aug 27 13:39:57 2021.

                         Standard orientation:
 ---------------------------------------------------------------------
 Center     Atomic      Atomic             Coordinates (Angstroms)
 Number     Number       Type             X           Y           Z
 ---------------------------------------------------------------------
      1          7           0        1.412601    0.691434   -0.070591
      2          6           0        0.223520    0.035550   -0.022236
      3          6           0        0.495735   -1.449830    0.064144
      4          6           0        2.556969   -0.186492    0.173709
      5          1           0        2.865494   -0.141938    1.229761
      6          1           0        3.410852    0.126350   -0.435057
      7          6           0        1.537575    2.130305   -0.001872
      8          1           0        2.577078    2.408280   -0.186165
      9          1           0        1.237157    2.525514    0.978689
     10          1           0        0.915170    2.604227   -0.767533
     11          6           0       -0.978462    0.676475   -0.024889
     12          1           0       -1.092669    1.747311   -0.056172
     13          6           0        2.009801   -1.567159   -0.206560
     14          7           0       -2.228416    0.006735    0.002830
     15          8           0       -2.271344   -1.227572    0.086574
     16          8           0       -3.233252    0.721327   -0.050032
     17          1           0        0.222011   -1.801092    1.064804
     18          1           0       -0.126927   -2.012783   -0.628587
     19          1           0        2.480918   -2.373036    0.358255
     20          1           0        2.187560   -1.753150   -1.269782
 ---------------------------------------------------------------------

 SCF Done:  E(RHF) =  -491.732263545     A.U. after    7 cycles

 The electronic state is 1-A.
 Alpha  occ. eigenvalues --  -20.56263 -20.55998 -15.82166 -15.61100 -11.32811
 Alpha  occ. eigenvalues --  -11.29019 -11.28440 -11.25560 -11.25238 -11.25129
 Alpha  occ. eigenvalues --   -1.56359  -1.35574  -1.31248  -1.10887  -1.09099
 Alpha  occ. eigenvalues --   -1.00449  -0.96441  -0.86574  -0.84329  -0.76863
 Alpha  occ. eigenvalues --   -0.72450  -0.71230  -0.69867  -0.68275  -0.65474
 Alpha  occ. eigenvalues --   -0.64976  -0.62424  -0.58747  -0.57976  -0.55823
 Alpha  occ. eigenvalues --   -0.53424  -0.52569  -0.51532  -0.47026  -0.45769
 Alpha  occ. eigenvalues --   -0.45345  -0.42653  -0.33572
 Alpha virt. eigenvalues --    0.02546   0.02936   0.03715   0.04157   0.05544
 Alpha virt. eigenvalues --    0.05689   0.05977   0.06726   0.06879   0.08159
 Alpha virt. eigenvalues --    0.08260   0.08934   0.09189   0.09445   0.09768

 Mulliken charges:
               1
     1  N   -0.003641
     2  C    0.298598
     3  C   -0.328635
     4  C   -0.280275
     5  H    0.161022
     6  H    0.175259
     7  C   -0.568466
     8  H    0.196804
     9  H    0.188680
    10  H    0.198894
    11  C   -0.336745
    12  H    0.234674
    13  C   -0.306947
    14  N    0.566366
    15  O   -0.495968
    16  O   -0.480321
    17  H    0.205890
    18  H    0.228905
    19  H    0.183394
    20  H    0.162512
 Sum of Mulliken charges =  -0.00000

 Dipole moment (field-independent basis, Debye):
    X=              8.1134    Y=              1.0184    Z=              0.1343  Tot=              8.1782
 Quadrupole moment (field-independent basis, Debye-Ang):
   XX=            -73.2890   YY=            -56.6066   ZZ=            -59.3622
   XY=             -0.4644   XZ=              0.4285   YZ=              0.0782

 Normal termination of Gaussian 09 at Fri Aug 27 14:05:52 2021.
