 Gaussian 09, Revision E.01,
 Gaussian 09:  ES64L-G09RevE.01 30-Nov-2015

 ----------------
 #P G4 OPT=calcfc
 ----------------

 ------
 EZESUY
 ------
 Symbolic Z-matrix:
 Charge =  0 Multiplicity = 1

 SCF Done:  E(RB3LYP) =  -661.780776498     A.U. after   15 cycles
 SCF Done:  E(RB3LYP) =  -661.795387096     A.U. after   17 cycles
 SCF Done:  E(RB3LYP) =  -661.795141652     A.U. after   16 cycles
 SCF Done:  E(RB3LYP) =  -661.795540674     A.U. after   12 cycles
 SCF Done:  E(RB3LYP) =  -661.796015477     A.U. after   14 cycles
 SCF Done:  E(RB3LYP) =  -661.796130318     A.U. after   12 cycles
 SCF Done:  E(RB3LYP) =  -661.796160960     A.U. after   12 cycles
 SCF Done:  E(RB3LYP) =  -661.796166053     A.U. after    9 cycles
 SCF Done:  E(RB3LYP) =  -661.796167352     A.U. after    9 cycles
 SCF Done:  E(RB3LYP) =  -661.796168104     A.U. after    9 cycles
 SCF Done:  E(RB3LYP) =  -661.796168360     A.U. after    8 cycles
 Optimization completed.
    -- Stationary point found.
 Normal termination of Gaussian 09 at Thu Aug 26 03:08:36 2021.

 ----------------------------------------------------------
 #P Geom=AllCheck Guess=TCheck SCRF=Check B3LYP/GTBas3 Freq
 ----------------------------------------------------------

 Structure from the checkpoint file:  "/public/home/users/caep010/.cache/gau_scr/Gau-4297.chk"
 ------
 EZESUY
 ------
 Charge =  0 Multiplicity = 1

 SCF Done:  E(RB3LYP) =  -661.796168360     A.U. after    1 cycles

  Exact polarizability: 167.317  -6.790 125.339  -6.506  -9.156  65.491
 Approx polarizability: 263.073  -7.050 218.932 -20.983 -26.254 125.541

                      1                      2                      3
                      A                      A                      A
 Frequencies --     42.6221                71.1528                94.3338
 Red. masses --      6.7075                 7.4768                 4.5507
 Frc consts  --      0.0072                 0.0223                 0.0239
 IR Inten    --      0.3928                 1.9244                 4.4093

                      4                      5                      6
                      A                      A                      A
 Frequencies --    122.5037               155.1830               227.7764
 Red. masses --      6.2501                 6.1354                 6.7834
 Frc consts  --      0.0553                 0.0871                 0.2074
 IR Inten    --      0.6094                 0.2520                 2.8070

                      7                      8                      9
                      A                      A                      A
 Frequencies --    298.2467               319.3526               368.5081
 Red. masses --      6.3239                 6.9278                 6.2844
 Frc consts  --      0.3314                 0.4163                 0.5028
 IR Inten    --      1.5137                 1.6199                 0.9861

                     10                     11                     12
                      A                      A                      A
 Frequencies --    415.6997               458.0344               538.0323
 Red. masses --      5.0415                 5.5319                 1.7976
 Frc consts  --      0.5133                 0.6838                 0.3066
 IR Inten    --      1.8382                 2.5886                51.0528

                     13                     14                     15
                      A                      A                      A
 Frequencies --    545.7380               585.4044               658.1938
 Red. masses --      3.7087                 5.0025                 4.4531
 Frc consts  --      0.6508                 1.0101                 1.1366
 IR Inten    --      0.4437                 0.7602                 5.3825

                     16                     17                     18
                      A                      A                      A
 Frequencies --    664.4491               718.0576               723.4104
 Red. masses --      2.5001                 6.2579                 5.3383
 Frc consts  --      0.6503                 1.9011                 1.6460
 IR Inten    --     15.9121                 8.3356                 6.2392

                     19                     20                     21
                      A                      A                      A
 Frequencies --    744.2546               767.0152               786.1651
 Red. masses --      2.9870                 1.3470                 2.1284
 Frc consts  --      0.9748                 0.4669                 0.7751
 IR Inten    --     12.2005                69.5477                14.2413

                     22                     23                     24
                      A                      A                      A
 Frequencies --    810.4174               846.1934               866.8625
 Red. masses --      2.3640                 1.3154                10.4819
 Frc consts  --      0.9148                 0.5549                 4.6408
 IR Inten    --      8.1921                 3.6694                30.0587

                     25                     26                     27
                      A                      A                      A
 Frequencies --    906.0022               944.3733               958.7598
 Red. masses --      1.4944                 5.3840                 4.1467
 Frc consts  --      0.7227                 2.8291                 2.2458
 IR Inten    --      0.1564                 3.6524                13.9505

                     28                     29                     30
                      A                      A                      A
 Frequencies --    961.0950               984.5938              1057.0210
 Red. masses --      1.4213                 1.2723                 2.2108
 Frc consts  --      0.7735                 0.7267                 1.4553
 IR Inten    --      1.1847                 0.5943                 8.4772

                     31                     32                     33
                      A                      A                      A
 Frequencies --   1064.1899              1083.5799              1110.0953
 Red. masses --      2.2619                 1.9659                 2.2453
 Frc consts  --      1.5093                 1.3600                 1.6302
 IR Inten    --      1.7450                13.1442                15.2883

                     34                     35                     36
                      A                      A                      A
 Frequencies --   1148.4842              1164.7407              1185.6103
 Red. masses --      2.3230                 2.0055                 1.1027
 Frc consts  --      1.8053                 1.6030                 0.9133
 IR Inten    --      5.2986                 5.0391                 0.2127

                     37                     38                     39
                      A                      A                      A
 Frequencies --   1216.8631              1285.2927              1315.9282
 Red. masses --      2.2406                 1.6091                 2.7736
 Frc consts  --      1.9547                 1.5661                 2.8298
 IR Inten    --      7.7269                 0.9181                 2.4153

                     40                     41                     42
                      A                      A                      A
 Frequencies --   1341.6787              1387.1517              1410.2359
 Red. masses --      5.0255                 5.8092                14.6076
 Frc consts  --      5.3300                 6.5859                17.1164
 IR Inten    --     14.2690                19.0296               177.1989

                     43                     44                     45
                      A                      A                      A
 Frequencies --   1461.9587              1468.8939              1482.7964
 Red. masses --      2.4752                 2.4081                 2.7703
 Frc consts  --      3.1170                 3.0614                 3.5887
 IR Inten    --      7.2903                 3.1684                 6.4254

                     46                     47                     48
                      A                      A                      A
 Frequencies --   1532.0155              1567.6544              1608.2775
 Red. masses --      3.1083                 4.0738                 6.2949
 Frc consts  --      4.2983                 5.8986                 9.5931
 IR Inten    --     13.7422                 6.7417                15.6069

                     49                     50                     51
                      A                      A                      A
 Frequencies --   1630.6370              1657.1158              3181.7152
 Red. masses --      8.9918                 8.8094                 1.0851
 Frc consts  --     14.0867                14.2528                 6.4723
 IR Inten    --    139.6847               107.2801                 1.8573

                     52                     53                     54
                      A                      A                      A
 Frequencies --   3194.8730              3204.4199              3223.5826
 Red. masses --      1.0898                 1.0953                 1.0936
 Frc consts  --      6.5541                 6.6266                 6.6955
 IR Inten    --      7.8741                11.3128                 1.8139

                     55                     56                     57
                      A                      A                      A
 Frequencies --   3261.1359              3279.9930              3672.3467
 Red. masses --      1.0907                 1.1054                 1.0814
 Frc consts  --      6.8344                 7.0066                 8.5928
 IR Inten    --      0.4659                 0.5072               105.9303

 - Thermochemistry -
 -------------------
 Temperature   298.150 Kelvin.  Pressure   1.00000 Atm.
 Atom     1 has atomic number  8 and mass  15.99491

 Molecular mass:   189.05383 amu.
 Principal axes and moments of inertia in atomic units:
                           1         2         3
     Eigenvalues --  1610.390492902.737204180.35974
           X            0.99990  -0.01417  -0.00260
           Y            0.01415   0.99986  -0.00935
           Z            0.00273   0.00931   0.99995
 This molecule is an asymmetric top.
 Rotational symmetry number  1.
 Warning -- assumption of classical behavior for rotation
           may cause significant error
 Rotational temperatures (Kelvin)      0.05378     0.02984     0.02072
 Rotational constants (GHZ):           1.12069     0.62174     0.43172
 Zero-point vibrational energy     405418.7 (Joules/Mol)
                                   96.89740 (Kcal/Mol)
 Warning -- explicit consideration of  14 degrees of freedom as
           vibrations may cause significant error
 Vibrational temperatures:     61.32   102.37   135.73   176.26   223.27
          (Kelvin)            327.72   429.11   459.48   530.20   598.10
                              659.01   774.11   785.19   842.27   946.99
                              955.99  1033.12  1040.82  1070.82  1103.56
                             1131.11  1166.01  1217.48  1247.22  1303.53
                             1358.74  1379.44  1382.80  1416.61  1520.82
                             1531.13  1559.03  1597.18  1652.41  1675.80
                             1705.83  1750.79  1849.25  1893.32  1930.37
                             1995.80  2029.01  2103.43  2113.41  2133.41
                             2204.23  2255.50  2313.95  2346.12  2384.22
                             4577.77  4596.70  4610.44  4638.01  4692.04
                             4719.17  5283.68

 Zero-point correction=                           0.154416 (Hartree/Particle)
 Thermal correction to Energy=                    0.165173
 Thermal correction to Enthalpy=                  0.166118
 Thermal correction to Gibbs Free Energy=         0.116612
 Sum of electronic and zero-point Energies=           -661.641753
 Sum of electronic and thermal Energies=              -661.630995
 Sum of electronic and thermal Enthalpies=            -661.630051
 Sum of electronic and thermal Free Energies=         -661.679556

                     E (Thermal)             CV                S
                      KCal/Mol        Cal/Mol-Kelvin    Cal/Mol-Kelvin
 Total                  103.648             41.176            104.193
 Electronic               0.000              0.000              0.000
 Translational            0.889              2.981             41.616
 Rotational               0.889              2.981             31.347
 Vibrational            101.870             35.214             31.229
 Vibration     1          0.595              1.980              5.133
 Vibration     2          0.598              1.968              4.121
 Vibration     3          0.603              1.953              3.568
 Vibration     4          0.610              1.930              3.060
 Vibration     5          0.620              1.897              2.608
 Vibration     6          0.651              1.799              1.896
 Vibration     7          0.691              1.677              1.427
 Vibration     8          0.705              1.637              1.313
 Vibration     9          0.741              1.537              1.086
 Vibration    10          0.779              1.436              0.907
 Vibration    11          0.816              1.343              0.772
 Vibration    12          0.893              1.166              0.570
 Vibration    13          0.901              1.149              0.553
 Vibration    14          0.942              1.063              0.475

 Optimization completed.
    -- Stationary point found.
 Normal termination of Gaussian 09 at Thu Aug 26 03:12:16 2021.

 -----------------------------------------------------------------
 #P Geom=AllCheck Guess=TCheck SCRF=Check CCSD(T,E4T,FrzG4)/GTBas1
 -----------------------------------------------------------------

 Structure from the checkpoint file:  "/public/home/users/caep010/.cache/gau_scr/Gau-4297.chk"
 ------
 EZESUY
 ------
 Charge =  0 Multiplicity = 1

 SCF Done:  E(RHF) =  -657.801491761     A.U. after   15 cycles
 E2 =    -0.2016227421D+01 EUMP2 =    -0.65981771918146D+03
 CCSD(T)
 CCSD(T)= -0.65993805731D+03
 957106\MP4SDQ=-659.8463503\CCSD=-659.8423503\CCSD(T)=-659.9380573\RMSD
 Normal termination of Gaussian 09 at Thu Aug 26 05:06:49 2021.

 ---------------------------------------------------------
 #P Geom=AllCheck Guess=TCheck SCRF=Check MP4=FrzG4/GTBas2
 ---------------------------------------------------------

 Structure from the checkpoint file:  "/public/home/users/caep010/.cache/gau_scr/Gau-4297.chk"
 ------
 EZESUY
 ------
 Charge =  0 Multiplicity = 1

 SCF Done:  E(RHF) =  -657.821442120     A.U. after   18 cycles
 E2 =    -0.2042539513D+01 EUMP2 =    -0.65986398163325D+03
 Normal termination of Gaussian 09 at Thu Aug 26 05:59:41 2021.

 ---------------------------------------------------------
 #P Geom=AllCheck Guess=TCheck SCRF=Check MP4=FrzG4/GTBas3
 ---------------------------------------------------------

 Structure from the checkpoint file:  "/public/home/users/caep010/.cache/gau_scr/Gau-4297.chk"
 ------
 EZESUY
 ------
 Charge =  0 Multiplicity = 1

 SCF Done:  E(RHF) =  -657.866385535     A.U. after   13 cycles
 E2 =    -0.2389164215D+01 EUMP2 =    -0.66025554975087D+03
 Normal termination of Gaussian 09 at Thu Aug 26 13:37:47 2021.

 -----------------------------------------------------------
 #P Geom=AllCheck Guess=TCheck SCRF=Check MP2=Full/GTLargeXP
 -----------------------------------------------------------

 Structure from the checkpoint file:  "/public/home/users/caep010/.cache/gau_scr/Gau-4297.chk"
 ------
 EZESUY
 ------
 Charge =  0 Multiplicity = 1

 SCF Done:  E(RHF) =  -658.022395962     A.U. after   16 cycles
 E2 =    -0.3138683993D+01 EUMP2 =    -0.66116107995521D+03
 Normal termination of Gaussian 09 at Thu Aug 26 13:51:56 2021.
 SCF Done:  E(RHF) =  -658.073794176     A.U. after   10 cycles
 Normal termination of Gaussian 09 at Thu Aug 26 14:01:12 2021.

                         Standard orientation:
 ---------------------------------------------------------------------
 Center     Atomic      Atomic             Coordinates (Angstroms)
 Number     Number       Type             X           Y           Z
 ---------------------------------------------------------------------
      1          8           0       -0.116559    2.010180    1.063030
      2          7           0        0.735511    1.794957    0.215525
      3          6           0        1.174878    0.397060    0.027138
      4          6           0        0.259327   -0.663642   -0.000961
      5          6           0       -1.201014   -0.491305   -0.038238
      6          6           0       -2.180947   -1.247884    0.651304
      7          7           0       -1.764177    0.429724   -0.823121
      8          6           0       -3.383671   -0.714338    0.245853
      9          6           0        2.548014    0.198311   -0.049576
     10          6           0        3.051812   -1.095717   -0.101335
     11          6           0        2.171015   -2.174276   -0.096398
     12          1           0        2.551482   -3.189100   -0.138975
     13          6           0        0.798367   -1.955174   -0.061418
     14          1           0        0.114235   -2.795160   -0.108491
     15          7           0       -3.081343    0.275568   -0.628654
     16          1           0       -3.717164    0.875706   -1.126629
     17          1           0       -4.402652   -0.951059    0.507010
     18          1           0       -2.025460   -2.041018    1.363684
     19          8           0        1.304070    2.649257   -0.451731
     20          1           0        3.199942    1.062375   -0.048147
     21          1           0        4.122898   -1.257190   -0.143293
 ---------------------------------------------------------------------

 SCF Done:  E(RHF) =  -658.083491469     A.U. after    8 cycles

 The electronic state is 1-A.
 Alpha  occ. eigenvalues --  -20.59007 -20.58908 -15.84097 -15.64936 -15.59567
 Alpha  occ. eigenvalues --  -11.30806 -11.28765 -11.28292 -11.27561 -11.26734
 Alpha  occ. eigenvalues --  -11.26349 -11.25928 -11.25860 -11.23317  -1.59479
 Alpha  occ. eigenvalues --   -1.39004  -1.38710  -1.19921  -1.12163  -1.08471
 Alpha  occ. eigenvalues --   -1.07041  -1.03870  -0.95467  -0.87837  -0.84618
 Alpha  occ. eigenvalues --   -0.81918  -0.79655  -0.75843  -0.75388  -0.71772
 Alpha  occ. eigenvalues --   -0.71064  -0.68849  -0.65210  -0.64029  -0.62275
 Alpha  occ. eigenvalues --   -0.61642  -0.60498  -0.58792  -0.55245  -0.53749
 Alpha  occ. eigenvalues --   -0.52877  -0.48750  -0.48282  -0.47292  -0.44306
 Alpha  occ. eigenvalues --   -0.40069  -0.36843  -0.35852  -0.33557
 Alpha virt. eigenvalues --    0.02573   0.03027   0.03989   0.04542   0.05268
 Alpha virt. eigenvalues --    0.05471   0.05493   0.06436   0.06649   0.07038
 Alpha virt. eigenvalues --    0.07577   0.07706   0.07924   0.08575   0.08968

 Mulliken charges:
               1
     1  O   -0.421838
     2  N    0.499840
     3  C    0.051078
     4  C    0.408976
     5  C    0.236018
     6  C   -0.361306
     7  N   -0.381088
     8  C   -0.122941
     9  C   -0.222112
    10  C   -0.197419
    11  C   -0.208993
    12  H    0.214422
    13  C   -0.250993
    14  H    0.214003
    15  N   -0.298422
    16  H    0.382426
    17  H    0.223311
    18  H    0.218587
    19  O   -0.446376
    20  H    0.247375
    21  H    0.215452
 Sum of Mulliken charges =  -0.00000

 Dipole moment (field-independent basis, Debye):
    X=             -1.3785    Y=             -5.0131    Z=              0.0556  Tot=              5.1995
 Quadrupole moment (field-independent basis, Debye-Ang):
   XX=            -53.3297   YY=            -84.7036   ZZ=            -85.3863
   XY=             -4.3393   XZ=              2.3144   YZ=             -2.4026

 Normal termination of Gaussian 09 at Thu Aug 26 15:03:27 2021.
