 Gaussian 09, Revision E.01,
 Gaussian 09:  ES64L-G09RevE.01 30-Nov-2015

 -----
 #P G4
 -----

 ----------------------
 B3LYP6-31GxxGD3.EWUKAI
 ----------------------
 Symbolic Z-matrix:
 Charge =  0 Multiplicity = 1

 SCF Done:  E(RB3LYP) =  -567.386321027     A.U. after   15 cycles
 SCF Done:  E(RB3LYP) =  -567.386448636     A.U. after   11 cycles
 SCF Done:  E(RB3LYP) =  -567.386450622     A.U. after   11 cycles
 SCF Done:  E(RB3LYP) =  -567.386380771     A.U. after   12 cycles
 SCF Done:  E(RB3LYP) =  -567.386468498     A.U. after   12 cycles
 SCF Done:  E(RB3LYP) =  -567.386471497     A.U. after    9 cycles
 Optimization completed.
    -- Stationary point found.
 Normal termination of Gaussian 09 at Sat Oct  2 10:14:57 2021.

 ----------------------------------------------------------
 #P Geom=AllCheck Guess=TCheck SCRF=Check B3LYP/GTBas3 Freq
 ----------------------------------------------------------

 Structure from the checkpoint file:  "/public/home/users/caep010/.cache/gau_scr/Gau-118147.chk"
 ----------------------
 B3LYP6-31GxxGD3.EWUKAI
 ----------------------
 Charge =  0 Multiplicity = 1

 SCF Done:  E(RB3LYP) =  -567.386471497     A.U. after    1 cycles

  Exact polarizability: 152.888   0.077  99.024  -0.114  -0.004  38.413
 Approx polarizability: 269.971   2.136 190.586   1.536   0.018  63.076

                      1                      2                      3
                      A                      A                      A
 Frequencies --     96.9925               107.0424               223.5438
 Red. masses --      8.4352                 7.1331                 5.0735
 Frc consts  --      0.0468                 0.0482                 0.1494
 IR Inten    --      0.5659                 0.3556                 2.3391

                      4                      5                      6
                      A                      A                      A
 Frequencies --    261.3901               288.1916               350.9767
 Red. masses --      6.2124                 5.4791                 3.9633
 Frc consts  --      0.2501                 0.2681                 0.2876
 IR Inten    --      0.8470                 7.5661                33.1249

                      7                      8                      9
                      A                      A                      A
 Frequencies --    372.1643               384.6025               411.9043
 Red. masses --      4.5898                 1.3818                 1.1147
 Frc consts  --      0.3746                 0.1204                 0.1114
 IR Inten    --     53.9675               249.6606                63.2749

                     10                     11                     12
                      A                      A                      A
 Frequencies --    449.2884               458.4856               540.1375
 Red. masses --      6.3441                 3.1001                 7.4760
 Frc consts  --      0.7545                 0.3840                 1.2851
 IR Inten    --      3.0595                 5.4968                 5.1164

                     13                     14                     15
                      A                      A                      A
 Frequencies --    608.7168               644.8848               660.9960
 Red. masses --      4.8446                 6.5734                 4.4955
 Frc consts  --      1.0576                 1.6107                 1.1572
 IR Inten    --      0.3936                 8.9956                 0.6291

                     16                     17                     18
                      A                      A                      A
 Frequencies --    703.5919               762.1268               771.0625
 Red. masses --      2.8809                 6.4357                 3.2911
 Frc consts  --      0.8403                 2.2024                 1.1529
 IR Inten    --      8.2316                 1.6673                 6.5345

                     19                     20                     21
                      A                      A                      A
 Frequencies --    818.5174               826.9569               854.2455
 Red. masses --      1.4259                 1.4553                 7.7294
 Frc consts  --      0.5628                 0.5864                 3.3233
 IR Inten    --     59.7444                40.7070                 7.4858

                     22                     23                     24
                      A                      A                      A
 Frequencies --    859.5224               963.8684               977.1665
 Red. masses --      1.7437                 1.2841                 2.6711
 Frc consts  --      0.7590                 0.7029                 1.5027
 IR Inten    --     24.7770                 0.8369                13.1512

                     25                     26                     27
                      A                      A                      A
 Frequencies --   1081.9556              1126.6632              1191.0442
 Red. masses --      1.5239                 2.0560                 1.6034
 Frc consts  --      1.0510                 1.5377                 1.3402
 IR Inten    --      0.8346                47.2338                31.5287

                     28                     29                     30
                      A                      A                      A
 Frequencies --   1243.5332              1249.9397              1315.1291
 Red. masses --      1.7138                 2.5598                 3.7875
 Frc consts  --      1.5615                 2.3564                 3.8596
 IR Inten    --    157.2683                18.8199               512.7279

                     31                     32                     33
                      A                      A                      A
 Frequencies --   1360.0579              1391.7640              1447.4291
 Red. masses --      4.4124                 2.5926                 2.9129
 Frc consts  --      4.8088                 2.9588                 3.5956
 IR Inten    --    104.8330                36.1246               113.7859

                     34                     35                     36
                      A                      A                      A
 Frequencies --   1515.6930              1528.9694              1604.5458
 Red. masses --      5.8722                 3.3285                 4.4768
 Frc consts  --      7.9483                 4.5845                 6.7909
 IR Inten    --    167.5887                90.2649               189.1557

                     37                     38                     39
                      A                      A                      A
 Frequencies --   1614.4741              1657.8389              1682.6757
 Red. masses --      4.4312                 1.2529                 4.6203
 Frc consts  --      6.8052                 2.0289                 7.7076
 IR Inten    --    189.5671                54.3426               373.9677

                     40                     41                     42
                      A                      A                      A
 Frequencies --   3186.5083              3192.1900              3231.9710
 Red. masses --      1.0893                 1.0902                 1.0921
 Frc consts  --      6.5167                 6.5456                 6.7210
 IR Inten    --      7.5895                 3.3771                 1.8653

                     43                     44                     45
                      A                      A                      A
 Frequencies --   3321.8498              3601.7903              3713.3934
 Red. masses --      1.0666                 1.0461                 1.1014
 Frc consts  --      6.9345                 7.9961                 8.9481
 IR Inten    --    253.7397                80.6977                27.6703

 - Thermochemistry -
 -------------------
 Temperature   298.150 Kelvin.  Pressure   1.00000 Atm.
 Atom     1 has atomic number  8 and mass  15.99491

 Molecular mass:   154.03784 amu.
 Principal axes and moments of inertia in atomic units:
                           1         2         3
     Eigenvalues --   761.620342219.209642980.06323
           X            0.99996   0.00858  -0.00247
           Y           -0.00858   0.99996  -0.00013
           Z            0.00247   0.00015   1.00000
 This molecule is an asymmetric top.
 Rotational symmetry number  1.
 Warning -- assumption of classical behavior for rotation
           may cause significant error
 Rotational temperatures (Kelvin)      0.11372     0.03903     0.02906
 Rotational constants (GHZ):           2.36961     0.81324     0.60561
 Zero-point vibrational energy     326914.2 (Joules/Mol)
                                   78.13438 (Kcal/Mol)
 Warning -- explicit consideration of  13 degrees of freedom as
           vibrations may cause significant error
 Vibrational temperatures:    139.55   154.01   321.63   376.08   414.64
          (Kelvin)            504.98   535.46   553.36   592.64   646.43
                              659.66   777.14   875.81   927.84   951.02
                             1012.31  1096.53  1109.39  1177.66  1189.81
                             1229.07  1236.66  1386.79  1405.92  1556.69
                             1621.01  1713.64  1789.16  1798.38  1892.18
                             1956.82  2002.44  2082.53  2180.74  2199.84
                             2308.58  2322.87  2385.26  2420.99  4584.67
                             4592.84  4650.08  4779.39  5182.17  5342.74

 Zero-point correction=                           0.124515 (Hartree/Particle)
 Thermal correction to Energy=                    0.133488
 Thermal correction to Enthalpy=                  0.134433
 Thermal correction to Gibbs Free Energy=         0.090510
 Sum of electronic and zero-point Energies=           -567.261956
 Sum of electronic and thermal Energies=              -567.252983
 Sum of electronic and thermal Enthalpies=            -567.252039
 Sum of electronic and thermal Free Energies=         -567.295962

                     E (Thermal)             CV                S
                      KCal/Mol        Cal/Mol-Kelvin    Cal/Mol-Kelvin
 Total                   83.765             35.184             92.443
 Electronic               0.000              0.000              0.000
 Translational            0.889              2.981             41.006
 Rotational               0.889              2.981             30.000
 Vibrational             81.988             29.222             21.437
 Vibration     1          0.603              1.951              3.514
 Vibration     2          0.606              1.944              3.322
 Vibration     3          0.649              1.805              1.930
 Vibration     4          0.669              1.743              1.652
 Vibration     5          0.685              1.696              1.485
 Vibration     6          0.728              1.573              1.162
 Vibration     7          0.744              1.529              1.071
 Vibration     8          0.754              1.503              1.021
 Vibration     9          0.776              1.444              0.920
 Vibration    10          0.808              1.362              0.798
 Vibration    11          0.817              1.342              0.771
 Vibration    12          0.895              1.161              0.565
 Vibration    13          0.968              1.013              0.435

 Normal termination of Gaussian 09 at Sat Oct  2 10:16:48 2021.

 -----------------------------------------------------------------
 #P Geom=AllCheck Guess=TCheck SCRF=Check CCSD(T,E4T,FrzG4)/GTBas1
 -----------------------------------------------------------------

 Structure from the checkpoint file:  "/public/home/users/caep010/.cache/gau_scr/Gau-118147.chk"
 ----------------------
 B3LYP6-31GxxGD3.EWUKAI
 ----------------------
 Charge =  0 Multiplicity = 1

 SCF Done:  E(RHF) =  -564.063032457     A.U. after   14 cycles
 E2 =    -0.1638334207D+01 EUMP2 =    -0.56570136666368D+03
 CCSD(T)
 CCSD(T)= -0.56579729275D+03
 D=-565.7264001\CCSD(T)=-565.7972928\RMSD=9.616e-09\PG=C01 [X(C6H6N2O3)
 Normal termination of Gaussian 09 at Sat Oct  2 10:56:51 2021.

 ---------------------------------------------------------
 #P Geom=AllCheck Guess=TCheck SCRF=Check MP4=FrzG4/GTBas2
 ---------------------------------------------------------

 Structure from the checkpoint file:  "/public/home/users/caep010/.cache/gau_scr/Gau-118147.chk"
 ----------------------
 B3LYP6-31GxxGD3.EWUKAI
 ----------------------
 Charge =  0 Multiplicity = 1

 SCF Done:  E(RHF) =  -564.080275217     A.U. after   15 cycles
 E2 =    -0.1660865129D+01 EUMP2 =    -0.56574114034626D+03
 Normal termination of Gaussian 09 at Sat Oct  2 11:09:12 2021.

 ---------------------------------------------------------
 #P Geom=AllCheck Guess=TCheck SCRF=Check MP4=FrzG4/GTBas3
 ---------------------------------------------------------

 Structure from the checkpoint file:  "/public/home/users/caep010/.cache/gau_scr/Gau-118147.chk"
 ----------------------
 B3LYP6-31GxxGD3.EWUKAI
 ----------------------
 Charge =  0 Multiplicity = 1

 SCF Done:  E(RHF) =  -564.128476367     A.U. after   13 cycles
 E2 =    -0.1964014192D+01 EUMP2 =    -0.56609249055896D+03
 Normal termination of Gaussian 09 at Sat Oct  2 12:21:09 2021.

 -----------------------------------------------------------
 #P Geom=AllCheck Guess=TCheck SCRF=Check MP2=Full/GTLargeXP
 -----------------------------------------------------------

 Structure from the checkpoint file:  "/public/home/users/caep010/.cache/gau_scr/Gau-118147.chk"
 ----------------------
 B3LYP6-31GxxGD3.EWUKAI
 ----------------------
 Charge =  0 Multiplicity = 1

 SCF Done:  E(RHF) =  -564.270834030     A.U. after   14 cycles
 E2 =    -0.2573039914D+01 EUMP2 =    -0.56684387394426D+03
 Normal termination of Gaussian 09 at Sat Oct  2 12:32:59 2021.
 SCF Done:  E(RHF) =  -564.316567046     A.U. after   10 cycles
 Normal termination of Gaussian 09 at Sat Oct  2 12:37:33 2021.

                         Standard orientation:
 ---------------------------------------------------------------------
 Center     Atomic      Atomic             Coordinates (Angstroms)
 Number     Number       Type             X           Y           Z
 ---------------------------------------------------------------------
      1          8           0        0.671434    2.153383    0.000486
      2          6           0       -0.002382    1.006097   -0.002356
      3          6           0       -1.395059    1.054167   -0.002241
      4          6           0       -2.162374   -0.112853   -0.004684
      5          6           0       -1.513428   -1.373637   -0.003163
      6          6           0       -0.143227   -1.436776   -0.001670
      7          1           0       -2.105045   -2.282425   -0.007667
      8          7           0       -3.531748   -0.050771   -0.050553
      9          1           0       -3.977553    0.821299    0.182152
     10          6           0        0.630795   -0.266365   -0.001442
     11          7           0        2.054991   -0.384300    0.001894
     12          8           0        2.570209   -1.493744    0.003328
     13          8           0        2.739236    0.666876    0.003257
     14          1           0        0.377142   -2.385297    0.000842
     15          1           0        1.626973    1.898640    0.001881
     16          1           0       -4.052117   -0.873947    0.203650
     17          1           0       -1.865072    2.031300   -0.003483
 ---------------------------------------------------------------------

 SCF Done:  E(RHF) =  -564.325486760     A.U. after    8 cycles

 The electronic state is 1-A.
 Alpha  occ. eigenvalues --  -20.60225 -20.59500 -20.59495 -15.85603 -15.60122
 Alpha  occ. eigenvalues --  -11.35021 -11.32857 -11.29041 -11.28064 -11.24783
 Alpha  occ. eigenvalues --  -11.23993  -1.59967  -1.43229  -1.38729  -1.26657
 Alpha  occ. eigenvalues --   -1.17654  -1.08190  -1.04242  -0.94540  -0.86774
 Alpha  occ. eigenvalues --   -0.85713  -0.77726  -0.76174  -0.74590  -0.72120
 Alpha  occ. eigenvalues --   -0.71447  -0.69280  -0.65440  -0.62745  -0.61059
 Alpha  occ. eigenvalues --   -0.60565  -0.58936  -0.55381  -0.53179  -0.49993
 Alpha  occ. eigenvalues --   -0.48979  -0.47354  -0.46032  -0.35278  -0.33331
 Alpha virt. eigenvalues --    0.02356   0.03642   0.03867   0.04714   0.05970
 Alpha virt. eigenvalues --    0.06190   0.06329   0.07710   0.08009   0.08113
 Alpha virt. eigenvalues --    0.08728   0.09015   0.09649   0.09923   0.09958

 Mulliken charges:
               1
     1  O   -0.610722
     2  C    0.262592
     3  C   -0.220778
     4  C    0.308485
     5  C   -0.246016
     6  C   -0.186261
     7  H    0.185623
     8  N   -0.702519
     9  H    0.323543
    10  C    0.091238
    11  N    0.503504
    12  O   -0.439615
    13  O   -0.490547
    14  H    0.257455
    15  H    0.444738
    16  H    0.322075
    17  H    0.197204
 Sum of Mulliken charges =  -0.00000

 Dipole moment (field-independent basis, Debye):
    X=             -6.5109    Y=             -0.8231    Z=              0.7015  Tot=              6.6001
 Quadrupole moment (field-independent basis, Debye-Ang):
   XX=            -59.5582   YY=            -62.8524   ZZ=            -66.0270
   XY=              2.7714   XZ=             -3.2254   YZ=             -0.0367

 Normal termination of Gaussian 09 at Sat Oct  2 13:09:13 2021.
