 Gaussian 09, Revision E.01,
 Gaussian 09:  ES64L-G09RevE.01 30-Nov-2015

 -----
 #P G4
 -----

 ------
 ERIWIL
 ------
 Symbolic Z-matrix:
 Charge =  0 Multiplicity = 1

 SCF Done:  E(RB3LYP) =  -606.554059044     A.U. after   18 cycles
 SCF Done:  E(RB3LYP) =  -606.651190460     A.U. after   13 cycles
 SCF Done:  E(RB3LYP) =  -606.696091418     A.U. after   15 cycles
 SCF Done:  E(RB3LYP) =  -606.681870871     A.U. after   17 cycles
 SCF Done:  E(RB3LYP) =  -606.697433709     A.U. after   13 cycles
 SCF Done:  E(RB3LYP) =  -606.697898494     A.U. after   13 cycles
 SCF Done:  E(RB3LYP) =  -606.698636475     A.U. after   14 cycles
 SCF Done:  E(RB3LYP) =  -606.698717217     A.U. after   11 cycles
 SCF Done:  E(RB3LYP) =  -606.698737999     A.U. after   12 cycles
 SCF Done:  E(RB3LYP) =  -606.698751570     A.U. after   11 cycles
 SCF Done:  E(RB3LYP) =  -606.698758096     A.U. after   11 cycles
 SCF Done:  E(RB3LYP) =  -606.698760252     A.U. after   10 cycles
 SCF Done:  E(RB3LYP) =  -606.698761282     A.U. after    8 cycles
 Optimization completed.
    -- Stationary point found.
 Normal termination of Gaussian 09 at Tue Aug 24 14:20:12 2021.

 ----------------------------------------------------------
 #P Geom=AllCheck Guess=TCheck SCRF=Check B3LYP/GTBas3 Freq
 ----------------------------------------------------------

 Structure from the checkpoint file:  "/public/home/users/caep010/.cache/gau_scr/Gau-217792.chk"
 ------
 ERIWIL
 ------
 Charge =  0 Multiplicity = 1

 SCF Done:  E(RB3LYP) =  -606.698761282     A.U. after    1 cycles

  Exact polarizability: 139.391  -2.762 116.620  -0.300  -2.034  53.822
 Approx polarizability: 251.619 -10.638 187.679  -0.024 -14.039  92.588

                      1                      2                      3
                      A                      A                      A
 Frequencies --     68.9444                71.7392               164.8878
 Red. masses --      8.0569                 5.2611                 4.2552
 Frc consts  --      0.0226                 0.0160                 0.0682
 IR Inten    --      0.7126                 8.7673                 0.1090

                      4                      5                      6
                      A                      A                      A
 Frequencies --    191.9468               202.5161               230.0959
 Red. masses --      1.1327                 2.1744                 1.4913
 Frc consts  --      0.0246                 0.0525                 0.0465
 IR Inten    --      0.7610                 0.4701                 1.7264

                      7                      8                      9
                      A                      A                      A
 Frequencies --    255.2698               263.4122               331.1938
 Red. masses --      5.9975                 4.1608                 4.0835
 Frc consts  --      0.2303                 0.1701                 0.2639
 IR Inten    --      0.7320                10.2048                 0.0600

                     10                     11                     12
                      A                      A                      A
 Frequencies --    344.8392               367.2260               462.8562
 Red. masses --      3.8943                 4.5980                 7.9910
 Frc consts  --      0.2728                 0.3653                 1.0087
 IR Inten    --      1.5815                 1.5705                 4.7476

                     13                     14                     15
                      A                      A                      A
 Frequencies --    514.6533               539.7241               572.5015
 Red. masses --      5.4860                 3.3873                 4.8812
 Frc consts  --      0.8561                 0.5814                 0.9426
 IR Inten    --      1.4108                 2.4807                 6.7471

                     16                     17                     18
                      A                      A                      A
 Frequencies --    601.8600               638.7449               656.8890
 Red. masses --      3.6146                 3.2780                 4.2749
 Frc consts  --      0.7714                 0.7880                 1.0868
 IR Inten    --      0.6464                 8.1125                14.6018

                     19                     20                     21
                      A                      A                      A
 Frequencies --    720.3472               767.3587               793.0268
 Red. masses --      1.9325                 2.2419                 7.7779
 Frc consts  --      0.5908                 0.7778                 2.8820
 IR Inten    --     25.5630                24.3532                14.3484

                     22                     23                     24
                      A                      A                      A
 Frequencies --    857.2816               882.5832               939.9793
 Red. masses --     10.0927                 1.5399                 3.1462
 Frc consts  --      4.3702                 0.7067                 1.6378
 IR Inten    --     18.4769                20.5222                22.6592

                     25                     26                     27
                      A                      A                      A
 Frequencies --    978.5922              1041.8999              1055.9531
 Red. masses --      3.6080                 1.5218                 1.5623
 Frc consts  --      2.0358                 0.9733                 1.0264
 IR Inten    --      6.9127                23.8224                 5.0163

                     28                     29                     30
                      A                      A                      A
 Frequencies --   1064.2830              1067.5239              1164.8320
 Red. masses --      1.5720                 1.6224                 8.1746
 Frc consts  --      1.0491                 1.0894                 6.5350
 IR Inten    --      3.0658                 2.5681                 3.8791

                     31                     32                     33
                      A                      A                      A
 Frequencies --   1218.3143              1246.6937              1291.5660
 Red. masses --      4.0366                 2.2415                 1.7155
 Frc consts  --      3.5300                 2.0526                 1.6860
 IR Inten    --      8.5449                38.4409                10.1752

                     34                     35                     36
                      A                      A                      A
 Frequencies --   1381.6763              1407.6970              1416.0780
 Red. masses --      9.6684                 2.0119                 1.2539
 Frc consts  --     10.8747                 2.3490                 1.4814
 IR Inten    --    404.9782                 5.5023                 6.7265

                     37                     38                     39
                      A                      A                      A
 Frequencies --   1419.3036              1451.5716              1471.2201
 Red. masses --      1.3776                 1.4086                 1.1144
 Frc consts  --      1.6350                 1.7488                 1.4212
 IR Inten    --      4.4745                34.7234                15.5585

                     40                     41                     42
                      A                      A                      A
 Frequencies --   1478.4928              1485.8182              1501.3055
 Red. masses --      1.1213                 1.1137                 1.9138
 Frc consts  --      1.4441                 1.4485                 2.5415
 IR Inten    --     15.2589                24.8077                 0.9970

                     43                     44                     45
                      A                      A                      A
 Frequencies --   1565.5293              1610.1757              1647.2760
 Red. masses --      5.2472                 8.0458                 7.8107
 Frc consts  --      7.5771                12.2904                12.4875
 IR Inten    --     32.1555               172.5045               189.2173

                     46                     47                     48
                      A                      A                      A
 Frequencies --   1794.9928              3055.0039              3058.1344
 Red. masses --      8.7623                 1.0385                 1.0355
 Frc consts  --     16.6339                 5.7106                 5.7056
 IR Inten    --    613.7211                12.6614                 8.1470

                     49                     50                     51
                      A                      A                      A
 Frequencies --   3125.7959              3126.9893              3139.7645
 Red. masses --      1.0993                 1.1008                 1.1031
 Frc consts  --      6.3284                 6.3420                 6.4070
 IR Inten    --      6.5336                 7.3882                11.2700

                     52                     53                     54
                      A                      A                      A
 Frequencies --   3151.2712              3214.2356              3590.3483
 Red. masses --      1.0989                 1.0910                 1.0771
 Frc consts  --      6.4293                 6.6408                 8.1808
 IR Inten    --      3.0634                 0.9239                58.9041

 - Thermochemistry -
 -------------------
 Temperature   298.150 Kelvin.  Pressure   1.00000 Atm.
 Atom     1 has atomic number  7 and mass  14.00307

 Molecular mass:   168.05349 amu.
 Principal axes and moments of inertia in atomic units:
                           1         2         3
     Eigenvalues --  1198.959632229.224693342.98919
           X            0.99999  -0.00538  -0.00033
           Y            0.00538   0.99995   0.00837
           Z            0.00028  -0.00838   0.99996
 This molecule is an asymmetric top.
 Rotational symmetry number  1.
 Warning -- assumption of classical behavior for rotation
           may cause significant error
 Rotational temperatures (Kelvin)      0.07224     0.03885     0.02591
 Rotational constants (GHZ):           1.50526     0.80958     0.53986
 Zero-point vibrational energy     398728.6 (Joules/Mol)
                                   95.29842 (Kcal/Mol)
 Warning -- explicit consideration of  16 degrees of freedom as
           vibrations may cause significant error
 Vibrational temperatures:     99.20   103.22   237.24   276.17   291.38
          (Kelvin)            331.06   367.28   378.99   476.51   496.15
                              528.36   665.95   740.47   776.54   823.70
                              865.94   919.01   945.12  1036.42  1104.06
                             1140.99  1233.44  1269.84  1352.42  1407.97
                             1499.06  1519.28  1531.26  1535.93  1675.93
                             1752.88  1793.71  1858.27  1987.92  2025.36
                             2037.42  2042.06  2088.49  2116.76  2127.22
                             2137.76  2160.04  2252.44  2316.68  2370.06
                             2582.59  4395.46  4399.97  4497.32  4499.03
                             4517.42  4533.97  4624.56  5165.70

 Zero-point correction=                           0.151868 (Hartree/Particle)
 Thermal correction to Energy=                    0.162584
 Thermal correction to Enthalpy=                  0.163528
 Thermal correction to Gibbs Free Energy=         0.115446
 Sum of electronic and zero-point Energies=           -606.546894
 Sum of electronic and thermal Energies=              -606.536178
 Sum of electronic and thermal Enthalpies=            -606.535233
 Sum of electronic and thermal Free Energies=         -606.583315

                     E (Thermal)             CV                S
                      KCal/Mol        Cal/Mol-Kelvin    Cal/Mol-Kelvin
 Total                  102.023             40.314            101.197
 Electronic               0.000              0.000              0.000
 Translational            0.889              2.981             41.265
 Rotational               0.889              2.981             30.570
 Vibrational            100.245             34.352             29.362
 Vibration     1          0.598              1.969              4.183
 Vibration     2          0.598              1.967              4.105
 Vibration     3          0.623              1.886              2.493
 Vibration     4          0.634              1.851              2.209
 Vibration     5          0.639              1.836              2.110
 Vibration     6          0.652              1.795              1.878
 Vibration     7          0.666              1.754              1.694
 Vibration     8          0.670              1.740              1.639
 Vibration     9          0.714              1.613              1.254
 Vibration    10          0.723              1.586              1.190
 Vibration    11          0.740              1.540              1.091
 Vibration    12          0.820              1.332              0.758
 Vibration    13          0.870              1.218              0.622
 Vibration    14          0.895              1.162              0.566
 Vibration    15          0.929              1.091              0.499
 Vibration    16          0.960              1.028              0.446

 Normal termination of Gaussian 09 at Tue Aug 24 14:22:48 2021.

 -----------------------------------------------------------------
 #P Geom=AllCheck Guess=TCheck SCRF=Check CCSD(T,E4T,FrzG4)/GTBas1
 -----------------------------------------------------------------

 Structure from the checkpoint file:  "/public/home/users/caep010/.cache/gau_scr/Gau-217792.chk"
 ------
 ERIWIL
 ------
 Charge =  0 Multiplicity = 1

 SCF Done:  E(RHF) =  -603.103929765     A.U. after   15 cycles
 E2 =    -0.1772429910D+01 EUMP2 =    -0.60487635967529D+03
 CCSD(T)
 CCSD(T)= -0.60499002427D+03
 4SDTQ=-605.0061909\MP4SDQ=-604.9184972\CCSD=-604.9131083\CCSD(T)=-604.
 Normal termination of Gaussian 09 at Tue Aug 24 15:37:50 2021.

 ---------------------------------------------------------
 #P Geom=AllCheck Guess=TCheck SCRF=Check MP4=FrzG4/GTBas2
 ---------------------------------------------------------

 Structure from the checkpoint file:  "/public/home/users/caep010/.cache/gau_scr/Gau-217792.chk"
 ------
 ERIWIL
 ------
 Charge =  0 Multiplicity = 1

 SCF Done:  E(RHF) =  -603.120100206     A.U. after   20 cycles
 E2 =    -0.1796141068D+01 EUMP2 =    -0.60491624127420D+03
 Normal termination of Gaussian 09 at Tue Aug 24 15:59:38 2021.

 ---------------------------------------------------------
 #P Geom=AllCheck Guess=TCheck SCRF=Check MP4=FrzG4/GTBas3
 ---------------------------------------------------------

 Structure from the checkpoint file:  "/public/home/users/caep010/.cache/gau_scr/Gau-217792.chk"
 ------
 ERIWIL
 ------
 Charge =  0 Multiplicity = 1

 SCF Done:  E(RHF) =  -603.166859837     A.U. after   13 cycles
 E2 =    -0.2128826022D+01 EUMP2 =    -0.60529568585954D+03
 Normal termination of Gaussian 09 at Tue Aug 24 18:38:05 2021.

 -----------------------------------------------------------
 #P Geom=AllCheck Guess=TCheck SCRF=Check MP2=Full/GTLargeXP
 -----------------------------------------------------------

 Structure from the checkpoint file:  "/public/home/users/caep010/.cache/gau_scr/Gau-217792.chk"
 ------
 ERIWIL
 ------
 Charge =  0 Multiplicity = 1

 SCF Done:  E(RHF) =  -603.315470866     A.U. after   15 cycles
 E2 =    -0.2788505640D+01 EUMP2 =    -0.60610397650563D+03
 Normal termination of Gaussian 09 at Tue Aug 24 18:59:42 2021.
 SCF Done:  E(RHF) =  -603.362764047     A.U. after   10 cycles
 Normal termination of Gaussian 09 at Tue Aug 24 19:06:02 2021.

                         Standard orientation:
 ---------------------------------------------------------------------
 Center     Atomic      Atomic             Coordinates (Angstroms)
 Number     Number       Type             X           Y           Z
 ---------------------------------------------------------------------
      1          7           0        1.526903   -1.088762   -0.053211
      2          6           0        2.310901    0.090754   -0.006742
      3          8           0        3.524027   -0.000241   -0.023724
      4          1           0        2.075166   -1.937577   -0.107467
      5          6           0        1.509146    1.286974    0.059489
      6          6           0        0.144449    1.280890    0.053669
      7          6           0       -0.535262    0.008389    0.008917
      8          6           0       -0.588265    2.595935    0.139822
      9          1           0        0.121531    3.394097    0.366257
     10          1           0       -1.098363    2.823089   -0.798313
     11          7           0       -1.985974   -0.057410   -0.010451
     12          8           0       -2.598571    0.871335   -0.528640
     13          1           0        2.057391    2.218884    0.117748
     14          8           0       -2.531331   -1.042410    0.486362
     15          1           0       -1.360489    2.579094    0.913164
     16          6           0        0.178051   -1.175819   -0.035258
     17          6           0       -0.379087   -2.570790   -0.090727
     18          1           0        0.393794   -3.266033   -0.430298
     19          1           0       -1.237854   -2.634906   -0.758824
     20          1           0       -0.730269   -2.880907    0.896362
 ---------------------------------------------------------------------

 SCF Done:  E(RHF) =  -603.372076257     A.U. after    9 cycles

 The electronic state is 1-A.
 Alpha  occ. eigenvalues --  -20.60305 -20.60169 -20.53386 -15.85991 -15.64863
 Alpha  occ. eigenvalues --  -11.37461 -11.36684 -11.30868 -11.30759 -11.27189
 Alpha  occ. eigenvalues --  -11.24815 -11.24531  -1.60849  -1.40584  -1.40052
 Alpha  occ. eigenvalues --   -1.31221  -1.16662  -1.10610  -1.03754  -0.99456
 Alpha  occ. eigenvalues --   -0.94296  -0.86088  -0.85759  -0.79274  -0.76254
 Alpha  occ. eigenvalues --   -0.73301  -0.70895  -0.70141  -0.65817  -0.64949
 Alpha  occ. eigenvalues --   -0.62871  -0.60967  -0.60181  -0.59548  -0.58667
 Alpha  occ. eigenvalues --   -0.56832  -0.55024  -0.50477  -0.50139  -0.49659
 Alpha  occ. eigenvalues --   -0.45933  -0.44931  -0.43688  -0.34001
 Alpha virt. eigenvalues --    0.02524   0.03499   0.04226   0.04410   0.05019
 Alpha virt. eigenvalues --    0.05518   0.05654   0.05912   0.06612   0.06834
 Alpha virt. eigenvalues --    0.07733   0.07859   0.08375   0.08815   0.09196

 Mulliken charges:
               1
     1  N   -0.451921
     2  C    0.430514
     3  O   -0.656316
     4  H    0.383547
     5  C   -0.271347
     6  C    0.324005
     7  C    0.193927
     8  C   -0.669340
     9  H    0.188147
    10  H    0.215743
    11  N    0.474184
    12  O   -0.437866
    13  H    0.230499
    14  O   -0.449392
    15  H    0.205120
    16  C    0.337152
    17  C   -0.690388
    18  H    0.185713
    19  H    0.229789
    20  H    0.228231
 Sum of Mulliken charges =  -0.00000

 Dipole moment (field-independent basis, Debye):
    X=             -0.0364    Y=             -1.7050    Z=              0.0147  Tot=              1.7054
 Quadrupole moment (field-independent basis, Debye-Ang):
   XX=           -100.5337   YY=            -55.9196   ZZ=            -70.3112
   XY=             -2.9725   XZ=             -0.1228   YZ=              2.4391

 Normal termination of Gaussian 09 at Tue Aug 24 19:52:39 2021.
