 Gaussian 09, Revision E.01,
 Gaussian 09:  ES64L-G09RevE.01 30-Nov-2015

 ----------------
 #P G4 OPT=calcfc
 ----------------

 --------
 EWUKIQ01
 --------
 Symbolic Z-matrix:
 Charge =  0 Multiplicity = 1

 SCF Done:  E(RB3LYP) =  -747.051641613     A.U. after   15 cycles
 SCF Done:  E(RB3LYP) =  -747.128250985     A.U. after   13 cycles
 SCF Done:  E(RB3LYP) =  -747.152169897     A.U. after   14 cycles
 SCF Done:  E(RB3LYP) =  -747.153992069     A.U. after   13 cycles
 SCF Done:  E(RB3LYP) =  -747.154188900     A.U. after   12 cycles
 SCF Done:  E(RB3LYP) =  -747.154240338     A.U. after   12 cycles
 SCF Done:  E(RB3LYP) =  -747.154244828     A.U. after    9 cycles
 SCF Done:  E(RB3LYP) =  -747.154245911     A.U. after    9 cycles
 SCF Done:  E(RB3LYP) =  -747.154246232     A.U. after    8 cycles
 SCF Done:  E(RB3LYP) =  -747.154246548     A.U. after    8 cycles
 Optimization completed.
    -- Stationary point found.
 Normal termination of Gaussian 09 at Thu Aug 26 19:54:07 2021.

 ----------------------------------------------------------
 #P Geom=AllCheck Guess=TCheck SCRF=Check B3LYP/GTBas3 Freq
 ----------------------------------------------------------

 Structure from the checkpoint file:  "/public/home/users/caep010/.cache/gau_scr/Gau-149292.chk"
 --------
 EWUKIQ01
 --------
 Charge =  0 Multiplicity = 1

 SCF Done:  E(RB3LYP) =  -747.154246548     A.U. after    1 cycles

  Exact polarizability: 119.561  -3.881  88.900  -7.740  -4.654  70.687
 Approx polarizability: 171.129  -5.450 171.371 -16.408 -17.616 119.950

                      1                      2                      3
                      A                      A                      A
 Frequencies --     33.5370                51.4452                77.3516
 Red. masses --     11.9611                 8.6458                14.8865
 Frc consts  --      0.0079                 0.0135                 0.0525
 IR Inten    --      1.1069                 0.6777                 0.1256

                      4                      5                      6
                      A                      A                      A
 Frequencies --    100.7785               125.8556               192.4736
 Red. masses --      6.1541                 6.2433                11.3210
 Frc consts  --      0.0368                 0.0583                 0.2471
 IR Inten    --      0.1725                 1.8927                 5.7305

                      7                      8                      9
                      A                      A                      A
 Frequencies --    214.3150               369.4191               372.7177
 Red. masses --      6.4902                 3.3666                 3.7026
 Frc consts  --      0.1756                 0.2707                 0.3031
 IR Inten    --      5.6818                 3.0580                 6.8829

                     10                     11                     12
                      A                      A                      A
 Frequencies --    396.2599               413.9423               435.3082
 Red. masses --      1.4036                 4.1076                 2.9675
 Frc consts  --      0.1299                 0.4147                 0.3313
 IR Inten    --     52.6593                 3.1693                13.6737

                     13                     14                     15
                      A                      A                      A
 Frequencies --    508.7660               545.2446               638.3631
 Red. masses --      5.4186                 6.9784                 3.0995
 Frc consts  --      0.8264                 1.2223                 0.7442
 IR Inten    --      6.2016                11.6579                19.7334

                     16                     17                     18
                      A                      A                      A
 Frequencies --    655.4064               687.8399               732.9660
 Red. masses --      4.5519                 1.5505                 6.7459
 Frc consts  --      1.1520                 0.4322                 2.1353
 IR Inten    --      5.7713                22.4617                41.0949

                     19                     20                     21
                      A                      A                      A
 Frequencies --    764.8768               777.6290               799.9771
 Red. masses --      8.9795                 9.6183                13.8277
 Frc consts  --      3.0952                 3.4269                 5.2138
 IR Inten    --      6.5887                10.5901                13.3308

                     22                     23                     24
                      A                      A                      A
 Frequencies --    829.7209               877.9517               920.4237
 Red. masses --      6.9907                 7.9862                 4.8215
 Frc consts  --      2.8355                 3.6268                 2.4066
 IR Inten    --     23.9873                 4.6338                87.4241

                     25                     26                     27
                      A                      A                      A
 Frequencies --    979.2586               991.9787               999.7534
 Red. masses --      3.2756                 1.9412                 5.9532
 Frc consts  --      1.8507                 1.1254                 3.5058
 IR Inten    --    125.9146                28.0754                68.9912

                     28                     29                     30
                      A                      A                      A
 Frequencies --   1041.4371              1130.0661              1162.3989
 Red. masses --      2.5017                 2.1896                 2.1827
 Frc consts  --      1.5987                 1.6475                 1.7376
 IR Inten    --     33.6793               184.0609                45.8248

                     31                     32                     33
                      A                      A                      A
 Frequencies --   1225.5548              1277.8722              1290.9292
 Red. masses --      5.4067                 3.5211                 1.3104
 Frc consts  --      4.7846                 3.3877                 1.2866
 IR Inten    --      2.6366               235.8852                28.5561

                     34                     35                     36
                      A                      A                      A
 Frequencies --   1338.0421              1338.7097              1359.4587
 Red. masses --      2.1219                 2.0958                 1.4698
 Frc consts  --      2.2383                 2.2129                 1.6004
 IR Inten    --    155.7604                98.8061                47.4625

                     37                     38                     39
                      A                      A                      A
 Frequencies --   1366.4331              1417.7047              1437.4894
 Red. masses --      2.2220                 1.7255                 1.6199
 Frc consts  --      2.4444                 2.0433                 1.9722
 IR Inten    --     68.4441               165.3313                82.4328

                     40                     41                     42
                      A                      A                      A
 Frequencies --   1478.7843              1507.6404              1568.0316
 Red. masses --      1.1766                 1.1166                 3.7175
 Frc consts  --      1.5160                 1.4953                 5.3853
 IR Inten    --      2.8541                45.9155               345.6662

                     43                     44                     45
                      A                      A                      A
 Frequencies --   1625.6766              1663.1779              1694.9928
 Red. masses --      7.3760                 3.3833                12.7417
 Frc consts  --     11.4853                 5.5140                21.5682
 IR Inten    --    572.3528               310.3385               293.5959

                     46                     47                     48
                      A                      A                      A
 Frequencies --   3032.6912              3045.6851              3166.9998
 Red. masses --      1.0728                 1.0730                 1.0929
 Frc consts  --      5.8134                 5.8645                 6.4587
 IR Inten    --     14.7783                58.5660                 0.8675

                     49                     50                     51
                      A                      A                      A
 Frequencies --   3173.1921              3417.1116              3653.5837
 Red. masses --      1.0930                 1.0790                 1.0777
 Frc consts  --      6.4845                 7.4230                 8.4761
 IR Inten    --      1.1233               281.2045                79.7735

 - Thermochemistry -
 -------------------
 Temperature   298.150 Kelvin.  Pressure   1.00000 Atm.
 Atom     1 has atomic number  7 and mass  14.00307

 Molecular mass:   190.04505 amu.
 Principal axes and moments of inertia in atomic units:
                           1         2         3
     Eigenvalues --  1027.095133835.087994066.99380
           X            0.99995  -0.00644  -0.00742
           Y            0.00623   0.99959  -0.02794
           Z            0.00760   0.02789   0.99958
 This molecule is an asymmetric top.
 Rotational symmetry number  1.
 Warning -- assumption of classical behavior for rotation
           may cause significant error
 Rotational temperatures (Kelvin)      0.08433     0.02258     0.02130
 Rotational constants (GHZ):           1.75713     0.47059     0.44375
 Zero-point vibrational energy     352343.4 (Joules/Mol)
                                   84.21210 (Kcal/Mol)
 Warning -- explicit consideration of  14 degrees of freedom as
           vibrations may cause significant error
 Vibrational temperatures:     48.25    74.02   111.29   145.00   181.08
          (Kelvin)            276.93   308.35   531.51   536.26   570.13
                              595.57   626.31   732.00   784.48   918.46
                              942.98   989.65  1054.57  1100.49  1118.83
                             1150.99  1193.78  1263.18  1324.28  1408.93
                             1427.23  1438.42  1498.39  1625.91  1672.43
                             1763.30  1838.57  1857.36  1925.14  1926.10
                             1955.96  1965.99  2039.76  2068.22  2127.64
                             2169.16  2256.04  2338.98  2392.94  2438.71
                             4363.36  4382.06  4556.60  4565.51  4916.46
                             5256.69

 Zero-point correction=                           0.134201 (Hartree/Particle)
 Thermal correction to Energy=                    0.145237
 Thermal correction to Enthalpy=                  0.146181
 Thermal correction to Gibbs Free Energy=         0.095314
 Sum of electronic and zero-point Energies=           -747.020046
 Sum of electronic and thermal Energies=              -747.009010
 Sum of electronic and thermal Enthalpies=            -747.008066
 Sum of electronic and thermal Free Energies=         -747.058933

                     E (Thermal)             CV                S
                      KCal/Mol        Cal/Mol-Kelvin    Cal/Mol-Kelvin
 Total                   91.137             39.849            107.059
 Electronic               0.000              0.000              0.000
 Translational            0.889              2.981             41.632
 Rotational               0.889              2.981             31.150
 Vibrational             89.360             33.888             34.277
 Vibration     1          0.594              1.983              5.608
 Vibration     2          0.596              1.977              4.761
 Vibration     3          0.599              1.964              3.957
 Vibration     4          0.604              1.948              3.439
 Vibration     5          0.611              1.927              3.008
 Vibration     6          0.634              1.850              2.204
 Vibration     7          0.644              1.819              2.007
 Vibration     8          0.742              1.535              1.082
 Vibration     9          0.744              1.528              1.069
 Vibration    10          0.763              1.478              0.977
 Vibration    11          0.778              1.440              0.913
 Vibration    12          0.796              1.393              0.841
 Vibration    13          0.864              1.231              0.637
 Vibration    14          0.900              1.150              0.554

 Optimization completed.
    -- Stationary point found.
 Normal termination of Gaussian 09 at Thu Aug 26 19:56:58 2021.

 -----------------------------------------------------------------
 #P Geom=AllCheck Guess=TCheck SCRF=Check CCSD(T,E4T,FrzG4)/GTBas1
 -----------------------------------------------------------------

 Structure from the checkpoint file:  "/public/home/users/caep010/.cache/gau_scr/Gau-149292.chk"
 --------
 EWUKIQ01
 --------
 Charge =  0 Multiplicity = 1

 SCF Done:  E(RHF) =  -742.937661395     A.U. after   15 cycles
 E2 =    -0.2108897529D+01 EUMP2 =    -0.74504655892414D+03
 CCSD(T)
 CCSD(T)= -0.74515012290D+03
 101\CCSD=-745.0629572\CCSD(T)=-745.1501229\RMSD=3.632e-09\PG=C01 [X(C3
 Normal termination of Gaussian 09 at Thu Aug 26 21:26:17 2021.

 ---------------------------------------------------------
 #P Geom=AllCheck Guess=TCheck SCRF=Check MP4=FrzG4/GTBas2
 ---------------------------------------------------------

 Structure from the checkpoint file:  "/public/home/users/caep010/.cache/gau_scr/Gau-149292.chk"
 --------
 EWUKIQ01
 --------
 Charge =  0 Multiplicity = 1

 SCF Done:  E(RHF) =  -742.959913119     A.U. after   13 cycles
 E2 =    -0.2140271536D+01 EUMP2 =    -0.74510018465483D+03
 Normal termination of Gaussian 09 at Thu Aug 26 22:01:27 2021.

 ---------------------------------------------------------
 #P Geom=AllCheck Guess=TCheck SCRF=Check MP4=FrzG4/GTBas3
 ---------------------------------------------------------

 Structure from the checkpoint file:  "/public/home/users/caep010/.cache/gau_scr/Gau-149292.chk"
 --------
 EWUKIQ01
 --------
 Charge =  0 Multiplicity = 1

 SCF Done:  E(RHF) =  -743.019721849     A.U. after   12 cycles
 E2 =    -0.2523618831D+01 EUMP2 =    -0.74554334068006D+03
 Normal termination of Gaussian 09 at Fri Aug 27 02:32:04 2021.

 -----------------------------------------------------------
 #P Geom=AllCheck Guess=TCheck SCRF=Check MP2=Full/GTLargeXP
 -----------------------------------------------------------

 Structure from the checkpoint file:  "/public/home/users/caep010/.cache/gau_scr/Gau-149292.chk"
 --------
 EWUKIQ01
 --------
 Charge =  0 Multiplicity = 1

 SCF Done:  E(RHF) =  -743.214286688     A.U. after   13 cycles
 E2 =    -0.3268728275D+01 EUMP2 =    -0.74648301496313D+03
 Normal termination of Gaussian 09 at Fri Aug 27 02:44:16 2021.
 SCF Done:  E(RHF) =  -743.273837810     A.U. after   10 cycles
 Normal termination of Gaussian 09 at Fri Aug 27 02:50:50 2021.

                         Standard orientation:
 ---------------------------------------------------------------------
 Center     Atomic      Atomic             Coordinates (Angstroms)
 Number     Number       Type             X           Y           Z
 ---------------------------------------------------------------------
      1          7           0        2.909791   -0.120182   -0.298122
      2          7           0        1.924349    0.836047   -0.257927
      3          8           0        3.964572    0.244147   -0.780751
      4          8           0        2.730806   -1.281507    0.135314
      5          6           0        0.741557    0.516633    0.259846
      6          7           0       -0.168687    1.525344    0.220313
      7          1           0        0.128367    2.364346   -0.251316
      8          6           0       -1.508484    1.393910    0.758135
      9          1           0       -1.549168    1.652388    1.823237
     10          7           0       -1.956225    0.012661    0.662104
     11          1           0       -2.192432    2.035364    0.208536
     12          7           0       -2.433047   -0.370536   -0.632987
     13          8           0       -2.434688   -1.559634   -0.880154
     14          8           0       -2.860152    0.524058   -1.336205
     15          7           0        0.344847   -0.656681    0.781655
     16          6           0       -1.005784   -0.908586    1.263354
     17          1           0       -1.297522   -1.927576    1.019968
     18          1           0       -1.073917   -0.765698    2.347824
     19          1           0        1.069435   -1.373662    0.732869
 ---------------------------------------------------------------------

 SCF Done:  E(RHF) =  -743.285758491     A.U. after    8 cycles

 The electronic state is 1-A.
 Alpha  occ. eigenvalues --  -20.63484 -20.63454 -20.58722 -20.58010 -15.91638
 Alpha  occ. eigenvalues --  -15.86703 -15.68667 -15.63355 -15.62901 -15.59815
 Alpha  occ. eigenvalues --  -11.42141 -11.36490 -11.36326  -1.66011  -1.60201
 Alpha  occ. eigenvalues --   -1.44794  -1.40317  -1.38041  -1.31710  -1.26191
 Alpha  occ. eigenvalues --   -1.23077  -1.04543  -1.02020  -0.95474  -0.88898
 Alpha  occ. eigenvalues --   -0.85092  -0.79920  -0.79427  -0.78304  -0.77254
 Alpha  occ. eigenvalues --   -0.74807  -0.72808  -0.71992  -0.70794  -0.70392
 Alpha  occ. eigenvalues --   -0.68618  -0.67980  -0.60107  -0.58833  -0.55119
 Alpha  occ. eigenvalues --   -0.53806  -0.53064  -0.49642  -0.49164  -0.48700
 Alpha  occ. eigenvalues --   -0.46138  -0.45908  -0.44141  -0.40831
 Alpha virt. eigenvalues --    0.01443   0.02537   0.03440   0.03952   0.05571
 Alpha virt. eigenvalues --    0.05891   0.05923   0.06297   0.07412   0.07599
 Alpha virt. eigenvalues --    0.08284   0.08506   0.09149   0.10341   0.10520

 Mulliken charges:
               1
     1  N    0.549979
     2  N   -0.418912
     3  O   -0.395043
     4  O   -0.491438
     5  C    0.515860
     6  N   -0.402194
     7  H    0.392314
     8  C   -0.213271
     9  H    0.209271
    10  N    0.035968
    11  H    0.253594
    12  N    0.543363
    13  O   -0.401591
    14  O   -0.406668
    15  N   -0.406285
    16  C   -0.260709
    17  H    0.253757
    18  H    0.216313
    19  H    0.425691
 Sum of Mulliken charges =  -0.00000

 Dipole moment (field-independent basis, Debye):
    X=             -5.4243    Y=              2.0781    Z=              4.9935  Tot=              7.6601
 Quadrupole moment (field-independent basis, Debye-Ang):
   XX=           -103.0559   YY=            -69.8028   ZZ=            -73.2723
   XY=             -3.2247   XZ=             -3.8894   YZ=             -1.1734

 Normal termination of Gaussian 09 at Fri Aug 27 03:34:52 2021.
