 Gaussian 09, Revision E.01,
 Gaussian 09:  ES64L-G09RevE.01 30-Nov-2015

 ----------------
 #P G4 OPT=calcfc
 ----------------

 ------
 ESIRIJ
 ------
 Symbolic Z-matrix:
 Charge =  0 Multiplicity = 1

 SCF Done:  E(RB3LYP) =  -530.088743340     A.U. after   15 cycles
 SCF Done:  E(RB3LYP) =  -530.167804510     A.U. after   13 cycles
 SCF Done:  E(RB3LYP) =  -530.195068147     A.U. after   14 cycles
 SCF Done:  E(RB3LYP) =  -530.196228637     A.U. after   12 cycles
 SCF Done:  E(RB3LYP) =  -530.196284737     A.U. after   11 cycles
 SCF Done:  E(RB3LYP) =  -530.196290200     A.U. after    9 cycles
 Optimization completed.
    -- Stationary point found.
 Normal termination of Gaussian 09 at Fri Aug 27 02:43:24 2021.

 ----------------------------------------------------------
 #P Geom=AllCheck Guess=TCheck SCRF=Check B3LYP/GTBas3 Freq
 ----------------------------------------------------------

 Structure from the checkpoint file:  "/public/home/users/caep010/.cache/gau_scr/Gau-104158.chk"
 ------
 ESIRIJ
 ------
 Charge =  0 Multiplicity = 1

 SCF Done:  E(RB3LYP) =  -530.196290200     A.U. after    1 cycles

  Exact polarizability: 117.753  -2.286 117.761   1.341  -0.449  44.229
 Approx polarizability: 199.400 -11.557 215.593   1.087   0.320  72.536

                      1                      2                      3
                      A                      A                      A
 Frequencies --     66.2156               149.5394               179.8326
 Red. masses --     11.7738                 4.8525                 7.0204
 Frc consts  --      0.0304                 0.0639                 0.1338
 IR Inten    --      0.0573                 1.5720                 1.9994

                      4                      5                      6
                      A                      A                      A
 Frequencies --    228.7649               265.7150               373.3935
 Red. masses --      2.8862                 2.8390                 8.2816
 Frc consts  --      0.0890                 0.1181                 0.6803
 IR Inten    --      4.0774                 6.7305                 1.9601

                      7                      8                      9
                      A                      A                      A
 Frequencies --    421.2423               459.4481               526.4744
 Red. masses --      6.7667                 4.3375                 6.2041
 Frc consts  --      0.7074                 0.5395                 1.0132
 IR Inten    --      0.4295                 3.2566                14.2041

                     10                     11                     12
                      A                      A                      A
 Frequencies --    538.4698               618.4912               651.0429
 Red. masses --      2.8530                 7.2472                 2.3105
 Frc consts  --      0.4874                 1.6334                 0.5770
 IR Inten    --     26.7298                 4.5327               126.7936

                     13                     14                     15
                      A                      A                      A
 Frequencies --    677.9600               712.0336               763.7594
 Red. masses --      3.4539                 2.2671                 2.3250
 Frc consts  --      0.9353                 0.6772                 0.7991
 IR Inten    --     61.9534                18.9332                53.1824

                     16                     17                     18
                      A                      A                      A
 Frequencies --    819.8292               829.8544               877.8236
 Red. masses --      7.5124                 2.4994                 3.4332
 Frc consts  --      2.9749                 1.0141                 1.5587
 IR Inten    --     27.2178                 8.8406                11.7500

                     19                     20                     21
                      A                      A                      A
 Frequencies --    906.4168               930.7651               965.3608
 Red. masses --      1.4406                 4.0292                 1.2716
 Frc consts  --      0.6974                 2.0566                 0.6982
 IR Inten    --      1.4613                 9.5402                 0.5110

                     22                     23                     24
                      A                      A                      A
 Frequencies --   1007.3777              1043.2581              1061.0743
 Red. masses --      2.4503                 3.0954                 1.9192
 Frc consts  --      1.4651                 1.9849                 1.2731
 IR Inten    --     19.3955                 8.9469                 6.2498

                     25                     26                     27
                      A                      A                      A
 Frequencies --   1111.9792              1147.8205              1177.8080
 Red. masses --      1.1831                 3.1845                 1.2634
 Frc consts  --      0.8619                 2.4720                 1.0326
 IR Inten    --     12.0092                 2.0040                 0.7473

                     28                     29                     30
                      A                      A                      A
 Frequencies --   1220.9909              1228.4171              1274.4292
 Red. masses --      2.0733                 2.2333                 1.4467
 Frc consts  --      1.8211                 1.9856                 1.3844
 IR Inten    --      5.7542                22.9222                 5.0976

                     31                     32                     33
                      A                      A                      A
 Frequencies --   1322.7034              1399.6076              1406.4505
 Red. masses --      1.6728                12.1071                 3.1788
 Frc consts  --      1.7243                13.9734                 3.7048
 IR Inten    --     29.5892               244.4776                17.8346

                     34                     35                     36
                      A                      A                      A
 Frequencies --   1474.9385              1483.3607              1491.3733
 Red. masses --      2.0922                 1.4758                 2.7570
 Frc consts  --      2.6816                 1.9133                 3.6129
 IR Inten    --     10.1187                 4.3992                 2.7652

                     37                     38                     39
                      A                      A                      A
 Frequencies --   1623.0933              1649.5418              1675.5537
 Red. masses --     11.7139                 7.8416                10.1480
 Frc consts  --     18.1819                12.5713                16.7859
 IR Inten    --    282.3211                 3.6193                 2.7132

                     40                     41                     42
                      A                      A                      A
 Frequencies --   3062.9033              3118.9317              3189.8675
 Red. masses --      1.0577                 1.1085                 1.0871
 Frc consts  --      5.8461                 6.3531                 6.5171
 IR Inten    --     20.6549                 9.1281                 6.4668

                     43                     44                     45
                      A                      A                      A
 Frequencies --   3207.9913              3236.5508              3540.6144
 Red. masses --      1.0939                 1.0917                 1.0763
 Frc consts  --      6.6325                 6.7378                 7.9493
 IR Inten    --      7.8838                 2.0275                 5.2081

 - Thermochemistry -
 -------------------
 Temperature   298.150 Kelvin.  Pressure   1.00000 Atm.
 Atom     1 has atomic number  8 and mass  15.99491

 Molecular mass:   150.04293 amu.
 Principal axes and moments of inertia in atomic units:
                           1         2         3
     Eigenvalues --   933.402981734.861072652.98376
           X            0.99988  -0.01461   0.00422
           Y            0.01463   0.99989  -0.00377
           Z           -0.00416   0.00383   0.99998
 This molecule is an asymmetric top.
 Rotational symmetry number  1.
 Warning -- assumption of classical behavior for rotation
           may cause significant error
 Rotational temperatures (Kelvin)      0.09279     0.04993     0.03265
 Rotational constants (GHZ):           1.93351     1.04028     0.68027
 Zero-point vibrational energy     329685.2 (Joules/Mol)
                                   78.79667 (Kcal/Mol)
 Warning -- explicit consideration of  11 degrees of freedom as
           vibrations may cause significant error
 Vibrational temperatures:     95.27   215.15   258.74   329.14   382.30
          (Kelvin)            537.23   606.07   661.04   757.48   774.74
                              889.87   936.70   975.43  1024.46  1098.88
                             1179.55  1193.97  1262.99  1304.13  1339.16
                             1388.94  1449.39  1501.01  1526.65  1599.89
                             1651.46  1694.60  1756.73  1767.42  1833.62
                             1903.07  2013.72  2023.57  2122.10  2134.22
                             2145.75  2335.27  2373.32  2410.74  4406.83
                             4487.44  4589.50  4615.58  4656.67  5094.15

 Zero-point correction=                           0.125570 (Hartree/Particle)
 Thermal correction to Energy=                    0.133905
 Thermal correction to Enthalpy=                  0.134849
 Thermal correction to Gibbs Free Energy=         0.091799
 Sum of electronic and zero-point Energies=           -530.070720
 Sum of electronic and thermal Energies=              -530.062385
 Sum of electronic and thermal Enthalpies=            -530.061441
 Sum of electronic and thermal Free Energies=         -530.104491

                     E (Thermal)             CV                S
                      KCal/Mol        Cal/Mol-Kelvin    Cal/Mol-Kelvin
 Total                   84.027             32.317             90.607
 Electronic               0.000              0.000              0.000
 Translational            0.889              2.981             40.928
 Rotational               0.889              2.981             29.842
 Vibrational             82.249             26.355             19.838
 Vibration     1          0.598              1.970              4.263
 Vibration     2          0.618              1.903              2.678
 Vibration     3          0.629              1.867              2.330
 Vibration     4          0.651              1.797              1.889
 Vibration     5          0.672              1.736              1.624
 Vibration     6          0.745              1.527              1.066
 Vibration     7          0.784              1.424              0.888
 Vibration     8          0.817              1.340              0.768
 Vibration     9          0.881              1.191              0.595
 Vibration    10          0.894              1.165              0.569
 Vibration    11          0.978              0.993              0.419

 Normal termination of Gaussian 09 at Fri Aug 27 02:45:22 2021.

 -----------------------------------------------------------------
 #P Geom=AllCheck Guess=TCheck SCRF=Check CCSD(T,E4T,FrzG4)/GTBas1
 -----------------------------------------------------------------

 Structure from the checkpoint file:  "/public/home/users/caep010/.cache/gau_scr/Gau-104158.chk"
 ------
 ESIRIJ
 ------
 Charge =  0 Multiplicity = 1

 SCF Done:  E(RHF) =  -527.010548488     A.U. after   15 cycles
 E2 =    -0.1591441632D+01 EUMP2 =    -0.52860199012006D+03
 CCSD(T)
 CCSD(T)= -0.52870087862D+03
 02\CCSD=-528.6272627\CCSD(T)=-528.7008786\RMSD=4.532e-09\PG=C01 [X(C7H
 Normal termination of Gaussian 09 at Fri Aug 27 03:15:54 2021.

 ---------------------------------------------------------
 #P Geom=AllCheck Guess=TCheck SCRF=Check MP4=FrzG4/GTBas2
 ---------------------------------------------------------

 Structure from the checkpoint file:  "/public/home/users/caep010/.cache/gau_scr/Gau-104158.chk"
 ------
 ESIRIJ
 ------
 Charge =  0 Multiplicity = 1

 SCF Done:  E(RHF) =  -527.025905980     A.U. after   16 cycles
 E2 =    -0.1611065759D+01 EUMP2 =    -0.52863697173956D+03
 Normal termination of Gaussian 09 at Fri Aug 27 03:27:50 2021.

 ---------------------------------------------------------
 #P Geom=AllCheck Guess=TCheck SCRF=Check MP4=FrzG4/GTBas3
 ---------------------------------------------------------

 Structure from the checkpoint file:  "/public/home/users/caep010/.cache/gau_scr/Gau-104158.chk"
 ------
 ESIRIJ
 ------
 Charge =  0 Multiplicity = 1

 SCF Done:  E(RHF) =  -527.064653630     A.U. after   13 cycles
 E2 =    -0.1895326513D+01 EUMP2 =    -0.52895998014308D+03
 Normal termination of Gaussian 09 at Fri Aug 27 04:49:55 2021.

 -----------------------------------------------------------
 #P Geom=AllCheck Guess=TCheck SCRF=Check MP2=Full/GTLargeXP
 -----------------------------------------------------------

 Structure from the checkpoint file:  "/public/home/users/caep010/.cache/gau_scr/Gau-104158.chk"
 ------
 ESIRIJ
 ------
 Charge =  0 Multiplicity = 1

 SCF Done:  E(RHF) =  -527.190396299     A.U. after   14 cycles
 E2 =    -0.2488526975D+01 EUMP2 =    -0.52967892327407D+03
 Normal termination of Gaussian 09 at Fri Aug 27 05:02:49 2021.
 SCF Done:  E(RHF) =  -527.231758268     A.U. after   10 cycles
 Normal termination of Gaussian 09 at Fri Aug 27 05:07:39 2021.

                         Standard orientation:
 ---------------------------------------------------------------------
 Center     Atomic      Atomic             Coordinates (Angstroms)
 Number     Number       Type             X           Y           Z
 ---------------------------------------------------------------------
      1          8           0       -2.942059    0.522345   -0.006756
      2          7           0       -2.001683   -0.260737   -0.000682
      3          6           0       -0.644780    0.286338   -0.008613
      4          8           0       -2.102137   -1.483565    0.011986
      5          6           0       -0.427026    1.671702    0.000204
      6          1           0       -1.282127    2.333405    0.003412
      7          6           0        0.874434    2.170114    0.014689
      8          1           0        1.015748    3.245100    0.029997
      9          6           0        2.007979    1.337095    0.005489
     10          1           0        3.008941    1.751261    0.014479
     11          6           0        1.741836   -0.020479   -0.014636
     12          7           0        2.384803   -1.282673   -0.126277
     13          1           0        3.097145   -1.526961    0.552958
     14          6           0        1.027039   -1.940276    0.018605
     15          1           0        0.887352   -2.480117    0.959957
     16          1           0        0.774931   -2.591908   -0.821534
     17          6           0        0.448808   -0.544019    0.002195
 ---------------------------------------------------------------------

 SCF Done:  E(RHF) =  -527.239699105     A.U. after    8 cycles

 The electronic state is 1-A.
 Alpha  occ. eigenvalues --  -20.60128 -20.59970 -15.85283 -15.58574 -11.31314
 Alpha  occ. eigenvalues --  -11.29500 -11.29227 -11.26811 -11.26628 -11.26491
 Alpha  occ. eigenvalues --  -11.26343  -1.60426  -1.39852  -1.29380  -1.17363
 Alpha  occ. eigenvalues --   -1.09094  -1.01228  -0.98252  -0.92599  -0.83829
 Alpha  occ. eigenvalues --   -0.82019  -0.78083  -0.72822  -0.72053  -0.70238
 Alpha  occ. eigenvalues --   -0.68284  -0.66420  -0.61952  -0.60038  -0.56954
 Alpha  occ. eigenvalues --   -0.54652  -0.52792  -0.52026  -0.49637  -0.48905
 Alpha  occ. eigenvalues --   -0.45769  -0.45530  -0.37348  -0.33035
 Alpha virt. eigenvalues --    0.02907   0.03323   0.03567   0.04570   0.04779
 Alpha virt. eigenvalues --    0.05673   0.06081   0.06998   0.07141   0.08155
 Alpha virt. eigenvalues --    0.08268   0.08507   0.09357   0.09685   0.09933

 Mulliken charges:
               1
     1  O   -0.439497
     2  N    0.530918
     3  C    0.053263
     4  O   -0.442056
     5  C   -0.234697
     6  H    0.256034
     7  C   -0.184618
     8  H    0.214065
     9  C   -0.240447
    10  H    0.219006
    11  C    0.175012
    12  N   -0.476167
    13  H    0.303520
    14  C   -0.275558
    15  H    0.198381
    16  H    0.198302
    17  C    0.144537
 Sum of Mulliken charges =  -0.00000

 Dipole moment (field-independent basis, Debye):
    X=              4.7675    Y=              0.9653    Z=              1.1691  Tot=              5.0028
 Quadrupole moment (field-independent basis, Debye-Ang):
   XX=            -70.4176   YY=            -56.9759   ZZ=            -64.3864
   XY=             -2.0477   XZ=              4.0593   YZ=             -1.9600

 Normal termination of Gaussian 09 at Fri Aug 27 05:41:19 2021.
