 Gaussian 09, Revision E.01,
 Gaussian 09:  ES64L-G09RevE.01 30-Nov-2015

 ----------------
 #P G4 OPT=calcfc
 ----------------

 ------
 EVIXEM
 ------
 Symbolic Z-matrix:
 Charge =  0 Multiplicity = 1

 SCF Done:  E(RB3LYP) =  -654.693448951     A.U. after   15 cycles
 SCF Done:  E(RB3LYP) =  -654.778212157     A.U. after   13 cycles
 SCF Done:  E(RB3LYP) =  -654.810626563     A.U. after   15 cycles
 SCF Done:  E(RB3LYP) =  -654.813789309     A.U. after   14 cycles
 SCF Done:  E(RB3LYP) =  -654.813748130     A.U. after   12 cycles
 SCF Done:  E(RB3LYP) =  -654.813837444     A.U. after   10 cycles
 SCF Done:  E(RB3LYP) =  -654.814380536     A.U. after   14 cycles
 SCF Done:  E(RB3LYP) =  -654.814437456     A.U. after   13 cycles
 SCF Done:  E(RB3LYP) =  -654.814450649     A.U. after   10 cycles
 SCF Done:  E(RB3LYP) =  -654.814458506     A.U. after   10 cycles
 SCF Done:  E(RB3LYP) =  -654.814469845     A.U. after    9 cycles
 SCF Done:  E(RB3LYP) =  -654.814469895     A.U. after    7 cycles
 SCF Done:  E(RB3LYP) =  -654.814469907     A.U. after    6 cycles
 Optimization completed.
    -- Stationary point found.
 Normal termination of Gaussian 09 at Thu Aug 26 09:48:43 2021.

 ----------------------------------------------------------
 #P Geom=AllCheck Guess=TCheck SCRF=Check B3LYP/GTBas3 Freq
 ----------------------------------------------------------

 Structure from the checkpoint file:  "/public/home/users/caep010/.cache/gau_scr/Gau-21195.chk"
 ------
 EVIXEM
 ------
 Charge =  0 Multiplicity = 1

 SCF Done:  E(RB3LYP) =  -654.814469907     A.U. after    2 cycles

  Exact polarizability: 133.279  -0.861  85.573  -0.000  -0.000  44.816
 Approx polarizability: 171.897   2.018 181.621   0.001  -0.003  71.956

                      1                      2                      3
                      A                      A                      A
 Frequencies --     32.5860                44.3577                62.7915
 Red. masses --      1.1583                 7.0003                 6.0461
 Frc consts  --      0.0007                 0.0081                 0.0140
 IR Inten    --      0.5908                 0.2964                 2.0751

                      4                      5                      6
                      A                      A                      A
 Frequencies --    112.6096               128.4830               198.6917
 Red. masses --      4.8694                 6.4178                 9.1208
 Frc consts  --      0.0364                 0.0624                 0.2121
 IR Inten    --      6.0807                 6.0012                 0.1438

                      7                      8                      9
                      A                      A                      A
 Frequencies --    229.6113               315.9931               372.0682
 Red. masses --      9.4016                 4.6803                 8.4365
 Frc consts  --      0.2920                 0.2753                 0.6881
 IR Inten    --      3.6162                 0.3941                 1.3812

                     10                     11                     12
                      A                      A                      A
 Frequencies --    372.0961               469.7902               545.7232
 Red. masses --      6.3156                 8.7435                 1.4507
 Frc consts  --      0.5152                 1.1370                 0.2545
 IR Inten    --      1.9612                 6.6041                58.5001

                     13                     14                     15
                      A                      A                      A
 Frequencies --    546.7384               617.6589               628.8884
 Red. masses --      8.0031                 1.7235                 5.3383
 Frc consts  --      1.4095                 0.3874                 1.2439
 IR Inten    --      3.4656                24.7883                15.4313

                     16                     17                     18
                      A                      A                      A
 Frequencies --    638.9006               714.5879               759.0291
 Red. masses --      4.1584                 2.1314                 2.7665
 Frc consts  --      1.0001                 0.6412                 0.9391
 IR Inten    --      4.1607                86.5963                 5.5218

                     19                     20                     21
                      A                      A                      A
 Frequencies --    797.5741               809.5518               853.9580
 Red. masses --      5.0090                12.7704                13.1871
 Frc consts  --      1.8773                 4.9311                 5.6660
 IR Inten    --      7.8067                 0.0010                79.8161

                     22                     23                     24
                      A                      A                      A
 Frequencies --    967.1603               998.7029              1020.9817
 Red. masses --      4.9435                 1.7658                 8.1279
 Frc consts  --      2.7245                 1.0377                 4.9919
 IR Inten    --      2.3829                37.8014                 4.7153

                     25                     26                     27
                      A                      A                      A
 Frequencies --   1055.6182              1089.3299              1165.1925
 Red. masses --      1.7641                 3.7023                 3.4747
 Frc consts  --      1.1582                 2.5885                 2.7795
 IR Inten    --      4.4102                23.7823                28.6152

                     28                     29                     30
                      A                      A                      A
 Frequencies --   1236.2668              1294.8251              1352.3787
 Red. masses --      2.0180                 2.4309                11.2285
 Frc consts  --      1.8171                 2.4013                12.0995
 IR Inten    --    110.4230                 8.1554               126.0695

                     31                     32                     33
                      A                      A                      A
 Frequencies --   1386.7490              1406.5630              1433.0202
 Red. masses --      1.5406                 3.8463                 5.4259
 Frc consts  --      1.7456                 4.4834                 6.5649
 IR Inten    --     31.8632               237.1434                 5.5172

                     34                     35                     36
                      A                      A                      A
 Frequencies --   1467.6481              1480.5002              1501.2873
 Red. masses --      1.1750                 1.0444                 3.3375
 Frc consts  --      1.4912                 1.3487                 4.4320
 IR Inten    --     21.2868                 8.6183                98.5238

                     37                     38                     39
                      A                      A                      A
 Frequencies --   1543.9101              1635.9508              1658.8365
 Red. masses --      4.1701                 5.3839                13.7760
 Frc consts  --      5.8565                 8.4897                22.3347
 IR Inten    --     65.4020               498.2362               242.0748

                     40                     41                     42
                      A                      A                      A
 Frequencies --   1783.2033              3047.9633              3111.3975
 Red. masses --      9.2320                 1.0383                 1.0999
 Frc consts  --     17.2962                 5.6832                 6.2733
 IR Inten    --    163.2458                 1.6100                 3.8326

                     43                     44                     45
                      A                      A                      A
 Frequencies --   3172.3561              3619.0242              3630.0329
 Red. masses --      1.1004                 1.0832                 1.0775
 Frc consts  --      6.5247                 8.3589                 8.3654
 IR Inten    --      2.1395               166.9076                57.0562

 - Thermochemistry -
 -------------------
 Temperature   298.150 Kelvin.  Pressure   1.00000 Atm.
 Atom     1 has atomic number  7 and mass  14.00307

 Molecular mass:   171.03924 amu.
 Principal axes and moments of inertia in atomic units:
                           1         2         3
     Eigenvalues --   523.440004061.306624573.47721
           X            0.99989  -0.01455  -0.00000
           Y            0.01455   0.99989   0.00000
           Z            0.00000  -0.00000   1.00000
 This molecule is an asymmetric top.
 Rotational symmetry number  1.
 Warning -- assumption of classical behavior for rotation
           may cause significant error
 Rotational temperatures (Kelvin)      0.16547     0.02133     0.01894
 Rotational constants (GHZ):           3.44785     0.44437     0.39461
 Zero-point vibrational energy     306905.5 (Joules/Mol)
                                   73.35217 (Kcal/Mol)
 Warning -- explicit consideration of  14 degrees of freedom as
           vibrations may cause significant error
 Vibrational temperatures:     46.88    63.82    90.34   162.02   184.86
          (Kelvin)            285.87   330.36   454.64   535.32   535.36
                              675.92   785.17   786.63   888.67   904.83
                              919.23  1028.13  1092.07  1147.53  1164.76
                             1228.65  1391.53  1436.91  1468.96  1518.80
                             1567.30  1676.45  1778.71  1862.96  1945.77
                             1995.22  2023.73  2061.79  2111.62  2130.11
                             2160.01  2221.34  2353.77  2386.69  2565.63
                             4385.33  4476.60  4564.31  5206.96  5222.80

 Zero-point correction=                           0.116894 (Hartree/Particle)
 Thermal correction to Energy=                    0.127555
 Thermal correction to Enthalpy=                  0.128499
 Thermal correction to Gibbs Free Energy=         0.078331
 Sum of electronic and zero-point Energies=           -654.697576
 Sum of electronic and thermal Energies=              -654.686915
 Sum of electronic and thermal Enthalpies=            -654.685971
 Sum of electronic and thermal Free Energies=         -654.736139

                     E (Thermal)             CV                S
                      KCal/Mol        Cal/Mol-Kelvin    Cal/Mol-Kelvin
 Total                   80.042             37.178            105.588
 Electronic               0.000              0.000              0.000
 Translational            0.889              2.981             41.318
 Rotational               0.889              2.981             30.654
 Vibrational             78.264             31.216             33.617
 Vibration     1          0.594              1.983              5.665
 Vibration     2          0.595              1.980              5.054
 Vibration     3          0.597              1.972              4.367
 Vibration     4          0.607              1.939              3.223
 Vibration     5          0.611              1.925              2.969
 Vibration     6          0.637              1.842              2.145
 Vibration     7          0.652              1.796              1.882
 Vibration     8          0.703              1.643              1.331
 Vibration     9          0.744              1.530              1.071
 Vibration    10          0.744              1.529              1.071
 Vibration    11          0.827              1.317              0.738
 Vibration    12          0.901              1.149              0.553
 Vibration    13          0.902              1.147              0.551
 Vibration    14          0.977              0.995              0.420

 Optimization completed.
    -- Stationary point found.
 Normal termination of Gaussian 09 at Thu Aug 26 09:50:50 2021.

 -----------------------------------------------------------------
 #P Geom=AllCheck Guess=TCheck SCRF=Check CCSD(T,E4T,FrzG4)/GTBas1
 -----------------------------------------------------------------

 Structure from the checkpoint file:  "/public/home/users/caep010/.cache/gau_scr/Gau-21195.chk"
 ------
 EVIXEM
 ------
 Charge =  0 Multiplicity = 1

 SCF Done:  E(RHF) =  -651.086073417     A.U. after   14 cycles
 E2 =    -0.1873370180D+01 EUMP2 =    -0.65295944359734D+03
 CCSD(T)
 CCSD(T)= -0.65305312346D+03
 CCSD=-652.9742641\CCSD(T)=-653.0531235\RMSD=9.808e-09\PG=C01 [X(C4H5N5
 Normal termination of Gaussian 09 at Thu Aug 26 10:41:22 2021.

 ---------------------------------------------------------
 #P Geom=AllCheck Guess=TCheck SCRF=Check MP4=FrzG4/GTBas2
 ---------------------------------------------------------

 Structure from the checkpoint file:  "/public/home/users/caep010/.cache/gau_scr/Gau-21195.chk"
 ------
 EVIXEM
 ------
 Charge =  0 Multiplicity = 1

 SCF Done:  E(RHF) =  -651.103870168     A.U. after   13 cycles
 E2 =    -0.1898735955D+01 EUMP2 =    -0.65300260612332D+03
 Normal termination of Gaussian 09 at Thu Aug 26 11:02:59 2021.

 ---------------------------------------------------------
 #P Geom=AllCheck Guess=TCheck SCRF=Check MP4=FrzG4/GTBas3
 ---------------------------------------------------------

 Structure from the checkpoint file:  "/public/home/users/caep010/.cache/gau_scr/Gau-21195.chk"
 ------
 EVIXEM
 ------
 Charge =  0 Multiplicity = 1

 SCF Done:  E(RHF) =  -651.154977765     A.U. after   13 cycles
 E2 =    -0.2230255386D+01 EUMP2 =    -0.65338523315135D+03
 Normal termination of Gaussian 09 at Thu Aug 26 13:45:58 2021.

 -----------------------------------------------------------
 #P Geom=AllCheck Guess=TCheck SCRF=Check MP2=Full/GTLargeXP
 -----------------------------------------------------------

 Structure from the checkpoint file:  "/public/home/users/caep010/.cache/gau_scr/Gau-21195.chk"
 ------
 EVIXEM
 ------
 Charge =  0 Multiplicity = 1

 SCF Done:  E(RHF) =  -651.321647404     A.U. after   13 cycles
 E2 =    -0.2904024082D+01 EUMP2 =    -0.65422567148630D+03
 Normal termination of Gaussian 09 at Thu Aug 26 14:00:35 2021.
 SCF Done:  E(RHF) =  -651.372228947     A.U. after    9 cycles
 Normal termination of Gaussian 09 at Thu Aug 26 14:04:51 2021.

                         Standard orientation:
 ---------------------------------------------------------------------
 Center     Atomic      Atomic             Coordinates (Angstroms)
 Number     Number       Type             X           Y           Z
 ---------------------------------------------------------------------
      1          7           0        0.210856    1.126741    0.000034
      2          7           0       -1.127303    1.313503   -0.000009
      3          6           0       -1.556521    0.068439    0.000000
      4          7           0       -2.986784   -0.231906   -0.000030
      5          8           0       -3.751565    0.719293   -0.000113
      6          7           0       -0.619831   -0.908130    0.000045
      7          8           0       -3.295461   -1.412840    0.000031
      8          6           0        0.490710   -0.195870    0.000063
      9          7           0        1.761598   -0.731515    0.000123
     10          1           0        0.883540    1.881308    0.000033
     11          6           0        2.924292    0.017350    0.000056
     12          6           0        4.197554   -0.797651   -0.000156
     13          1           0        4.246208   -1.441634    0.883929
     14          8           0        2.893713    1.233859    0.000050
     15          1           0        1.796559   -1.740168    0.000091
     16          1           0        4.246912   -1.439693   -0.885605
     17          1           0        5.047324   -0.116764    0.000895
 ---------------------------------------------------------------------

 SCF Done:  E(RHF) =  -651.382298129     A.U. after    8 cycles

 The electronic state is 1-A.
 Alpha  occ. eigenvalues --  -20.60436 -20.60216 -20.57896 -15.85857 -15.67950
 Alpha  occ. eigenvalues --  -15.65724 -15.63985 -15.59516 -11.41311 -11.39956
 Alpha  occ. eigenvalues --  -11.36853 -11.27954  -1.61137  -1.46760  -1.44052
 Alpha  occ. eigenvalues --   -1.40489  -1.31161  -1.24264  -1.15954  -1.05573
 Alpha  occ. eigenvalues --   -1.02173  -0.91342  -0.87608  -0.82417  -0.78773
 Alpha  occ. eigenvalues --   -0.75522  -0.74115  -0.73466  -0.71125  -0.70262
 Alpha  occ. eigenvalues --   -0.69422  -0.65311  -0.64777  -0.60473  -0.58038
 Alpha  occ. eigenvalues --   -0.55282  -0.51334  -0.50844  -0.50299  -0.48755
 Alpha  occ. eigenvalues --   -0.48706  -0.45953  -0.45084  -0.38395
 Alpha virt. eigenvalues --    0.01546   0.03561   0.03732   0.04099   0.04890
 Alpha virt. eigenvalues --    0.05791   0.05987   0.06150   0.07009   0.07837
 Alpha virt. eigenvalues --    0.07882   0.08293   0.09033   0.10312   0.10389

 Mulliken charges:
               1
     1  N   -0.217423
     2  N   -0.354246
     3  C    0.378696
     4  N    0.506917
     5  O   -0.380772
     6  N   -0.485026
     7  O   -0.377569
     8  C    0.521172
     9  N   -0.442937
    10  H    0.420934
    11  C    0.578277
    12  C   -0.595822
    13  H    0.216642
    14  O   -0.609065
    15  H    0.391550
    16  H    0.216691
    17  H    0.231980
 Sum of Mulliken charges =  -0.00000

 Dipole moment (field-independent basis, Debye):
    X=              8.5567    Y=             -2.1236    Z=             -0.0002  Tot=              8.8162
 Quadrupole moment (field-independent basis, Debye-Ang):
   XX=            -74.8263   YY=            -72.0807   ZZ=            -66.3670
   XY=            -11.1305   XZ=             -0.0014   YZ=              0.0006

 Normal termination of Gaussian 09 at Thu Aug 26 14:36:58 2021.
