 Gaussian 09, Revision E.01,
 Gaussian 09:  ES64L-G09RevE.01 30-Nov-2015

 ----------------
 #P G4 OPT=calcfc
 ----------------

 ------
 ELOXOS
 ------
 Symbolic Z-matrix:
 Charge =  0 Multiplicity = 1

 SCF Done:  E(RB3LYP) =  -527.989514315     A.U. after   18 cycles
 SCF Done:  E(RB3LYP) =  -528.047055178     A.U. after   13 cycles
 SCF Done:  E(RB3LYP) =  -528.058128170     A.U. after   16 cycles
 SCF Done:  E(RB3LYP) =  -528.058927539     A.U. after   14 cycles
 SCF Done:  E(RB3LYP) =  -528.058955770     A.U. after   12 cycles
 SCF Done:  E(RB3LYP) =  -528.058957421     A.U. after    9 cycles
 Optimization completed.
    -- Stationary point found.
 Normal termination of Gaussian 09 at Thu Aug 26 19:41:30 2021.

 ----------------------------------------------------------
 #P Geom=AllCheck Guess=TCheck SCRF=Check B3LYP/GTBas3 Freq
 ----------------------------------------------------------

 Structure from the checkpoint file:  "/public/home/users/caep010/.cache/gau_scr/Gau-110560.chk"
 ------
 ELOXOS
 ------
 Charge =  0 Multiplicity = 1

 SCF Done:  E(RB3LYP) =  -528.058957421     A.U. after    1 cycles

  Exact polarizability: 122.785   1.594  82.522   0.000   0.000  33.904
 Approx polarizability: 218.938   9.418 160.106   0.001  -0.002  55.319

                      1                      2                      3
                      A                      A                      A
 Frequencies --     82.0497               102.8910               225.7504
 Red. masses --      8.2144                10.4069                 9.0352
 Frc consts  --      0.0326                 0.0649                 0.2713
 IR Inten    --      0.0108                11.8425                 6.5985

                      4                      5                      6
                      A                      A                      A
 Frequencies --    255.2624               364.9257               408.1493
 Red. masses --      7.3466                12.4054                 3.6097
 Frc consts  --      0.2820                 0.9734                 0.3543
 IR Inten    --      0.0040                 0.6196                 1.7621

                      7                      8                      9
                      A                      A                      A
 Frequencies --    448.6228               481.0170               540.6365
 Red. masses --      7.4797                 2.2371                 6.5900
 Frc consts  --      0.8869                 0.3050                 1.1349
 IR Inten    --      9.1720                21.5990                 1.7277

                     10                     11                     12
                      A                      A                      A
 Frequencies --    630.1485               647.4429               721.4756
 Red. masses --      7.4354                 7.9805                 1.9264
 Frc consts  --      1.7396                 1.9710                 0.5908
 IR Inten    --      1.2512                21.9841                39.2376

                     13                     14                     15
                      A                      A                      A
 Frequencies --    755.3171               786.8635               802.9734
 Red. masses --      1.7852                 5.8406                 5.0352
 Frc consts  --      0.6001                 2.1306                 1.9128
 IR Inten    --     13.3606                23.9638                20.8459

                     16                     17                     18
                      A                      A                      A
 Frequencies --    859.5123               861.9990               965.1216
 Red. masses --     11.7250                 1.8607                 1.4328
 Frc consts  --      5.1035                 0.8146                 0.7863
 IR Inten    --     11.7418                34.5581                 1.4550

                     19                     20                     21
                      A                      A                      A
 Frequencies --    994.6301              1020.9182              1114.9012
 Red. masses --      3.2529                 1.3009                 1.5695
 Frc consts  --      1.8960                 0.7989                 1.1494
 IR Inten    --      3.7438                 0.4636                44.5413

                     22                     23                     24
                      A                      A                      A
 Frequencies --   1152.5327              1220.8643              1230.3167
 Red. masses --      2.4118                 1.7002                 1.9248
 Frc consts  --      1.8876                 1.4931                 1.7166
 IR Inten    --     73.6605                 6.3304                83.3718

                     25                     26                     27
                      A                      A                      A
 Frequencies --   1343.7733              1391.3103              1448.5944
 Red. masses --      1.6158                12.6261                 2.1660
 Frc consts  --      1.7190                14.4001                 2.6780
 IR Inten    --      0.5680               471.2851                 0.2511

                     28                     29                     30
                      A                      A                      A
 Frequencies --   1483.2607              1581.8274              1628.5991
 Red. masses --      3.3895                 6.6485                 9.8875
 Frc consts  --      4.3936                 9.8014                15.4513
 IR Inten    --     14.0452                13.2208               150.9667

                     31                     32                     33
                      A                      A                      A
 Frequencies --   1672.6396              1801.0399              3217.9446
 Red. masses --      6.5134                 9.1647                 1.0872
 Frc consts  --     10.7366                17.5153                 6.6333
 IR Inten    --    138.6879               547.8272                 0.5367

                     34                     35                     36
                      A                      A                      A
 Frequencies --   3231.0525              3240.5466              3594.3977
 Red. masses --      1.0962                 1.0936                 1.0779
 Frc consts  --      6.7429                 6.7663                 8.2053
 IR Inten    --      1.7102                 5.1245                81.8039

 - Thermochemistry -
 -------------------
 Temperature   298.150 Kelvin.  Pressure   1.00000 Atm.
 Atom     1 has atomic number  7 and mass  14.00307

 Molecular mass:   140.02219 amu.
 Principal axes and moments of inertia in atomic units:
                           1         2         3
     Eigenvalues --   458.442322127.962432586.40475
           X            1.00000  -0.00076   0.00000
           Y            0.00076   1.00000   0.00001
           Z           -0.00000  -0.00001   1.00000
 This molecule is an asymmetric top.
 Rotational symmetry number  1.
 Warning -- assumption of classical behavior for rotation
           may cause significant error
 Rotational temperatures (Kelvin)      0.18893     0.04070     0.03349
 Rotational constants (GHZ):           3.93668     0.84811     0.69778
 Zero-point vibrational energy     253065.9 (Joules/Mol)
                                   60.48419 (Kcal/Mol)
 Warning -- explicit consideration of   9 degrees of freedom as
           vibrations may cause significant error
 Vibrational temperatures:    118.05   148.04   324.80   367.27   525.05
          (Kelvin)            587.24   645.47   692.08   777.85   906.64
                              931.52  1038.04  1086.73  1132.12  1155.30
                             1236.64  1240.22  1388.59  1431.05  1468.87
                             1604.09  1658.24  1756.55  1770.15  1933.39
                             2001.78  2084.20  2134.08  2275.89  2343.19
                             2406.55  2591.29  4629.90  4648.76  4662.42
                             5171.53

 Zero-point correction=                           0.096388 (Hartree/Particle)
 Thermal correction to Energy=                    0.104053
 Thermal correction to Enthalpy=                  0.104997
 Thermal correction to Gibbs Free Energy=         0.063373
 Sum of electronic and zero-point Energies=           -527.962570
 Sum of electronic and thermal Energies=              -527.954904
 Sum of electronic and thermal Enthalpies=            -527.953960
 Sum of electronic and thermal Free Energies=         -527.995584

                     E (Thermal)             CV                S
                      KCal/Mol        Cal/Mol-Kelvin    Cal/Mol-Kelvin
 Total                   65.294             28.700             87.605
 Electronic               0.000              0.000              0.000
 Translational            0.889              2.981             40.721
 Rotational               0.889              2.981             29.313
 Vibrational             63.517             22.738             17.571
 Vibration     1          0.600              1.961              3.841
 Vibration     2          0.605              1.947              3.399
 Vibration     3          0.650              1.802              1.912
 Vibration     4          0.666              1.754              1.694
 Vibration     5          0.738              1.544              1.101
 Vibration     6          0.773              1.453              0.933
 Vibration     7          0.808              1.364              0.800
 Vibration     8          0.837              1.292              0.707
 Vibration     9          0.896              1.160              0.564

 Optimization completed.
    -- Stationary point found.
 Normal termination of Gaussian 09 at Thu Aug 26 19:42:43 2021.

 -----------------------------------------------------------------
 #P Geom=AllCheck Guess=TCheck SCRF=Check CCSD(T,E4T,FrzG4)/GTBas1
 -----------------------------------------------------------------

 Structure from the checkpoint file:  "/public/home/users/caep010/.cache/gau_scr/Gau-110560.chk"
 ------
 ELOXOS
 ------
 Charge =  0 Multiplicity = 1

 SCF Done:  E(RHF) =  -525.032812492     A.U. after   15 cycles
 E2 =    -0.1502556016D+01 EUMP2 =    -0.52653536850854D+03
 CCSD(T)
 CCSD(T)= -0.52661865139D+03
 \CCSD=-526.5521091\CCSD(T)=-526.6186514\RMSD=7.933e-09\PG=C01 [X(C5H4N
 Normal termination of Gaussian 09 at Thu Aug 26 19:59:03 2021.

 ---------------------------------------------------------
 #P Geom=AllCheck Guess=TCheck SCRF=Check MP4=FrzG4/GTBas2
 ---------------------------------------------------------

 Structure from the checkpoint file:  "/public/home/users/caep010/.cache/gau_scr/Gau-110560.chk"
 ------
 ELOXOS
 ------
 Charge =  0 Multiplicity = 1

 SCF Done:  E(RHF) =  -525.048697903     A.U. after   14 cycles
 E2 =    -0.1522456913D+01 EUMP2 =    -0.52657115481595D+03
 Normal termination of Gaussian 09 at Thu Aug 26 20:05:38 2021.

 ---------------------------------------------------------
 #P Geom=AllCheck Guess=TCheck SCRF=Check MP4=FrzG4/GTBas3
 ---------------------------------------------------------

 Structure from the checkpoint file:  "/public/home/users/caep010/.cache/gau_scr/Gau-110560.chk"
 ------
 ELOXOS
 ------
 Charge =  0 Multiplicity = 1

 SCF Done:  E(RHF) =  -525.085841872     A.U. after   13 cycles
 E2 =    -0.1793097883D+01 EUMP2 =    -0.52687893975540D+03
 Normal termination of Gaussian 09 at Thu Aug 26 20:42:59 2021.

 -----------------------------------------------------------
 #P Geom=AllCheck Guess=TCheck SCRF=Check MP2=Full/GTLargeXP
 -----------------------------------------------------------

 Structure from the checkpoint file:  "/public/home/users/caep010/.cache/gau_scr/Gau-110560.chk"
 ------
 ELOXOS
 ------
 Charge =  0 Multiplicity = 1

 SCF Done:  E(RHF) =  -525.220291440     A.U. after   14 cycles
 E2 =    -0.2347358472D+01 EUMP2 =    -0.52756764991230D+03
 Normal termination of Gaussian 09 at Thu Aug 26 20:50:48 2021.
 SCF Done:  E(RHF) =  -525.261948772     A.U. after   10 cycles
 Normal termination of Gaussian 09 at Thu Aug 26 20:58:52 2021.

                         Standard orientation:
 ---------------------------------------------------------------------
 Center     Atomic      Atomic             Coordinates (Angstroms)
 Number     Number       Type             X           Y           Z
 ---------------------------------------------------------------------
      1          7           0       -1.375089   -1.128856   -0.000057
      2          6           0       -2.182475    0.045483    0.000014
      3          6           0       -0.030469   -1.155786   -0.000048
      4          6           0       -1.400394    1.270277    0.000064
      5          6           0       -0.042564    1.259641    0.000064
      6          1           0        0.536530    2.174464    0.000110
      7          1           0       -1.964794    2.193872    0.000083
      8          1           0        0.471896   -2.113598   -0.000084
      9          6           0        0.660461    0.022077    0.000033
     10          7           0        2.109115   -0.013572   -0.000002
     11          8           0        2.696896    1.062352   -0.000164
     12          8           0        2.656249   -1.113459    0.000143
     13          8           0       -3.391493   -0.063290   -0.000017
     14          1           0       -1.902377   -1.992713   -0.000149
 ---------------------------------------------------------------------

 SCF Done:  E(RHF) =  -525.270093327     A.U. after    8 cycles

 The electronic state is 1-A.
 Alpha  occ. eigenvalues --  -20.61131 -20.60651 -20.54780 -15.86725 -15.66376
 Alpha  occ. eigenvalues --  -11.38974 -11.36351 -11.31571 -11.30497 -11.26980
 Alpha  occ. eigenvalues --   -1.61474  -1.41894  -1.40837  -1.32041  -1.17065
 Alpha  occ. eigenvalues --   -1.09349  -0.98810  -0.92248  -0.87409  -0.81257
 Alpha  occ. eigenvalues --   -0.76587  -0.73412  -0.73214  -0.71818  -0.70442
 Alpha  occ. eigenvalues --   -0.66357  -0.64154  -0.62645  -0.57814  -0.52730
 Alpha  occ. eigenvalues --   -0.51238  -0.50773  -0.47036  -0.46259  -0.46227
 Alpha  occ. eigenvalues --   -0.35387
 Alpha virt. eigenvalues --    0.02314   0.03108   0.03770   0.04711   0.05101
 Alpha virt. eigenvalues --    0.05512   0.06049   0.06307   0.07292   0.07468
 Alpha virt. eigenvalues --    0.07963   0.08502   0.08836   0.09655   0.09655

 Mulliken charges:
               1
     1  N   -0.438822
     2  C    0.444111
     3  C   -0.028880
     4  C   -0.192743
     5  C   -0.133665
     6  H    0.264627
     7  H    0.249896
     8  H    0.278080
     9  C    0.178903
    10  N    0.510823
    11  O   -0.438243
    12  O   -0.451402
    13  O   -0.637340
    14  H    0.394654
 Sum of Mulliken charges =  -0.00000

 Dipole moment (field-independent basis, Debye):
    X=             -1.0532    Y=             -1.4282    Z=             -0.0001  Tot=              1.7746
 Quadrupole moment (field-independent basis, Debye-Ang):
   XX=            -86.3636   YY=            -47.2790   ZZ=            -56.8743
   XY=              2.1967   XZ=              0.0002   YZ=              0.0015

 Normal termination of Gaussian 09 at Thu Aug 26 21:20:40 2021.
