 Gaussian 09, Revision E.01,
 Gaussian 09:  ES64L-G09RevE.01 30-Nov-2015

 ----------------
 #P G4 OPT=calcfc
 ----------------

 --------
 EWEVIM02
 --------
 Symbolic Z-matrix:
 Charge =  0 Multiplicity = 1

 SCF Done:  E(RB3LYP) =  -680.642640023     A.U. after   16 cycles
 SCF Done:  E(RB3LYP) =  -680.718009676     A.U. after   13 cycles
 SCF Done:  E(RB3LYP) =  -680.738795811     A.U. after   15 cycles
 SCF Done:  E(RB3LYP) =  -680.739514395     A.U. after   13 cycles
 SCF Done:  E(RB3LYP) =  -680.739554797     A.U. after   12 cycles
 SCF Done:  E(RB3LYP) =  -680.739556915     A.U. after   11 cycles
 SCF Done:  E(RB3LYP) =  -680.739556982     A.U. after    8 cycles
 Optimization completed.
    -- Stationary point found.
 Normal termination of Gaussian 09 at Thu Aug 26 02:40:23 2021.

 ----------------------------------------------------------
 #P Geom=AllCheck Guess=TCheck SCRF=Check B3LYP/GTBas3 Freq
 ----------------------------------------------------------

 Structure from the checkpoint file:  "/public/home/users/caep010/.cache/gau_scr/Gau-223904.chk"
 --------
 EWEVIM02
 --------
 Charge =  0 Multiplicity = 1

 SCF Done:  E(RB3LYP) =  -680.739556982     A.U. after    1 cycles

  Exact polarizability: 154.924   1.733 121.423  -0.012   0.031  43.691
 Approx polarizability: 236.615  10.742 245.530  -0.092  -0.093  72.692

                      1                      2                      3
                      A                      A                      A
 Frequencies --     35.6342                50.6507                80.2460
 Red. masses --      6.8079                10.1289                 6.8463
 Frc consts  --      0.0051                 0.0153                 0.0260
 IR Inten    --     26.0033                 2.1766                 0.8511

                      4                      5                      6
                      A                      A                      A
 Frequencies --    140.0965               177.9155               223.8980
 Red. masses --      2.3443                 9.1005                 1.8009
 Frc consts  --      0.0271                 0.1697                 0.0532
 IR Inten    --     94.8782                 1.6120                51.6677

                      7                      8                      9
                      A                      A                      A
 Frequencies --    268.7886               277.2246               311.8469
 Red. masses --      6.1146                 6.3271                10.7716
 Frc consts  --      0.2603                 0.2865                 0.6172
 IR Inten    --      0.1531                 1.7448                 0.5381

                     10                     11                     12
                      A                      A                      A
 Frequencies --    383.9389               442.1554               470.2408
 Red. masses --      4.4362                 3.0957                 9.5464
 Frc consts  --      0.3853                 0.3566                 1.2437
 IR Inten    --     10.1922                 5.6128                 4.6216

                     13                     14                     15
                      A                      A                      A
 Frequencies --    508.9687               573.2647               578.3146
 Red. masses --      7.1137                 4.8766                 4.8460
 Frc consts  --      1.0857                 0.9442                 0.9549
 IR Inten    --      9.1943                 4.5756                 0.2140

                     16                     17                     18
                      A                      A                      A
 Frequencies --    584.9921               594.7159               617.6830
 Red. masses --      5.4362                 1.2630                 1.0406
 Frc consts  --      1.0961                 0.2632                 0.2339
 IR Inten    --      2.3520                79.9127                 9.4310

                     19                     20                     21
                      A                      A                      A
 Frequencies --    682.9380               713.8040               754.6370
 Red. masses --      5.5538                 3.7971                 4.2002
 Frc consts  --      1.5262                 1.1399                 1.4093
 IR Inten    --     26.6869                22.4308                31.1110

                     22                     23                     24
                      A                      A                      A
 Frequencies --    764.0524               807.4198               835.0588
 Red. masses --      2.5705                 3.3362                10.9617
 Frc consts  --      0.8841                 1.2814                 4.5036
 IR Inten    --     46.8455                 7.9995                63.2879

                     25                     26                     27
                      A                      A                      A
 Frequencies --    854.4932               911.9292               967.7958
 Red. masses --      2.3068                 1.7414                 1.3188
 Frc consts  --      0.9924                 0.8532                 0.7278
 IR Inten    --      0.4834                15.9401                 0.4333

                     28                     29                     30
                      A                      A                      A
 Frequencies --    969.1870              1059.2117              1100.3518
 Red. masses --      4.9060                 2.2268                 3.2214
 Frc consts  --      2.7152                 1.4720                 2.2981
 IR Inten    --     11.4916                 5.5732               102.4579

                     31                     32                     33
                      A                      A                      A
 Frequencies --   1114.8230              1167.1202              1198.9732
 Red. masses --      1.6800                 1.3767                 1.9678
 Frc consts  --      1.2302                 1.1049                 1.6667
 IR Inten    --     20.0013                31.4982               376.9692

                     34                     35                     36
                      A                      A                      A
 Frequencies --   1303.0191              1321.0764              1367.0237
 Red. masses --      1.3549                 3.2150                 3.6760
 Frc consts  --      1.3554                 3.3058                 4.0474
 IR Inten    --      6.1619                 8.8001               118.4948

                     37                     38                     39
                      A                      A                      A
 Frequencies --   1394.5083              1408.7602              1477.2788
 Red. masses --     10.6117                 4.6144                 3.9185
 Frc consts  --     12.1584                 5.3956                 5.0384
 IR Inten    --    308.4016                12.4078                11.1526

                     40                     41                     42
                      A                      A                      A
 Frequencies --   1513.2428              1591.0112              1616.6761
 Red. masses --      2.4963                 4.1087                 2.0283
 Frc consts  --      3.3680                 6.1278                 3.1235
 IR Inten    --     16.2509                61.6412               193.4657

                     43                     44                     45
                      A                      A                      A
 Frequencies --   1638.8537              1673.2494              1771.0205
 Red. masses --      6.8899                 5.8552                 7.1535
 Frc consts  --     10.9030                 9.6585                13.2195
 IR Inten    --    362.5319                20.2864               292.7507

                     46                     47                     48
                      A                      A                      A
 Frequencies --   3223.6420              3224.8742              3253.1193
 Red. masses --      1.0896                 1.0894                 1.0931
 Frc consts  --      6.6711                 6.6752                 6.8160
 IR Inten    --      3.4821                 0.9983                 3.2714

                     49                     50                     51
                      A                      A                      A
 Frequencies --   3553.8407              3726.6233              3765.9616
 Red. masses --      1.0499                 1.0999                 1.0643
 Frc consts  --      7.8128                 9.0000                 8.8931
 IR Inten    --    132.3591                79.1818                98.7041

 - Thermochemistry -
 -------------------
 Temperature   298.150 Kelvin.  Pressure   1.00000 Atm.
 Atom     1 has atomic number  8 and mass  15.99491

 Molecular mass:   182.03276 amu.
 Principal axes and moments of inertia in atomic units:
                           1         2         3
     Eigenvalues --   921.391443924.660654845.96980
           X            1.00000  -0.00046   0.00008
           Y            0.00045   1.00000   0.00055
           Z           -0.00008  -0.00055   1.00000
 This molecule is an asymmetric top.
 Rotational symmetry number  1.
 Warning -- assumption of classical behavior for rotation
           may cause significant error
 Rotational temperatures (Kelvin)      0.09400     0.02207     0.01787
 Rotational constants (GHZ):           1.95871     0.45985     0.37242
 Zero-point vibrational energy     353174.4 (Joules/Mol)
                                   84.41071 (Kcal/Mol)
 Warning -- explicit consideration of  18 degrees of freedom as
           vibrations may cause significant error
 Vibrational temperatures:     51.27    72.87   115.46   201.57   255.98
          (Kelvin)            322.14   386.73   398.86   448.68   552.40
                              636.16   676.57   732.29   824.80   832.06
                              841.67   855.66   888.71   982.59  1027.00
                             1085.75  1099.30  1161.70  1201.46  1229.42
                             1312.06  1392.44  1394.44  1523.97  1583.16
                             1603.98  1679.22  1725.05  1874.75  1900.73
                             1966.84  2006.38  2026.89  2125.47  2177.22
                             2289.11  2326.03  2357.94  2407.43  2548.10
                             4638.10  4639.87  4680.51  5113.18  5361.77
                             5418.37

 Zero-point correction=                           0.134517 (Hartree/Particle)
 Thermal correction to Energy=                    0.145742
 Thermal correction to Enthalpy=                  0.146687
 Thermal correction to Gibbs Free Energy=         0.096086
 Sum of electronic and zero-point Energies=           -680.605040
 Sum of electronic and thermal Energies=              -680.593815
 Sum of electronic and thermal Enthalpies=            -680.592870
 Sum of electronic and thermal Free Energies=         -680.643471

                     E (Thermal)             CV                S
                      KCal/Mol        Cal/Mol-Kelvin    Cal/Mol-Kelvin
 Total                   91.455             41.761            106.498
 Electronic               0.000              0.000              0.000
 Translational            0.889              2.981             41.504
 Rotational               0.889              2.981             31.239
 Vibrational             89.677             35.800             33.755
 Vibration     1          0.594              1.982              5.488
 Vibration     2          0.595              1.977              4.792
 Vibration     3          0.600              1.963              3.885
 Vibration     4          0.615              1.913              2.803
 Vibration     5          0.628              1.870              2.350
 Vibration     6          0.649              1.805              1.927
 Vibration     7          0.673              1.731              1.604
 Vibration     8          0.678              1.716              1.551
 Vibration     9          0.700              1.651              1.353
 Vibration    10          0.753              1.504              1.024
 Vibration    11          0.802              1.378              0.820
 Vibration    12          0.827              1.316              0.737
 Vibration    13          0.864              1.230              0.636
 Vibration    14          0.930              1.089              0.498
 Vibration    15          0.935              1.078              0.488
 Vibration    16          0.942              1.064              0.476
 Vibration    17          0.952              1.043              0.459
 Vibration    18          0.977              0.995              0.420

 Normal termination of Gaussian 09 at Thu Aug 26 02:43:18 2021.

 -----------------------------------------------------------------
 #P Geom=AllCheck Guess=TCheck SCRF=Check CCSD(T,E4T,FrzG4)/GTBas1
 -----------------------------------------------------------------

 Structure from the checkpoint file:  "/public/home/users/caep010/.cache/gau_scr/Gau-223904.chk"
 --------
 EWEVIM02
 --------
 Charge =  0 Multiplicity = 1

 SCF Done:  E(RHF) =  -676.817890321     A.U. after   15 cycles
 E2 =    -0.1943558851D+01 EUMP2 =    -0.67876144917278D+03
 CCSD(T)
 CCSD(T)= -0.67886709896D+03
 CSD=-678.7834297\CCSD(T)=-678.867099\RMSD=4.351e-09\PG=C01 [X(C7H6N2O4
 Normal termination of Gaussian 09 at Thu Aug 26 03:58:12 2021.

 ---------------------------------------------------------
 #P Geom=AllCheck Guess=TCheck SCRF=Check MP4=FrzG4/GTBas2
 ---------------------------------------------------------

 Structure from the checkpoint file:  "/public/home/users/caep010/.cache/gau_scr/Gau-223904.chk"
 --------
 EWEVIM02
 --------
 Charge =  0 Multiplicity = 1

 SCF Done:  E(RHF) =  -676.837759559     A.U. after   19 cycles
 E2 =    -0.1969926280D+01 EUMP2 =    -0.67880768583914D+03
 Normal termination of Gaussian 09 at Thu Aug 26 04:31:00 2021.

 ---------------------------------------------------------
 #P Geom=AllCheck Guess=TCheck SCRF=Check MP4=FrzG4/GTBas3
 ---------------------------------------------------------

 Structure from the checkpoint file:  "/public/home/users/caep010/.cache/gau_scr/Gau-223904.chk"
 --------
 EWEVIM02
 --------
 Charge =  0 Multiplicity = 1

 SCF Done:  E(RHF) =  -676.891077388     A.U. after   13 cycles
 E2 =    -0.2327603536D+01 EUMP2 =    -0.67921868092466D+03
 Normal termination of Gaussian 09 at Thu Aug 26 08:18:39 2021.

 -----------------------------------------------------------
 #P Geom=AllCheck Guess=TCheck SCRF=Check MP2=Full/GTLargeXP
 -----------------------------------------------------------

 Structure from the checkpoint file:  "/public/home/users/caep010/.cache/gau_scr/Gau-223904.chk"
 --------
 EWEVIM02
 --------
 Charge =  0 Multiplicity = 1

 SCF Done:  E(RHF) =  -677.063064962     A.U. after   15 cycles
 E2 =    -0.3048792531D+01 EUMP2 =    -0.68011185749245D+03
 Normal termination of Gaussian 09 at Thu Aug 26 08:31:36 2021.
 SCF Done:  E(RHF) =  -677.117180761     A.U. after   10 cycles
 Normal termination of Gaussian 09 at Thu Aug 26 08:38:38 2021.

                         Standard orientation:
 ---------------------------------------------------------------------
 Center     Atomic      Atomic             Coordinates (Angstroms)
 Number     Number       Type             X           Y           Z
 ---------------------------------------------------------------------
      1          8           0        3.195384   -1.553310   -0.002372
      2          1           0        4.159648   -1.466693    0.004581
      3          6           0        2.710867   -0.292109    0.003061
      4          8           0        3.465743    0.665270    0.014316
      5          6           0        1.240309   -0.226597   -0.003806
      6          6           0        0.477574   -1.406101   -0.003724
      7          1           0        1.001041   -2.353103   -0.003105
      8          6           0        0.585478    1.040351   -0.005544
      9          6           0       -0.825982    1.051930   -0.002121
     10          1           0       -1.371546    1.986368   -0.001938
     11          7           0        1.269715    2.208927   -0.018942
     12          1           0        2.278183    2.177338    0.017808
     13          1           0        0.777112    3.081984    0.032957
     14          6           0       -1.522572   -0.135832   -0.000786
     15          7           0       -3.001863   -0.074679    0.002606
     16          8           0       -3.526742    1.031008    0.006569
     17          6           0       -0.903698   -1.386391   -0.002539
     18          1           0       -1.498465   -2.287385   -0.001912
     19          8           0       -3.608482   -1.136687    0.001325
 ---------------------------------------------------------------------

 SCF Done:  E(RHF) =  -677.127768892     A.U. after    8 cycles

 The electronic state is 1-A.
 Alpha  occ. eigenvalues --  -20.62760 -20.60871 -20.60731 -20.56532 -15.85955
 Alpha  occ. eigenvalues --  -15.58791 -11.41186 -11.33419 -11.32815 -11.27885
 Alpha  occ. eigenvalues --  -11.27246 -11.26835 -11.25776  -1.61258  -1.48543
 Alpha  occ. eigenvalues --   -1.40660  -1.37898  -1.26649  -1.18696  -1.10389
 Alpha  occ. eigenvalues --   -1.03464  -0.99420  -0.88626  -0.87081  -0.82741
 Alpha  occ. eigenvalues --   -0.78892  -0.75159  -0.73693  -0.73164  -0.72642
 Alpha  occ. eigenvalues --   -0.71538  -0.68652  -0.65663  -0.65016  -0.63287
 Alpha  occ. eigenvalues --   -0.62216  -0.58942  -0.57151  -0.54834  -0.50788
 Alpha  occ. eigenvalues --   -0.50402  -0.50229  -0.48381  -0.47697  -0.46125
 Alpha  occ. eigenvalues --   -0.39089  -0.32255
 Alpha virt. eigenvalues --    0.01670   0.03085   0.03415   0.04266   0.04650
 Alpha virt. eigenvalues --    0.05509   0.05997   0.07024   0.07456   0.07925
 Alpha virt. eigenvalues --    0.08087   0.08247   0.09075   0.09331   0.09649

 Mulliken charges:
               1
     1  O   -0.564901
     2  H    0.427204
     3  C    0.598160
     4  O   -0.658715
     5  C    0.087010
     6  C   -0.183405
     7  H    0.248977
     8  C    0.335610
     9  C   -0.217185
    10  H    0.236813
    11  N   -0.807476
    12  H    0.391760
    13  H    0.335373
    14  C    0.095789
    15  N    0.531004
    16  O   -0.430137
    17  C   -0.271485
    18  H    0.267138
    19  O   -0.421535
 Sum of Mulliken charges =  -0.00000

 Dipole moment (field-independent basis, Debye):
    X=              4.0304    Y=              0.1997    Z=              0.1061  Tot=              4.0367
 Quadrupole moment (field-independent basis, Debye-Ang):
   XX=            -90.6937   YY=            -65.6369   ZZ=            -75.8241
   XY=             -5.3017   XZ=              0.1718   YZ=              0.3374

 Normal termination of Gaussian 09 at Thu Aug 26 09:26:28 2021.
