 Gaussian 09, Revision E.01,
 Gaussian 09:  ES64L-G09RevE.01 30-Nov-2015

 ----------------
 #P G4 OPT=calcfc
 ----------------

 ------
 ERUDAX
 ------
 Symbolic Z-matrix:
 Charge =  0 Multiplicity = 1

 SCF Done:  E(RB3LYP) =  -719.875886741     A.U. after   15 cycles
 SCF Done:  E(RB3LYP) =  -719.987974869     A.U. after   13 cycles
 SCF Done:  E(RB3LYP) =  -720.048448263     A.U. after   13 cycles
 SCF Done:  E(RB3LYP) =  -720.049463359     A.U. after   13 cycles
 SCF Done:  E(RB3LYP) =  -720.049495820     A.U. after   11 cycles
 SCF Done:  E(RB3LYP) =  -720.049501120     A.U. after    9 cycles
 SCF Done:  E(RB3LYP) =  -720.049502286     A.U. after    9 cycles
 SCF Done:  E(RB3LYP) =  -720.049502994     A.U. after    9 cycles
 Optimization completed.
    -- Stationary point found.
 Normal termination of Gaussian 09 at Thu Aug 26 12:42:45 2021.

 ----------------------------------------------------------
 #P Geom=AllCheck Guess=TCheck SCRF=Check B3LYP/GTBas3 Freq
 ----------------------------------------------------------

 Structure from the checkpoint file:  "/public/home/users/caep010/.cache/gau_scr/Gau-118380.chk"
 ------
 ERUDAX
 ------
 Charge =  0 Multiplicity = 1

 SCF Done:  E(RB3LYP) =  -720.049502994     A.U. after    1 cycles

  Exact polarizability: 200.492  -1.029 114.026  -0.002  -0.005  53.551
 Approx polarizability: 275.483  -1.871 227.022  -0.004   0.002  86.360

                      1                      2                      3
                      A                      A                      A
 Frequencies --     39.9319                53.8871                76.3114
 Red. masses --      5.4922                 6.2011                 4.8890
 Frc consts  --      0.0052                 0.0106                 0.0168
 IR Inten    --      0.2150                 1.9637                 0.1131

                      4                      5                      6
                      A                      A                      A
 Frequencies --     96.8256               107.3997               118.4604
 Red. masses --      1.2795                 5.5674                 3.9853
 Frc consts  --      0.0071                 0.0378                 0.0330
 IR Inten    --      2.0081                 0.4159                 3.9135

                      7                      8                      9
                      A                      A                      A
 Frequencies --    173.4380               223.2344               260.6827
 Red. masses --      4.8194                 6.5619                 9.3537
 Frc consts  --      0.0854                 0.1927                 0.3745
 IR Inten    --      1.1263                 3.5408                 2.7392

                     10                     11                     12
                      A                      A                      A
 Frequencies --    315.1141               324.2073               379.2372
 Red. masses --      6.4562                 4.5241                 6.7430
 Frc consts  --      0.3777                 0.2802                 0.5714
 IR Inten    --      1.6538                18.2127                 9.0149

                     13                     14                     15
                      A                      A                      A
 Frequencies --    425.3577               468.6317               518.0185
 Red. masses --      3.2650                 6.9822                 2.9241
 Frc consts  --      0.3481                 0.9035                 0.4623
 IR Inten    --      0.0136                 2.9666                 5.0186

                     16                     17                     18
                      A                      A                      A
 Frequencies --    536.2269               580.1025               636.4694
 Red. masses --      7.4319                 1.1088                 7.1112
 Frc consts  --      1.2591                 0.2198                 1.6973
 IR Inten    --      1.5295                67.2361                 1.2195

                     19                     20                     21
                      A                      A                      A
 Frequencies --    684.2040               713.2128               744.5982
 Red. masses --      6.9861                 3.7710                 5.9246
 Frc consts  --      1.9269                 1.1302                 1.9353
 IR Inten    --      4.0200                12.9921                 6.6728

                     22                     23                     24
                      A                      A                      A
 Frequencies --    771.6974               783.5323               842.4930
 Red. masses --     11.0973                 4.9266                 1.3355
 Frc consts  --      3.8937                 1.7820                 0.5585
 IR Inten    --     15.4080                25.1154                 4.1721

                     25                     26                     27
                      A                      A                      A
 Frequencies --    843.0778               881.5568               887.1843
 Red. masses --      6.5519                 7.8771                 1.6620
 Frc consts  --      2.7438                 3.6067                 0.7708
 IR Inten    --     11.3843                39.6178                25.8244

                     28                     29                     30
                      A                      A                      A
 Frequencies --    966.7039               973.6847              1002.6652
 Red. masses --      1.3180                 6.3768                 1.3351
 Frc consts  --      0.7257                 3.5620                 0.7908
 IR Inten    --      0.7881                 5.9269                 0.1363

                     31                     32                     33
                      A                      A                      A
 Frequencies --   1022.9326              1094.3844              1128.7788
 Red. masses --      2.8623                 5.7832                 2.2300
 Frc consts  --      1.7647                 4.0809                 1.6741
 IR Inten    --      0.0184               102.9219               100.1606

                     34                     35                     36
                      A                      A                      A
 Frequencies --   1136.8650              1182.9484              1203.6609
 Red. masses --      1.3423                 1.2713                 1.3603
 Frc consts  --      1.0222                 1.0482                 1.1612
 IR Inten    --     15.7911                 0.9042                83.4261

                     37                     38                     39
                      A                      A                      A
 Frequencies --   1213.7205              1236.5849              1292.3222
 Red. masses --      1.5614                 2.3275                 3.2084
 Frc consts  --      1.3552                 2.0969                 3.1570
 IR Inten    --    119.7703               607.7056                36.8803

                     40                     41                     42
                      A                      A                      A
 Frequencies --   1323.2362              1368.1125              1389.2928
 Red. masses --      1.4114                 8.1611                10.5799
 Frc consts  --      1.4561                 8.9999                12.0315
 IR Inten    --     49.0941               213.3575               408.6679

                     43                     44                     45
                      A                      A                      A
 Frequencies --   1438.5785              1473.3247              1481.3645
 Red. masses --      2.9813                 1.2148                 1.0464
 Frc consts  --      3.6352                 1.5537                 1.3529
 IR Inten    --     73.1596                 6.7710                 6.6834

                     46                     47                     48
                      A                      A                      A
 Frequencies --   1499.6602              1526.1766              1558.2756
 Red. masses --      1.0677                 2.3127                 2.6580
 Frc consts  --      1.4147                 3.1738                 3.8027
 IR Inten    --     32.9067                 4.1780               641.0121

                     49                     50                     51
                      A                      A                      A
 Frequencies --   1608.6945              1640.6131              1654.6057
 Red. masses --      6.3698                 5.9188                 8.6123
 Frc consts  --      9.7123                 9.3863                13.8918
 IR Inten    --    129.0784               121.3618               142.1415

                     52                     53                     54
                      A                      A                      A
 Frequencies --   1825.2886              3055.1830              3131.7198
 Red. masses --     10.1140                 1.0298                 1.1062
 Frc consts  --     19.8535                 5.6636                 6.3919
 IR Inten    --    216.1350                36.5259                16.5693

                     55                     56                     57
                      A                      A                      A
 Frequencies --   3163.6778              3173.2766              3232.8180
 Red. masses --      1.1059                 1.0896                 1.0898
 Frc consts  --      6.5217                 6.4646                 6.7106
 IR Inten    --     14.0542                10.4287                 1.7231

                     58                     59                     60
                      A                      A                      A
 Frequencies --   3236.9667              3259.1802              3629.4872
 Red. masses --      1.0920                 1.0923                 1.0760
 Frc consts  --      6.7416                 6.8364                 8.3511
 IR Inten    --      1.6930                 5.8727                44.0254

 - Thermochemistry -
 -------------------
 Temperature   298.150 Kelvin.  Pressure   1.00000 Atm.
 Atom     1 has atomic number  6 and mass  12.00000

 Molecular mass:   196.04841 amu.
 Principal axes and moments of inertia in atomic units:
                           1         2         3
     Eigenvalues --   649.066446738.114727375.79731
           X            1.00000   0.00276  -0.00000
           Y           -0.00276   1.00000  -0.00003
           Z            0.00000   0.00003   1.00000
 This molecule is an asymmetric top.
 Rotational symmetry number  1.
 Warning -- assumption of classical behavior for rotation
           may cause significant error
 Rotational temperatures (Kelvin)      0.13344     0.01285     0.01174
 Rotational constants (GHZ):           2.78052     0.26784     0.24468
 Zero-point vibrational energy     428322.2 (Joules/Mol)
                                  102.37146 (Kcal/Mol)
 Warning -- explicit consideration of  17 degrees of freedom as
           vibrations may cause significant error
 Vibrational temperatures:     57.45    77.53   109.79   139.31   154.52
          (Kelvin)            170.44   249.54   321.18   375.06   453.38
                              466.46   545.64   611.99   674.26   745.31
                              771.51   834.64   915.74   984.42  1026.15
                             1071.31  1110.30  1127.33  1212.16  1213.00
                             1268.36  1276.46  1390.87  1400.91  1442.61
                             1471.77  1574.57  1624.06  1635.69  1702.00
                             1731.80  1746.27  1779.17  1859.36  1903.84
                             1968.41  1998.88  2069.79  2119.78  2131.35
                             2157.67  2195.83  2242.01  2314.55  2360.47
                             2380.61  2626.18  4395.72  4505.84  4551.82
                             4565.63  4651.30  4657.27  4689.23  5222.02

 Zero-point correction=                           0.163139 (Hartree/Particle)
 Thermal correction to Energy=                    0.175682
 Thermal correction to Enthalpy=                  0.176626
 Thermal correction to Gibbs Free Energy=         0.122622
 Sum of electronic and zero-point Energies=           -719.886364
 Sum of electronic and thermal Energies=              -719.873821
 Sum of electronic and thermal Enthalpies=            -719.872877
 Sum of electronic and thermal Free Energies=         -719.926881

                     E (Thermal)             CV                S
                      KCal/Mol        Cal/Mol-Kelvin    Cal/Mol-Kelvin
 Total                  110.242             45.341            113.660
 Electronic               0.000              0.000              0.000
 Translational            0.889              2.981             41.725
 Rotational               0.889              2.981             31.845
 Vibrational            108.464             39.379             40.090
 Vibration     1          0.594              1.981              5.262
 Vibration     2          0.596              1.976              4.669
 Vibration     3          0.599              1.965              3.984
 Vibration     4          0.603              1.951              3.517
 Vibration     5          0.606              1.943              3.315
 Vibration     6          0.609              1.934              3.125
 Vibration     7          0.627              1.875              2.398
 Vibration     8          0.649              1.806              1.933
 Vibration     9          0.669              1.745              1.657
 Vibration    10          0.702              1.645              1.335
 Vibration    11          0.709              1.627              1.289
 Vibration    12          0.749              1.514              1.042
 Vibration    13          0.787              1.415              0.874
 Vibration    14          0.826              1.320              0.741
 Vibration    15          0.873              1.210              0.615
 Vibration    16          0.891              1.170              0.573
 Vibration    17          0.937              1.074              0.485

 Optimization completed.
    -- Stationary point found.
 Normal termination of Gaussian 09 at Thu Aug 26 12:46:18 2021.

 -----------------------------------------------------------------
 #P Geom=AllCheck Guess=TCheck SCRF=Check CCSD(T,E4T,FrzG4)/GTBas1
 -----------------------------------------------------------------

 Structure from the checkpoint file:  "/public/home/users/caep010/.cache/gau_scr/Gau-118380.chk"
 ------
 ERUDAX
 ------
 Charge =  0 Multiplicity = 1

 SCF Done:  E(RHF) =  -715.857714289     A.U. after   14 cycles
 E2 =    -0.2062062557D+01 EUMP2 =    -0.71791977684680D+03
 CCSD(T)
 CCSD(T)= -0.71804496524D+03
 CSD=-717.9573152\CCSD(T)=-718.0449652\RMSD=9.482e-09\PG=C01 [X(C8H8N2O
 Normal termination of Gaussian 09 at Thu Aug 26 15:02:24 2021.

 ---------------------------------------------------------
 #P Geom=AllCheck Guess=TCheck SCRF=Check MP4=FrzG4/GTBas2
 ---------------------------------------------------------

 Structure from the checkpoint file:  "/public/home/users/caep010/.cache/gau_scr/Gau-118380.chk"
 ------
 ERUDAX
 ------
 Charge =  0 Multiplicity = 1

 SCF Done:  E(RHF) =  -715.876612115     A.U. after   16 cycles
 E2 =    -0.2089068159D+01 EUMP2 =    -0.71796568027383D+03
 Normal termination of Gaussian 09 at Thu Aug 26 16:12:45 2021.

 ---------------------------------------------------------
 #P Geom=AllCheck Guess=TCheck SCRF=Check MP4=FrzG4/GTBas3
 ---------------------------------------------------------

 Structure from the checkpoint file:  "/public/home/users/caep010/.cache/gau_scr/Gau-118380.chk"
 ------
 ERUDAX
 ------
 Charge =  0 Multiplicity = 1

 SCF Done:  E(RHF) =  -715.930206375     A.U. after   12 cycles
 E2 =    -0.2478180734D+01 EUMP2 =    -0.71840838710852D+03
 Normal termination of Gaussian 09 at Thu Aug 26 23:57:44 2021.

 -----------------------------------------------------------
 #P Geom=AllCheck Guess=TCheck SCRF=Check MP2=Full/GTLargeXP
 -----------------------------------------------------------

 Structure from the checkpoint file:  "/public/home/users/caep010/.cache/gau_scr/Gau-118380.chk"
 ------
 ERUDAX
 ------
 Charge =  0 Multiplicity = 1

 SCF Done:  E(RHF) =  -716.108728784     A.U. after   13 cycles
 E2 =    -0.3249499847D+01 EUMP2 =    -0.71935822863086D+03
 Normal termination of Gaussian 09 at Fri Aug 27 00:13:43 2021.
 SCF Done:  E(RHF) =  -716.165466662     A.U. after    9 cycles
 Normal termination of Gaussian 09 at Fri Aug 27 00:20:53 2021.

                         Standard orientation:
 ---------------------------------------------------------------------
 Center     Atomic      Atomic             Coordinates (Angstroms)
 Number     Number       Type             X           Y           Z
 ---------------------------------------------------------------------
      1          6           0       -5.197841   -0.197356   -0.000011
      2          1           0       -6.012878    0.525992    0.000122
      3          1           0       -5.248041   -0.830000   -0.889411
      4          1           0       -5.248103   -0.830431    0.889069
      5          8           0       -3.994332    0.580298    0.000236
      6          6           0       -2.852802   -0.143530   -0.000095
      7          7           0       -1.788853    0.731049    0.000204
      8          1           0       -2.045706    1.706268    0.000200
      9          6           0       -0.424999    0.437919    0.000106
     10          6           0        0.466686    1.524013   -0.000362
     11          6           0        1.833813    1.315472   -0.000358
     12          6           0        2.316146    0.010226    0.000031
     13          7           0        3.762331   -0.217357   -0.000042
     14          8           0        4.493653    0.767418    0.000479
     15          1           0        2.533241    2.140306   -0.000667
     16          6           0        0.079396   -0.872322    0.000590
     17          1           0        0.078033    2.537898   -0.000698
     18          6           0        1.450655   -1.078336    0.000506
     19          1           0        1.862661   -2.078592    0.000853
     20          8           0       -2.800862   -1.349539   -0.000583
     21          8           0        4.157267   -1.377861   -0.000626
     22          1           0       -0.605692   -1.706336    0.000912
 ---------------------------------------------------------------------

 SCF Done:  E(RHF) =  -716.176629069     A.U. after    7 cycles

 The electronic state is 1-A.
 Alpha  occ. eigenvalues --  -20.62448 -20.59339 -20.59297 -20.55642 -15.84760
 Alpha  occ. eigenvalues --  -15.63121 -11.43338 -11.32940 -11.30302 -11.29953
 Alpha  occ. eigenvalues --  -11.27813 -11.27531 -11.26440 -11.25406  -1.59776
 Alpha  occ. eigenvalues --   -1.49224  -1.39145  -1.38585  -1.29352  -1.19145
 Alpha  occ. eigenvalues --   -1.08834  -1.05487  -1.00134  -0.94763  -0.88457
 Alpha  occ. eigenvalues --   -0.84841  -0.81050  -0.77845  -0.77346  -0.74901
 Alpha  occ. eigenvalues --   -0.72172  -0.71419  -0.70457  -0.68210  -0.65451
 Alpha  occ. eigenvalues --   -0.64908  -0.63021  -0.62001  -0.61209  -0.59417
 Alpha  occ. eigenvalues --   -0.55582  -0.55085  -0.53535  -0.49412  -0.49281
 Alpha  occ. eigenvalues --   -0.48943  -0.48165  -0.48042  -0.45098  -0.37353
 Alpha  occ. eigenvalues --   -0.34466
 Alpha virt. eigenvalues --    0.02453   0.03041   0.03754   0.04357   0.04579
 Alpha virt. eigenvalues --    0.04875   0.05604   0.06329   0.06532   0.07068
 Alpha virt. eigenvalues --    0.07714   0.07823   0.08466   0.08675   0.08794

 Mulliken charges:
               1
     1  C   -0.384403
     2  H    0.199452
     3  H    0.198028
     4  H    0.198012
     5  O   -0.305690
     6  C    0.704958
     7  N   -0.463215
     8  H    0.362064
     9  C    0.337238
    10  C   -0.318033
    11  C   -0.154522
    12  C    0.068291
    13  N    0.518198
    14  O   -0.442971
    15  H    0.264077
    16  C   -0.276575
    17  H    0.183628
    18  C   -0.159048
    19  H    0.268520
    20  O   -0.629432
    21  O   -0.441506
    22  H    0.272930
 Sum of Mulliken charges =  -0.00000

 Dipole moment (field-independent basis, Debye):
    X=             -6.8387    Y=              2.9614    Z=              0.0008  Tot=              7.4524
 Quadrupole moment (field-independent basis, Debye-Ang):
   XX=            -93.3760   YY=            -78.2513   ZZ=            -81.5738
   XY=             -1.5727   XZ=             -0.0012   YZ=             -0.0086

 Normal termination of Gaussian 09 at Fri Aug 27 01:08:02 2021.
