 Gaussian 09, Revision E.01,
 Gaussian 09:  ES64L-G09RevE.01 30-Nov-2015

 ----------------
 #P G4 OPT=calcfc
 ----------------

 --------
 ECIBIB01
 --------
 Symbolic Z-matrix:
 Charge =  0 Multiplicity = 1

 SCF Done:  E(RB3LYP) =  -531.240652375     A.U. after   15 cycles
 SCF Done:  E(RB3LYP) =  -531.354700854     A.U. after   15 cycles
 SCF Done:  E(RB3LYP) =  -531.423777823     A.U. after   15 cycles
 SCF Done:  E(RB3LYP) =  -531.427508367     A.U. after   16 cycles
 SCF Done:  E(RB3LYP) =  -531.414177983     A.U. after   16 cycles
 SCF Done:  E(RB3LYP) =  -531.421893218     A.U. after   12 cycles
 SCF Done:  E(RB3LYP) =  -531.427515404     A.U. after    9 cycles
 SCF Done:  E(RB3LYP) =  -531.429217575     A.U. after   12 cycles
 SCF Done:  E(RB3LYP) =  -531.429434156     A.U. after   13 cycles
 SCF Done:  E(RB3LYP) =  -531.429487284     A.U. after   12 cycles
 SCF Done:  E(RB3LYP) =  -531.430092202     A.U. after   10 cycles
 SCF Done:  E(RB3LYP) =  -531.430092830     A.U. after    9 cycles
 SCF Done:  E(RB3LYP) =  -531.430092997     A.U. after    8 cycles
 Optimization completed.
    -- Stationary point found.
 Normal termination of Gaussian 09 at Fri Aug 27 02:33:58 2021.

 ----------------------------------------------------------
 #P Geom=AllCheck Guess=TCheck SCRF=Check B3LYP/GTBas3 Freq
 ----------------------------------------------------------

 Structure from the checkpoint file:  "/public/home/users/caep010/.cache/gau_scr/Gau-223062.chk"
 --------
 ECIBIB01
 --------
 Charge =  0 Multiplicity = 1

 SCF Done:  E(RB3LYP) =  -531.430092997     A.U. after    1 cycles

  Exact polarizability: 133.856   3.790  95.829   3.386  -9.396  57.926
 Approx polarizability: 209.961   9.234 168.833   6.660 -17.241  96.960

                      1                      2                      3
                      A                      A                      A
 Frequencies --     51.1290                72.9110               120.6452
 Red. masses --      4.5149                 5.6354                 5.2358
 Frc consts  --      0.0070                 0.0177                 0.0449
 IR Inten    --      1.6052                 0.9712                 3.0204

                      4                      5                      6
                      A                      A                      A
 Frequencies --    153.7103               185.3471               282.8338
 Red. masses --      2.4295                 1.4233                 5.1219
 Frc consts  --      0.0338                 0.0288                 0.2414
 IR Inten    --      0.7729                 1.1665                 3.0717

                      7                      8                      9
                      A                      A                      A
 Frequencies --    343.6971               386.3244               417.2680
 Red. masses --      3.4970                 5.1791                 3.4550
 Frc consts  --      0.2434                 0.4554                 0.3544
 IR Inten    --      2.2085                 0.7225                 0.6570

                     10                     11                     12
                      A                      A                      A
 Frequencies --    419.0689               521.0424               626.6834
 Red. masses --      4.3114                 3.7620                 6.1109
 Frc consts  --      0.4461                 0.6018                 1.4140
 IR Inten    --      0.2503                 2.7604                 1.6052

                     13                     14                     15
                      A                      A                      A
 Frequencies --    634.9660               669.8828               713.3986
 Red. masses --      5.6625                 6.4787                 1.8631
 Frc consts  --      1.3451                 1.7129                 0.5587
 IR Inten    --     17.4096                 5.0687                26.1791

                     16                     17                     18
                      A                      A                      A
 Frequencies --    775.2514               789.3648               812.9901
 Red. masses --      8.0833                 2.0576                 5.9446
 Frc consts  --      2.8623                 0.7554                 2.3149
 IR Inten    --      6.2781                31.8097                 2.7829

                     19                     20                     21
                      A                      A                      A
 Frequencies --    854.6313               930.9250               958.6498
 Red. masses --      1.2502                 1.4374                 1.5143
 Frc consts  --      0.5380                 0.7340                 0.8199
 IR Inten    --      0.8309                 1.9440                11.6922

                     22                     23                     24
                      A                      A                      A
 Frequencies --    964.4641               989.9744              1015.8450
 Red. masses --      2.7639                 1.2633                 6.0416
 Frc consts  --      1.5148                 0.7295                 3.6733
 IR Inten    --     52.4855                 0.2858                 0.6355

                     25                     26                     27
                      A                      A                      A
 Frequencies --   1049.9095              1103.5240              1122.9483
 Red. masses --      2.2732                 1.6561                 2.3749
 Frc consts  --      1.4763                 1.1883                 1.7645
 IR Inten    --      9.9287                 5.7509                54.5612

                     28                     29                     30
                      A                      A                      A
 Frequencies --   1143.9786              1183.7539              1192.0991
 Red. masses --      1.3900                 1.1118                 2.2367
 Frc consts  --      1.0718                 0.9179                 1.8727
 IR Inten    --     12.6401                 1.2173                25.0130

                     31                     32                     33
                      A                      A                      A
 Frequencies --   1203.3035              1324.2219              1332.7185
 Red. masses --      1.1542                 6.1626                 2.8422
 Frc consts  --      0.9847                 6.3670                 2.9743
 IR Inten    --      0.8282               314.6061                28.5517

                     34                     35                     36
                      A                      A                      A
 Frequencies --   1348.7196              1357.3379              1456.1333
 Red. masses --      2.5792                 2.8938                 1.2069
 Frc consts  --      2.7642                 3.1412                 1.5077
 IR Inten    --      3.3965                62.1605                47.8200

                     37                     38                     39
                      A                      A                      A
 Frequencies --   1478.1378              1484.4154              1508.7902
 Red. masses --      1.1623                 1.9590                 1.0786
 Frc consts  --      1.4962                 2.5433                 1.4466
 IR Inten    --     12.9444                10.8071                 9.3144

                     40                     41                     42
                      A                      A                      A
 Frequencies --   1529.6521              1625.3674              1639.3689
 Red. masses --      2.2727                 5.9944                 5.8271
 Frc consts  --      3.1332                 9.3304                 9.2270
 IR Inten    --     25.1123                11.5419                 0.8689

                     43                     44                     45
                      A                      A                      A
 Frequencies --   1654.3234              3040.4667              3124.2530
 Red. masses --     12.4347                 1.0431                 1.0914
 Frc consts  --     20.0505                 5.6813                 6.2765
 IR Inten    --    288.8371                22.6758                 9.8409

                     46                     47                     48
                      A                      A                      A
 Frequencies --   3164.1870              3177.4236              3186.5010
 Red. masses --      1.1046                 1.0842                 1.0881
 Frc consts  --      6.5160                 6.4492                 6.5093
 IR Inten    --      6.0044                 0.3802                 6.0414

                     49                     50                     51
                      A                      A                      A
 Frequencies --   3196.1350              3204.7251              3227.2431
 Red. masses --      1.0924                 1.0972                 1.0935
 Frc consts  --      6.5747                 6.6393                 6.7100
 IR Inten    --     19.4263                10.6701                 1.4021

 - Thermochemistry -
 -------------------
 Temperature   298.150 Kelvin.  Pressure   1.00000 Atm.
 Atom     1 has atomic number  6 and mass  12.00000

 Molecular mass:   152.05858 amu.
 Principal axes and moments of inertia in atomic units:
                           1         2         3
     Eigenvalues --   717.859252357.530722808.53613
           X            0.99969   0.02317   0.00893
           Y           -0.02295   0.99945  -0.02390
           Z           -0.00948   0.02369   0.99967
 This molecule is an asymmetric top.
 Rotational symmetry number  1.
 Warning -- assumption of classical behavior for rotation
           may cause significant error
 Rotational temperatures (Kelvin)      0.12066     0.03674     0.03084
 Rotational constants (GHZ):           2.51406     0.76552     0.64259
 Zero-point vibrational energy     387294.8 (Joules/Mol)
                                   92.56569 (Kcal/Mol)
 Warning -- explicit consideration of  11 degrees of freedom as
           vibrations may cause significant error
 Vibrational temperatures:     73.56   104.90   173.58   221.15   266.67
          (Kelvin)            406.93   494.50   555.83   600.35   602.95
                              749.66   901.66   913.57   963.81  1026.42
                             1115.41  1135.72  1169.71  1229.62  1339.39
                             1379.28  1387.65  1424.35  1461.57  1510.58
                             1587.72  1615.67  1645.93  1703.16  1715.16
                             1731.28  1905.26  1917.48  1940.50  1952.90
                             2095.05  2126.71  2135.74  2170.81  2200.83
                             2338.54  2358.68  2380.20  4374.55  4495.10
                             4552.55  4571.60  4584.66  4598.52  4610.88
                             4643.28

 Zero-point correction=                           0.147513 (Hartree/Particle)
 Thermal correction to Energy=                    0.157064
 Thermal correction to Enthalpy=                  0.158008
 Thermal correction to Gibbs Free Energy=         0.111829
 Sum of electronic and zero-point Energies=           -531.282580
 Sum of electronic and thermal Energies=              -531.273029
 Sum of electronic and thermal Enthalpies=            -531.272085
 Sum of electronic and thermal Free Energies=         -531.318264

                     E (Thermal)             CV                S
                      KCal/Mol        Cal/Mol-Kelvin    Cal/Mol-Kelvin
 Total                   98.559             35.465             97.193
 Electronic               0.000              0.000              0.000
 Translational            0.889              2.981             40.967
 Rotational               0.889              2.981             29.942
 Vibrational             96.782             29.503             26.283
 Vibration     1          0.595              1.977              4.773
 Vibration     2          0.599              1.967              4.073
 Vibration     3          0.609              1.932              3.090
 Vibration     4          0.619              1.899              2.626
 Vibration     5          0.631              1.860              2.274
 Vibration     6          0.682              1.705              1.516
 Vibration     7          0.722              1.588              1.195
 Vibration     8          0.755              1.499              1.014
 Vibration     9          0.780              1.433              0.901
 Vibration    10          0.782              1.429              0.895
 Vibration    11          0.876              1.203              0.608

 Normal termination of Gaussian 09 at Fri Aug 27 02:36:00 2021.

 -----------------------------------------------------------------
 #P Geom=AllCheck Guess=TCheck SCRF=Check CCSD(T,E4T,FrzG4)/GTBas1
 -----------------------------------------------------------------

 Structure from the checkpoint file:  "/public/home/users/caep010/.cache/gau_scr/Gau-223062.chk"
 --------
 ECIBIB01
 --------
 Charge =  0 Multiplicity = 1

 SCF Done:  E(RHF) =  -528.202178028     A.U. after   15 cycles
 E2 =    -0.1596420836D+01 EUMP2 =    -0.52979859886378D+03
 CCSD(T)
 CCSD(T)= -0.52990487210D+03
 DQ=-529.8357597\CCSD=-529.8332744\CCSD(T)=-529.9048721\RMSD=5.492e-09\
 Normal termination of Gaussian 09 at Fri Aug 27 03:15:09 2021.

 ---------------------------------------------------------
 #P Geom=AllCheck Guess=TCheck SCRF=Check MP4=FrzG4/GTBas2
 ---------------------------------------------------------

 Structure from the checkpoint file:  "/public/home/users/caep010/.cache/gau_scr/Gau-223062.chk"
 --------
 ECIBIB01
 --------
 Charge =  0 Multiplicity = 1

 SCF Done:  E(RHF) =  -528.216875421     A.U. after   15 cycles
 E2 =    -0.1616428863D+01 EUMP2 =    -0.52983330428309D+03
 Normal termination of Gaussian 09 at Fri Aug 27 03:28:04 2021.

 ---------------------------------------------------------
 #P Geom=AllCheck Guess=TCheck SCRF=Check MP4=FrzG4/GTBas3
 ---------------------------------------------------------

 Structure from the checkpoint file:  "/public/home/users/caep010/.cache/gau_scr/Gau-223062.chk"
 --------
 ECIBIB01
 --------
 Charge =  0 Multiplicity = 1

 SCF Done:  E(RHF) =  -528.256566855     A.U. after   13 cycles
 E2 =    -0.1913536225D+01 EUMP2 =    -0.53017010308034D+03
 Normal termination of Gaussian 09 at Fri Aug 27 05:18:15 2021.

 -----------------------------------------------------------
 #P Geom=AllCheck Guess=TCheck SCRF=Check MP2=Full/GTLargeXP
 -----------------------------------------------------------

 Structure from the checkpoint file:  "/public/home/users/caep010/.cache/gau_scr/Gau-223062.chk"
 --------
 ECIBIB01
 --------
 Charge =  0 Multiplicity = 1

 SCF Done:  E(RHF) =  -528.382581910     A.U. after   14 cycles
 E2 =    -0.2508638742D+01 EUMP2 =    -0.53089122065152D+03
 Normal termination of Gaussian 09 at Fri Aug 27 05:31:37 2021.
 SCF Done:  E(RHF) =  -528.425076505     A.U. after   10 cycles
 Normal termination of Gaussian 09 at Fri Aug 27 05:36:38 2021.

                         Standard orientation:
 ---------------------------------------------------------------------
 Center     Atomic      Atomic             Coordinates (Angstroms)
 Number     Number       Type             X           Y           Z
 ---------------------------------------------------------------------
      1          6           0       -0.344687    0.158569    0.139266
      2          6           0       -0.959763   -0.992834    0.635951
      3          1           0       -0.359041   -1.755319    1.113025
      4          6           0       -2.333822   -1.150914    0.502496
      5          1           0       -2.805231   -2.049129    0.886463
      6          6           0       -3.104874   -0.162211   -0.106858
      7          1           0       -4.177821   -0.288775   -0.201164
      8          6           0       -2.491020    0.988473   -0.591713
      9          7           0        1.056732    0.365596    0.308243
     10          1           0       -3.080332    1.762949   -1.070451
     11          6           0       -1.112636    1.148214   -0.477444
     12          1           0       -0.634327    2.037538   -0.871880
     13          6           0        1.611394    1.666647    0.658892
     14          1           0        2.474519    1.532251    1.310916
     15          1           0        1.931535    2.235190   -0.221431
     16          1           0        0.833909    2.215441    1.189951
     17          7           0        1.954715   -0.541672   -0.241054
     18          8           0        3.129956   -0.195383   -0.243488
     19          8           0        1.513681   -1.603777   -0.652673
 ---------------------------------------------------------------------

 SCF Done:  E(RHF) =  -528.433241421     A.U. after    8 cycles

 The electronic state is 1-A.
 Alpha  occ. eigenvalues --  -20.59339 -20.59224 -15.88243 -15.65360 -11.29900
 Alpha  occ. eigenvalues --  -11.28468 -11.25541 -11.25157 -11.25064 -11.24950
 Alpha  occ. eigenvalues --  -11.24844  -1.62012  -1.40373  -1.30327  -1.16538
 Alpha  occ. eigenvalues --   -1.04038  -1.03646  -1.00527  -0.89687  -0.85154
 Alpha  occ. eigenvalues --   -0.81169  -0.77462  -0.74902  -0.74007  -0.70893
 Alpha  occ. eigenvalues --   -0.66216  -0.64702  -0.62872  -0.61168  -0.60523
 Alpha  occ. eigenvalues --   -0.58578  -0.53776  -0.53219  -0.51892  -0.50510
 Alpha  occ. eigenvalues --   -0.48790  -0.46219  -0.44011  -0.35468  -0.34121
 Alpha virt. eigenvalues --    0.02818   0.03619   0.04065   0.05087   0.05270
 Alpha virt. eigenvalues --    0.05671   0.06859   0.07155   0.07531   0.07944
 Alpha virt. eigenvalues --    0.08011   0.08403   0.08921   0.09605   0.10058

 Mulliken charges:
               1
     1  C    0.222317
     2  C   -0.224655
     3  H    0.215902
     4  C   -0.169425
     5  H    0.210314
     6  C   -0.224359
     7  H    0.205476
     8  C   -0.187717
     9  N    0.005668
    10  H    0.209631
    11  C   -0.262095
    12  H    0.210889
    13  C   -0.558966
    14  H    0.226842
    15  H    0.193581
    16  H    0.226959
    17  N    0.589679
    18  O   -0.450282
    19  O   -0.439759
 Sum of Mulliken charges =  -0.00000

 Dipole moment (field-independent basis, Debye):
    X=             -3.2552    Y=              3.0189    Z=              1.4218  Tot=              4.6617
 Quadrupole moment (field-independent basis, Debye-Ang):
   XX=            -68.3648   YY=            -60.9118   ZZ=            -65.4765
   XY=              6.2382   XZ=              4.0438   YZ=             -4.4118

 Normal termination of Gaussian 09 at Fri Aug 27 06:10:19 2021.
