 Gaussian 09, Revision E.01,
 Gaussian 09:  ES64L-G09RevE.01 30-Nov-2015

 ----------------
 #P G4 OPT=calcfc
 ----------------

 ------
 EKELAH
 ------
 Symbolic Z-matrix:
 Charge =  0 Multiplicity = 1

 SCF Done:  E(RB3LYP) =  -691.704501006     A.U. after   16 cycles
 SCF Done:  E(RB3LYP) =  -691.767030281     A.U. after   14 cycles
 SCF Done:  E(RB3LYP) =  -691.781610205     A.U. after   17 cycles
 SCF Done:  E(RB3LYP) =  -691.781150854     A.U. after   16 cycles
 SCF Done:  E(RB3LYP) =  -691.784290130     A.U. after   12 cycles
 SCF Done:  E(RB3LYP) =  -691.765227621     A.U. after   15 cycles
 SCF Done:  E(RB3LYP) =  -691.784315156     A.U. after    9 cycles
 SCF Done:  E(RB3LYP) =  -691.784591573     A.U. after   15 cycles
 SCF Done:  E(RB3LYP) =  -691.784847290     A.U. after   14 cycles
 SCF Done:  E(RB3LYP) =  -691.785009016     A.U. after   13 cycles
 SCF Done:  E(RB3LYP) =  -691.785033592     A.U. after   10 cycles
 SCF Done:  E(RB3LYP) =  -691.785034018     A.U. after    9 cycles
 SCF Done:  E(RB3LYP) =  -691.785034086     A.U. after    8 cycles
 Optimization completed.
    -- Stationary point found.
 Normal termination of Gaussian 09 at Thu Aug 26 12:39:38 2021.

 ----------------------------------------------------------
 #P Geom=AllCheck Guess=TCheck SCRF=Check B3LYP/GTBas3 Freq
 ----------------------------------------------------------

 Structure from the checkpoint file:  "/public/home/users/caep010/.cache/gau_scr/Gau-150258.chk"
 ------
 EKELAH
 ------
 Charge =  0 Multiplicity = 1

 SCF Done:  E(RB3LYP) =  -691.785034086     A.U. after    1 cycles

  Exact polarizability: 114.531 -10.160  99.501  -1.215  -0.107  47.217
 Approx polarizability: 176.905 -26.646 180.991  -4.946   1.740  76.901

                      1                      2                      3
                      A                      A                      A
 Frequencies --     38.3208                55.5820                98.7775
 Red. masses --     12.5132                12.8038                 6.4593
 Frc consts  --      0.0108                 0.0233                 0.0371
 IR Inten    --      0.0351                 0.7735                 0.2854

                      4                      5                      6
                      A                      A                      A
 Frequencies --    139.7486               165.6232               188.1773
 Red. masses --      4.8734                12.0768                 2.2965
 Frc consts  --      0.0561                 0.1952                 0.0479
 IR Inten    --      1.9214                 3.0336                 3.8968

                      7                      8                      9
                      A                      A                      A
 Frequencies --    249.1091               277.4906               361.2425
 Red. masses --      5.5138                 6.6279                10.3115
 Frc consts  --      0.2016                 0.3007                 0.7928
 IR Inten    --      3.5609                 0.3544                 0.5367

                     10                     11                     12
                      A                      A                      A
 Frequencies --    396.8435               491.1818               599.8194
 Red. masses --      9.8746                 9.4950                 4.6087
 Frc consts  --      0.9162                 1.3497                 0.9770
 IR Inten    --      4.1884                 1.4238                18.5991

                     13                     14                     15
                      A                      A                      A
 Frequencies --    637.0283               713.4208               722.3785
 Red. masses --      1.2685                 3.0104                 6.6993
 Frc consts  --      0.3033                 0.9028                 2.0597
 IR Inten    --     66.8249                 1.8331                20.5429

                     16                     17                     18
                      A                      A                      A
 Frequencies --    751.8334               776.6587               793.7388
 Red. masses --      8.7220                11.7852                12.1987
 Frc consts  --      2.9047                 4.1884                 4.5281
 IR Inten    --      6.5513                19.2998                19.6130

                     19                     20                     21
                      A                      A                      A
 Frequencies --    807.3414               869.3071               905.6917
 Red. masses --     12.0931                 4.2900                 2.0114
 Frc consts  --      4.6441                 1.9101                 0.9721
 IR Inten    --     29.4145                25.8761                11.1028

                     22                     23                     24
                      A                      A                      A
 Frequencies --    948.7255               972.8575              1058.9966
 Red. masses --      7.8818                 2.4841                 1.8802
 Frc consts  --      4.1798                 1.3852                 1.2423
 IR Inten    --    167.4323                 5.4308                38.8682

                     25                     26                     27
                      A                      A                      A
 Frequencies --   1116.3378              1131.0609              1194.9609
 Red. masses --      3.2855                 1.9959                 3.9179
 Frc consts  --      2.4124                 1.5044                 3.2962
 IR Inten    --    153.0348                37.3441                14.6480

                     28                     29                     30
                      A                      A                      A
 Frequencies --   1227.4861              1241.8772              1281.2482
 Red. masses --      1.2558                 1.7895                 2.2141
 Frc consts  --      1.1148                 1.6260                 2.1414
 IR Inten    --     35.3326                80.7167               140.7633

                     31                     32                     33
                      A                      A                      A
 Frequencies --   1300.0136              1322.6469              1345.0968
 Red. masses --      3.3440                 4.0767                 1.9915
 Frc consts  --      3.3298                 4.2020                 2.1229
 IR Inten    --    410.3841               127.0393               228.0524

                     34                     35                     36
                      A                      A                      A
 Frequencies --   1403.0750              1443.1132              1519.2889
 Red. masses --      2.0231                 2.7329                 1.1383
 Frc consts  --      2.3466                 3.3533                 1.5481
 IR Inten    --     22.3982                45.6834                17.2844

                     37                     38                     39
                      A                      A                      A
 Frequencies --   1527.6634              1638.8874              1660.3882
 Red. masses --      1.1028                12.3336                 7.3312
 Frc consts  --      1.5164                19.5181                11.9081
 IR Inten    --     16.5747               534.0654                21.2753

                     40                     41                     42
                      A                      A                      A
 Frequencies --   1716.1439              3032.8992              3068.7755
 Red. masses --     11.0087                 1.0686                 1.0671
 Frc consts  --     19.1026                 5.7913                 5.9207
 IR Inten    --    622.1012                38.6558                 8.7222

                     43                     44                     45
                      A                      A                      A
 Frequencies --   3109.1888              3151.0145              3562.9469
 Red. masses --      1.0969                 1.1008                 1.0784
 Frc consts  --      6.2475                 6.4398                 8.0656
 IR Inten    --     15.8152                 5.0620               176.0536

 - Thermochemistry -
 -------------------
 Temperature   298.150 Kelvin.  Pressure   1.00000 Atm.
 Atom     1 has atomic number  7 and mass  14.00307

 Molecular mass:   175.03415 amu.
 Principal axes and moments of inertia in atomic units:
                           1         2         3
     Eigenvalues --  1130.187372484.692873565.76434
           X            0.99968  -0.02546  -0.00081
           Y            0.02546   0.99967  -0.00157
           Z            0.00085   0.00155   1.00000
 This molecule is an asymmetric top.
 Rotational symmetry number  1.
 Warning -- assumption of classical behavior for rotation
           may cause significant error
 Rotational temperatures (Kelvin)      0.07664     0.03486     0.02429
 Rotational constants (GHZ):           1.59685     0.72634     0.50613
 Zero-point vibrational energy     305131.5 (Joules/Mol)
                                   72.92818 (Kcal/Mol)
 Warning -- explicit consideration of  12 degrees of freedom as
           vibrations may cause significant error
 Vibrational temperatures:     55.13    79.97   142.12   201.07   238.29
          (Kelvin)            270.74   358.41   399.25   519.75   570.97
                              706.70   863.01   916.54  1026.45  1039.34
                             1081.72  1117.44  1142.01  1161.58  1250.74
                             1303.09  1365.00  1399.72  1523.66  1606.16
                             1627.34  1719.28  1766.08  1786.78  1843.43
                             1870.43  1902.99  1935.29  2018.71  2076.32
                             2185.92  2197.96  2357.99  2388.93  2469.15
                             4363.66  4415.28  4473.42  4533.60  5126.28

 Zero-point correction=                           0.116218 (Hartree/Particle)
 Thermal correction to Energy=                    0.126397
 Thermal correction to Enthalpy=                  0.127342
 Thermal correction to Gibbs Free Energy=         0.078694
 Sum of electronic and zero-point Energies=           -691.668816
 Sum of electronic and thermal Energies=              -691.658637
 Sum of electronic and thermal Enthalpies=            -691.657692
 Sum of electronic and thermal Free Energies=         -691.706340

                     E (Thermal)             CV                S
                      KCal/Mol        Cal/Mol-Kelvin    Cal/Mol-Kelvin
 Total                   79.316             35.922            102.388
 Electronic               0.000              0.000              0.000
 Translational            0.889              2.981             41.387
 Rotational               0.889              2.981             30.683
 Vibrational             77.538             29.960             30.318
 Vibration     1          0.594              1.982              5.344
 Vibration     2          0.596              1.975              4.608
 Vibration     3          0.604              1.950              3.478
 Vibration     4          0.615              1.914              2.807
 Vibration     5          0.624              1.885              2.485
 Vibration     6          0.633              1.856              2.246
 Vibration     7          0.662              1.764              1.737
 Vibration     8          0.678              1.715              1.549
 Vibration     9          0.735              1.552              1.117
 Vibration    10          0.763              1.477              0.974
 Vibration    11          0.847              1.270              0.681
 Vibration    12          0.958              1.032              0.450

 Optimization completed.
    -- Stationary point found.
 Normal termination of Gaussian 09 at Thu Aug 26 12:41:47 2021.

 -----------------------------------------------------------------
 #P Geom=AllCheck Guess=TCheck SCRF=Check CCSD(T,E4T,FrzG4)/GTBas1
 -----------------------------------------------------------------

 Structure from the checkpoint file:  "/public/home/users/caep010/.cache/gau_scr/Gau-150258.chk"
 ------
 EKELAH
 ------
 Charge =  0 Multiplicity = 1

 SCF Done:  E(RHF) =  -687.893783640     A.U. after   16 cycles
 E2 =    -0.1950603716D+01 EUMP2 =    -0.68984438735657D+03
 CCSD(T)
 CCSD(T)= -0.68993692468D+03
 CCSD=-689.8538104\CCSD(T)=-689.9369247\RMSD=5.597e-09\PG=C01 [X(C3H5N5
 Normal termination of Gaussian 09 at Thu Aug 26 13:45:11 2021.

 ---------------------------------------------------------
 #P Geom=AllCheck Guess=TCheck SCRF=Check MP4=FrzG4/GTBas2
 ---------------------------------------------------------

 Structure from the checkpoint file:  "/public/home/users/caep010/.cache/gau_scr/Gau-150258.chk"
 ------
 EKELAH
 ------
 Charge =  0 Multiplicity = 1

 SCF Done:  E(RHF) =  -687.913458759     A.U. after   14 cycles
 E2 =    -0.1977198320D+01 EUMP2 =    -0.68989065707823D+03
 Normal termination of Gaussian 09 at Thu Aug 26 14:08:53 2021.

 ---------------------------------------------------------
 #P Geom=AllCheck Guess=TCheck SCRF=Check MP4=FrzG4/GTBas3
 ---------------------------------------------------------

 Structure from the checkpoint file:  "/public/home/users/caep010/.cache/gau_scr/Gau-150258.chk"
 ------
 EKELAH
 ------
 Charge =  0 Multiplicity = 1

 SCF Done:  E(RHF) =  -687.969326810     A.U. after   13 cycles
 E2 =    -0.2330261097D+01 EUMP2 =    -0.69029958790729D+03
 Normal termination of Gaussian 09 at Thu Aug 26 17:20:05 2021.

 -----------------------------------------------------------
 #P Geom=AllCheck Guess=TCheck SCRF=Check MP2=Full/GTLargeXP
 -----------------------------------------------------------

 Structure from the checkpoint file:  "/public/home/users/caep010/.cache/gau_scr/Gau-150258.chk"
 ------
 EKELAH
 ------
 Charge =  0 Multiplicity = 1

 SCF Done:  E(RHF) =  -688.147973450     A.U. after   13 cycles
 E2 =    -0.3016239474D+01 EUMP2 =    -0.69116421292415D+03
 Normal termination of Gaussian 09 at Thu Aug 26 17:35:14 2021.
 SCF Done:  E(RHF) =  -688.203819043     A.U. after   10 cycles
 Normal termination of Gaussian 09 at Thu Aug 26 17:40:15 2021.

                         Standard orientation:
 ---------------------------------------------------------------------
 Center     Atomic      Atomic             Coordinates (Angstroms)
 Number     Number       Type             X           Y           Z
 ---------------------------------------------------------------------
      1          7           0        2.422177   -0.400531    0.033846
      2          7           0        1.064174   -0.718458   -0.079347
      3          6           0        0.226550    0.280480   -0.061377
      4          7           0        0.402575    1.606589    0.095956
      5          6           0       -0.817067    2.373611   -0.108108
      6          1           0       -0.856397    2.793018   -1.120821
      7          7           0       -1.158573    0.079089   -0.211935
      8          1           0        1.354238    1.944559    0.023264
      9          7           0       -1.828533   -1.153565   -0.024658
     10          1           0       -0.898724    3.190627    0.611458
     11          6           0       -1.902741    1.306049    0.101257
     12          1           0       -2.264531    1.275458    1.133343
     13          1           0       -2.756005    1.417585   -0.565609
     14          8           0        2.823916    0.775367   -0.006264
     15          8           0        3.153935   -1.358739    0.149589
     16          8           0       -1.215145   -2.171773   -0.222944
     17          8           0       -3.004178   -1.029100    0.283457
 ---------------------------------------------------------------------

 SCF Done:  E(RHF) =  -688.214859701     A.U. after    8 cycles

 The electronic state is 1-A.
 Alpha  occ. eigenvalues --  -20.63275 -20.62674 -20.60365 -20.59426 -15.92012
 Alpha  occ. eigenvalues --  -15.87918 -15.70035 -15.63888 -15.61572 -11.43650
 Alpha  occ. eigenvalues --  -11.33108 -11.32964  -1.65971  -1.61774  -1.44596
 Alpha  occ. eigenvalues --   -1.41391  -1.39608  -1.27860  -1.26332  -1.08578
 Alpha  occ. eigenvalues --   -1.02072  -0.94504  -0.91248  -0.84813  -0.80493
 Alpha  occ. eigenvalues --   -0.79220  -0.76807  -0.76103  -0.73797  -0.73289
 Alpha  occ. eigenvalues --   -0.72466  -0.70602  -0.66430  -0.61537  -0.60266
 Alpha  occ. eigenvalues --   -0.59488  -0.55557  -0.54360  -0.52110  -0.50110
 Alpha  occ. eigenvalues --   -0.48918  -0.46951  -0.46611  -0.45766  -0.42370
 Alpha virt. eigenvalues --    0.01624   0.03060   0.03206   0.04557   0.05228
 Alpha virt. eigenvalues --    0.05988   0.06237   0.06632   0.06787   0.07213
 Alpha virt. eigenvalues --    0.08879   0.09384   0.10041   0.10811   0.11035

 Mulliken charges:
               1
     1  N    0.548315
     2  N   -0.360305
     3  C    0.451362
     4  N   -0.407511
     5  C   -0.228895
     6  H    0.189102
     7  N    0.029323
     8  H    0.413377
     9  N    0.559176
    10  H    0.210704
    11  C   -0.248473
    12  H    0.207907
    13  H    0.224025
    14  O   -0.472572
    15  O   -0.359866
    16  O   -0.332450
    17  O   -0.423219
 Sum of Mulliken charges =  -0.00000

 Dipole moment (field-independent basis, Debye):
    X=             -4.1371    Y=              7.2020    Z=             -0.2433  Tot=              8.3093
 Quadrupole moment (field-independent basis, Debye-Ang):
   XX=            -85.6264   YY=            -66.9751   ZZ=            -65.3594
   XY=             -4.7014   XZ=              0.2999   YZ=             -0.3708

 Normal termination of Gaussian 09 at Thu Aug 26 18:14:25 2021.
