 Gaussian 09, Revision E.01,
 Gaussian 09:  ES64L-G09RevE.01 30-Nov-2015

 ----------------
 #P G4 OPT=calcfc
 ----------------

 ------
 FOHMUK
 ------
 Symbolic Z-matrix:
 Charge =  0 Multiplicity = 1

 SCF Done:  E(RB3LYP) =  -526.775800557     A.U. after   15 cycles
 SCF Done:  E(RB3LYP) =  -526.888823335     A.U. after   13 cycles
 SCF Done:  E(RB3LYP) =  -526.924470294     A.U. after   14 cycles
 SCF Done:  E(RB3LYP) =  -526.931997591     A.U. after   13 cycles
 SCF Done:  E(RB3LYP) =  -526.932546210     A.U. after   12 cycles
 SCF Done:  E(RB3LYP) =  -526.932651863     A.U. after   10 cycles
 SCF Done:  E(RB3LYP) =  -526.932681474     A.U. after    9 cycles
 SCF Done:  E(RB3LYP) =  -526.932685040     A.U. after    9 cycles
 Optimization completed.
    -- Stationary point found.
 Normal termination of Gaussian 09 at Thu Aug 26 19:50:57 2021.

 ----------------------------------------------------------
 #P Geom=AllCheck Guess=TCheck SCRF=Check B3LYP/GTBas3 Freq
 ----------------------------------------------------------

 Structure from the checkpoint file:  "/public/home/users/caep010/.cache/gau_scr/Gau-135483.chk"
 ------
 FOHMUK
 ------
 Charge =  0 Multiplicity = 1

 SCF Done:  E(RB3LYP) =  -526.932685040     A.U. after    1 cycles

  Exact polarizability:  71.337  -2.497  59.084  -0.002   0.000  50.219
 Approx polarizability:  98.081 -11.077 128.108  -0.004   0.002  83.824

                      1                      2                      3
                      A                      A                      A
 Frequencies --     58.4146                83.8528               145.8117
 Red. masses --     15.8058                 7.1802                 8.7621
 Frc consts  --      0.0318                 0.0297                 0.1098
 IR Inten    --      0.1482                 2.0875                10.2582

                      4                      5                      6
                      A                      A                      A
 Frequencies --    197.3751               263.7507               360.0438
 Red. masses --      4.5668                 8.4386                 3.0491
 Frc consts  --      0.1048                 0.3459                 0.2329
 IR Inten    --      7.7741                 1.8409                 0.3178

                      7                      8                      9
                      A                      A                      A
 Frequencies --    445.2280               513.7645               661.9665
 Red. masses --     10.0177                 5.8871                 4.7740
 Frc consts  --      1.1700                 0.9156                 1.2326
 IR Inten    --      4.7784                15.5569                18.5438

                     10                     11                     12
                      A                      A                      A
 Frequencies --    682.0440               742.9483               753.4139
 Red. masses --      2.9899                 3.0763                 7.3620
 Frc consts  --      0.8195                 1.0005                 2.4622
 IR Inten    --      1.3730                 0.5504                 3.3696

                     13                     14                     15
                      A                      A                      A
 Frequencies --    854.5891               897.0397               944.3153
 Red. masses --      2.9195                 3.3959                 6.1446
 Frc consts  --      1.2563                 1.6100                 3.2284
 IR Inten    --     22.4918                11.3299                 2.8457

                     16                     17                     18
                      A                      A                      A
 Frequencies --    969.0709               993.8705              1072.6024
 Red. masses --      5.7603                 2.5142                 1.5946
 Frc consts  --      3.1872                 1.4632                 1.0809
 IR Inten    --     74.9112                 5.0515                 0.0292

                     19                     20                     21
                      A                      A                      A
 Frequencies --   1089.0917              1106.2204              1133.3817
 Red. masses --      1.2802                 1.1128                 1.4381
 Frc consts  --      0.8946                 0.8023                 1.0884
 IR Inten    --      6.7374                 4.4292                 1.6958

                     22                     23                     24
                      A                      A                      A
 Frequencies --   1215.6132              1257.9267              1372.5731
 Red. masses --      1.6478                 1.3042                 1.7667
 Frc consts  --      1.4347                 1.2160                 1.9611
 IR Inten    --      2.3481                 8.6627                 0.0527

                     25                     26                     27
                      A                      A                      A
 Frequencies --   1411.4931              1411.8590              1450.9334
 Red. masses --      4.5530                13.4524                 1.9924
 Frc consts  --      5.3445                15.7991                 2.4713
 IR Inten    --      8.5066               277.8178                33.8624

                     28                     29                     30
                      A                      A                      A
 Frequencies --   1656.9089              1663.0118              3159.3923
 Red. masses --     12.5044                10.8172                 1.0527
 Frc consts  --     20.2261                17.6261                 6.1909
 IR Inten    --    393.8394                84.8264                 0.2169

                     31                     32                     33
                      A                      A                      A
 Frequencies --   3251.4268              3253.7345              3265.4917
 Red. masses --      1.0920                 1.0943                 1.1163
 Frc consts  --      6.8016                 6.8257                 7.0134
 IR Inten    --      5.5871                 1.8760                 6.4973

 - Thermochemistry -
 -------------------
 Temperature   298.150 Kelvin.  Pressure   1.00000 Atm.
 Atom     1 has atomic number  6 and mass  12.00000

 Molecular mass:   132.01711 amu.
 Principal axes and moments of inertia in atomic units:
                           1         2         3
     Eigenvalues --   479.169931905.170871951.06943
           X            1.00000  -0.00049   0.00000
           Y            0.00049   1.00000  -0.00003
           Z           -0.00000   0.00003   1.00000
 This molecule is an asymmetric top.
 Rotational symmetry number  1.
 Warning -- assumption of classical behavior for rotation
           may cause significant error
 Rotational temperatures (Kelvin)      0.18076     0.04546     0.04439
 Rotational constants (GHZ):           3.76639     0.94729     0.92500
 Zero-point vibrational energy     229319.1 (Joules/Mol)
                                   54.80858 (Kcal/Mol)
 Warning -- explicit consideration of   8 degrees of freedom as
           vibrations may cause significant error
 Vibrational temperatures:     84.05   120.65   209.79   283.98   379.48
          (Kelvin)            518.02   640.58   739.19   952.42   981.31
                             1068.94  1083.99  1229.56  1290.64  1358.66
                             1394.28  1429.96  1543.23  1566.96  1591.60
                             1630.68  1748.99  1809.87  1974.82  2030.82
                             2031.35  2087.57  2383.92  2392.70  4545.66
                             4678.07  4681.39  4698.31

 Zero-point correction=                           0.087343 (Hartree/Particle)
 Thermal correction to Energy=                    0.095119
 Thermal correction to Enthalpy=                  0.096063
 Thermal correction to Gibbs Free Energy=         0.053720
 Sum of electronic and zero-point Energies=           -526.845342
 Sum of electronic and thermal Energies=              -526.837566
 Sum of electronic and thermal Enthalpies=            -526.836622
 Sum of electronic and thermal Free Energies=         -526.878965

                     E (Thermal)             CV                S
                      KCal/Mol        Cal/Mol-Kelvin    Cal/Mol-Kelvin
 Total                   59.688             27.066             89.119
 Electronic               0.000              0.000              0.000
 Translational            0.889              2.981             40.546
 Rotational               0.889              2.981             28.967
 Vibrational             57.910             21.105             19.606
 Vibration     1          0.596              1.974              4.510
 Vibration     2          0.601              1.960              3.799
 Vibration     3          0.617              1.907              2.726
 Vibration     4          0.637              1.844              2.157
 Vibration     5          0.670              1.739              1.637
 Vibration     6          0.735              1.555              1.122
 Vibration     7          0.805              1.371              0.810
 Vibration     8          0.869              1.220              0.625

 Optimization completed.
    -- Stationary point found.
 Normal termination of Gaussian 09 at Thu Aug 26 19:51:53 2021.

 -----------------------------------------------------------------
 #P Geom=AllCheck Guess=TCheck SCRF=Check CCSD(T,E4T,FrzG4)/GTBas1
 -----------------------------------------------------------------

 Structure from the checkpoint file:  "/public/home/users/caep010/.cache/gau_scr/Gau-135483.chk"
 ------
 FOHMUK
 ------
 Charge =  0 Multiplicity = 1

 SCF Done:  E(RHF) =  -523.991671497     A.U. after   14 cycles
 E2 =    -0.1470791417D+01 EUMP2 =    -0.52546246291369D+03
 CCSD(T)
 CCSD(T)= -0.52552891020D+03
 \MP4SDQ=-525.474168\CCSD=-525.466708\CCSD(T)=-525.5289102\RMSD=5.887e-
 Normal termination of Gaussian 09 at Thu Aug 26 20:03:20 2021.

 ---------------------------------------------------------
 #P Geom=AllCheck Guess=TCheck SCRF=Check MP4=FrzG4/GTBas2
 ---------------------------------------------------------

 Structure from the checkpoint file:  "/public/home/users/caep010/.cache/gau_scr/Gau-135483.chk"
 ------
 FOHMUK
 ------
 Charge =  0 Multiplicity = 1

 SCF Done:  E(RHF) =  -524.007840961     A.U. after   13 cycles
 E2 =    -0.1492214904D+01 EUMP2 =    -0.52550005586520D+03
 Normal termination of Gaussian 09 at Thu Aug 26 20:06:57 2021.

 ---------------------------------------------------------
 #P Geom=AllCheck Guess=TCheck SCRF=Check MP4=FrzG4/GTBas3
 ---------------------------------------------------------

 Structure from the checkpoint file:  "/public/home/users/caep010/.cache/gau_scr/Gau-135483.chk"
 ------
 FOHMUK
 ------
 Charge =  0 Multiplicity = 1

 SCF Done:  E(RHF) =  -524.046840679     A.U. after   13 cycles
 E2 =    -0.1763243191D+01 EUMP2 =    -0.52581008386995D+03
 Normal termination of Gaussian 09 at Thu Aug 26 20:29:54 2021.

 -----------------------------------------------------------
 #P Geom=AllCheck Guess=TCheck SCRF=Check MP2=Full/GTLargeXP
 -----------------------------------------------------------

 Structure from the checkpoint file:  "/public/home/users/caep010/.cache/gau_scr/Gau-135483.chk"
 ------
 FOHMUK
 ------
 Charge =  0 Multiplicity = 1

 SCF Done:  E(RHF) =  -524.186405808     A.U. after   13 cycles
 E2 =    -0.2281800950D+01 EUMP2 =    -0.52646820675745D+03
 Normal termination of Gaussian 09 at Thu Aug 26 20:36:10 2021.
 SCF Done:  E(RHF) =  -524.229359864     A.U. after   10 cycles
 Normal termination of Gaussian 09 at Thu Aug 26 20:41:25 2021.

                         Standard orientation:
 ---------------------------------------------------------------------
 Center     Atomic      Atomic             Coordinates (Angstroms)
 Number     Number       Type             X           Y           Z
 ---------------------------------------------------------------------
      1          6           0       -0.552934    0.514086    0.206822
      2          6           0       -0.000054    0.000082    1.500535
      3          1           0       -0.613405   -0.696165    2.059285
      4          1           0        0.613532    0.695971    2.059015
      5          6           0        0.552890   -0.514308    0.206962
      6          1           0        0.347622   -1.520214   -0.126226
      7          7           0       -1.882968    0.037991   -0.222309
      8          8           0       -2.567501    0.834776   -0.840205
      9          8           0       -2.196377   -1.107081    0.075211
     10          1           0       -0.347283    1.519780   -0.126082
     11          7           0        1.883014   -0.037966   -0.222255
     12          8           0        2.196326    1.107117    0.075283
     13          8           0        2.567528   -0.834650   -0.840284
 ---------------------------------------------------------------------

 SCF Done:  E(RHF) =  -524.238034620     A.U. after    7 cycles

 The electronic state is 1-A.
 Alpha  occ. eigenvalues --  -20.63161 -20.63160 -20.62563 -20.62563 -15.87919
 Alpha  occ. eigenvalues --  -15.87918 -11.35470 -11.35402 -11.31083  -1.63521
 Alpha  occ. eigenvalues --   -1.63333  -1.43029  -1.42997  -1.25794  -1.07932
 Alpha  occ. eigenvalues --   -1.01028  -0.86962  -0.85226  -0.81189  -0.79691
 Alpha  occ. eigenvalues --   -0.75801  -0.75224  -0.74239  -0.74048  -0.67336
 Alpha  occ. eigenvalues --   -0.63273  -0.56320  -0.53651  -0.52875  -0.51931
 Alpha  occ. eigenvalues --   -0.50302  -0.49897  -0.48118  -0.48059
 Alpha virt. eigenvalues --    0.02495   0.03487   0.04171   0.04221   0.05468
 Alpha virt. eigenvalues --    0.06440   0.06831   0.07247   0.07751   0.08180
 Alpha virt. eigenvalues --    0.08822   0.10070   0.11362   0.11439   0.11899

 Mulliken charges:
               1
     1  C   -0.055448
     2  C   -0.352326
     3  H    0.245993
     4  H    0.246007
     5  C   -0.055572
     6  H    0.285867
     7  N    0.529399
     8  O   -0.399869
     9  O   -0.429762
    10  H    0.285879
    11  N    0.529454
    12  O   -0.429771
    13  O   -0.399852
 Sum of Mulliken charges =  -0.00000

 Dipole moment (field-independent basis, Debye):
    X=              0.0001    Y=             -0.0005    Z=              2.8285  Tot=              2.8285
 Quadrupole moment (field-independent basis, Debye-Ang):
   XX=            -70.7642   YY=            -53.0603   ZZ=            -47.8699
   XY=             -1.9223   XZ=              0.0007   YZ=             -0.0001

 CCSD(T)/G3Bas1=-525.5289102\MP2/GTBas2=-525.5000559\MP4/GTBas2=-525.58
 Normal termination of Gaussian 09 at Thu Aug 26 20:55:07 2021.
