 Gaussian 09, Revision E.01,
 Gaussian 09:  ES64L-G09RevE.01 30-Nov-2015

 ----------------
 #P G4 OPT=calcfc
 ----------------

 ------
 FUXNAN
 ------
 Symbolic Z-matrix:
 Charge =  0 Multiplicity = 1

 SCF Done:  E(RB3LYP) =  -531.332933903     A.U. after   15 cycles
 SCF Done:  E(RB3LYP) =  -531.418922348     A.U. after   14 cycles
 SCF Done:  E(RB3LYP) =  -531.456470027     A.U. after   14 cycles
 SCF Done:  E(RB3LYP) =  -531.457983387     A.U. after   13 cycles
 SCF Done:  E(RB3LYP) =  -531.458042319     A.U. after   11 cycles
 SCF Done:  E(RB3LYP) =  -531.458050307     A.U. after    9 cycles
 SCF Done:  E(RB3LYP) =  -531.458052022     A.U. after    8 cycles
 SCF Done:  E(RB3LYP) =  -531.458052242     A.U. after    8 cycles
 SCF Done:  E(RB3LYP) =  -531.458052371     A.U. after    8 cycles
 SCF Done:  E(RB3LYP) =  -531.458051988     A.U. after    8 cycles
 SCF Done:  E(RB3LYP) =  -531.458058499     A.U. after    9 cycles
 SCF Done:  E(RB3LYP) =  -531.458059472     A.U. after    9 cycles
 SCF Done:  E(RB3LYP) =  -531.458059722     A.U. after    8 cycles
 Optimization completed.
    -- Stationary point found.
 Normal termination of Gaussian 09 at Thu Aug 26 20:04:00 2021.

 ----------------------------------------------------------
 #P Geom=AllCheck Guess=TCheck SCRF=Check B3LYP/GTBas3 Freq
 ----------------------------------------------------------

 Structure from the checkpoint file:  "/public/home/users/caep010/.cache/gau_scr/Gau-1249.chk"
 ------
 FUXNAN
 ------
 Charge =  0 Multiplicity = 1

 SCF Done:  E(RB3LYP) =  -531.458059722     A.U. after    1 cycles

  Exact polarizability: 168.799  -0.043 100.358   0.037   0.235  45.691
 Approx polarizability: 267.513  -4.067 192.267   1.324   0.593  73.431

                      1                      2                      3
                      A                      A                      A
 Frequencies --     53.2450                78.3888               107.2265
 Red. masses --      3.5665                 6.3803                 3.4008
 Frc consts  --      0.0060                 0.0231                 0.0230
 IR Inten    --      7.5601                 1.6769                11.6938

                      4                      5                      6
                      A                      A                      A
 Frequencies --    170.0078               178.0588               267.9207
 Red. masses --      1.9069                 2.0320                 3.7096
 Frc consts  --      0.0325                 0.0380                 0.1569
 IR Inten    --      0.5769                 0.2828                 7.7934

                      7                      8                      9
                      A                      A                      A
 Frequencies --    298.2769               312.9290               348.8347
 Red. masses --      4.6313                 1.2263                 6.9113
 Frc consts  --      0.2428                 0.0708                 0.4955
 IR Inten    --      5.5998                61.9213                 0.9296

                     10                     11                     12
                      A                      A                      A
 Frequencies --    430.1535               495.3136               512.7595
 Red. masses --      3.2749                 4.5609                 2.6815
 Frc consts  --      0.3570                 0.6593                 0.4154
 IR Inten    --      0.5191                 1.1420                 6.1526

                     13                     14                     15
                      A                      A                      A
 Frequencies --    545.0250               635.5097               652.7983
 Red. masses --      5.8033                 6.3311                 5.8236
 Frc consts  --      1.0157                 1.5065                 1.4622
 IR Inten    --      3.9217                 4.1711                 9.0246

                     16                     17                     18
                      A                      A                      A
 Frequencies --    715.3747               784.0950               805.6973
 Red. masses --      3.3572                 5.5619                 4.7731
 Frc consts  --      1.0123                 2.0147                 1.8256
 IR Inten    --      9.4409                23.1857                 1.4813

                     19                     20                     21
                      A                      A                      A
 Frequencies --    822.4553               856.0946               871.8437
 Red. masses --      1.2537                 1.9488                 9.4585
 Frc consts  --      0.4996                 0.8415                 4.2359
 IR Inten    --      0.2404                27.9013                24.0643

                     22                     23                     24
                      A                      A                      A
 Frequencies --    959.6589               990.4010              1013.3937
 Red. masses --      1.2943                 1.3592                 2.8469
 Frc consts  --      0.7023                 0.7855                 1.7226
 IR Inten    --      0.0166                 1.4262                 2.2801

                     25                     26                     27
                      A                      A                      A
 Frequencies --   1086.5949              1125.2751              1130.7798
 Red. masses --      2.5699                 1.3264                 2.2740
 Frc consts  --      1.7877                 0.9895                 1.7131
 IR Inten    --     10.3421                 8.8242               136.2574

                     28                     29                     30
                      A                      A                      A
 Frequencies --   1156.9160              1186.8547              1210.3766
 Red. masses --      1.2793                 1.6518                 1.4075
 Frc consts  --      1.0088                 1.3709                 1.2149
 IR Inten    --      2.1693                 7.6574                16.7222

                     31                     32                     33
                      A                      A                      A
 Frequencies --   1307.5175              1333.7006              1373.4187
 Red. masses --      1.6193                 1.8595                 7.4965
 Frc consts  --      1.6311                 1.9487                 8.3313
 IR Inten    --     28.5985                89.3627               565.5818

                     34                     35                     36
                      A                      A                      A
 Frequencies --   1390.1988              1443.4729              1473.6597
 Red. masses --      5.9335                 2.4031                 1.3031
 Frc consts  --      6.7564                 2.9501                 1.6673
 IR Inten    --    151.1932                 5.8788                 4.1205

                     37                     38                     39
                      A                      A                      A
 Frequencies --   1482.1155              1510.3407              1525.0349
 Red. masses --      1.0427                 1.6616                 1.2082
 Frc consts  --      1.3494                 2.2332                 1.6556
 IR Inten    --      7.0327                 2.4228                10.4502

                     40                     41                     42
                      A                      A                      A
 Frequencies --   1559.8392              1594.5809              1641.8874
 Red. masses --      2.9878                 5.8015                 8.1553
 Frc consts  --      4.2832                 8.6913                12.9532
 IR Inten    --    161.7725                90.7137               127.6665

                     43                     44                     45
                      A                      A                      A
 Frequencies --   1648.5692              3003.0161              3054.5629
 Red. masses --      6.1008                 1.0418                 1.0991
 Frc consts  --      9.7690                 5.5356                 6.0418
 IR Inten    --    306.7267                68.9589                30.3177

                     46                     47                     48
                      A                      A                      A
 Frequencies --   3129.6429              3170.3513              3208.2836
 Red. masses --      1.0971                 1.0892                 1.0877
 Frc consts  --      6.3309                 6.4500                 6.5961
 IR Inten    --     14.6134                12.4196                 7.2313

                     49                     50                     51
                      A                      A                      A
 Frequencies --   3232.7399              3233.3854              3662.0553
 Red. masses --      1.0918                 1.0929                 1.0768
 Frc consts  --      6.7227                 6.7317                 8.5084
 IR Inten    --      0.7330                 2.2634                56.8404

 - Thermochemistry -
 -------------------
 Temperature   298.150 Kelvin.  Pressure   1.00000 Atm.
 Atom     1 has atomic number  6 and mass  12.00000

 Molecular mass:   152.05858 amu.
 Principal axes and moments of inertia in atomic units:
                           1         2         3
     Eigenvalues --   513.975383117.979943619.92815
           X            0.99995   0.00969  -0.00107
           Y           -0.00969   0.99995   0.00040
           Z            0.00107  -0.00039   1.00000
 This molecule is an asymmetric top.
 Rotational symmetry number  1.
 Warning -- assumption of classical behavior for rotation
           may cause significant error
 Rotational temperatures (Kelvin)      0.16852     0.02778     0.02393
 Rotational constants (GHZ):           3.51134     0.57882     0.49856
 Zero-point vibrational energy     387474.2 (Joules/Mol)
                                   92.60856 (Kcal/Mol)
 Warning -- explicit consideration of  13 degrees of freedom as
           vibrations may cause significant error
 Vibrational temperatures:     76.61   112.78   154.27   244.60   256.19
          (Kelvin)            385.48   429.15   450.23   501.89   618.89
                              712.64   737.75   784.17   914.36   939.23
                             1029.26  1128.14  1159.22  1183.33  1231.73
                             1254.39  1380.73  1424.96  1458.05  1563.37
                             1619.02  1626.94  1664.54  1707.62  1741.46
                             1881.22  1918.90  1976.04  2000.18  2076.83
                             2120.26  2132.43  2173.04  2194.18  2244.26
                             2294.24  2362.31  2371.92  4320.66  4394.83
                             4502.85  4561.42  4616.00  4651.19  4652.11
                             5268.87

 Zero-point correction=                           0.147581 (Hartree/Particle)
 Thermal correction to Energy=                    0.157565
 Thermal correction to Enthalpy=                  0.158509
 Thermal correction to Gibbs Free Energy=         0.111534
 Sum of electronic and zero-point Energies=           -531.310479
 Sum of electronic and thermal Energies=              -531.300495
 Sum of electronic and thermal Enthalpies=            -531.299550
 Sum of electronic and thermal Free Energies=         -531.346526

                     E (Thermal)             CV                S
                      KCal/Mol        Cal/Mol-Kelvin    Cal/Mol-Kelvin
 Total                   98.874             36.708             98.869
 Electronic               0.000              0.000              0.000
 Translational            0.889              2.981             40.967
 Rotational               0.889              2.981             30.140
 Vibrational             97.096             30.747             27.761
 Vibration     1          0.596              1.976              4.693
 Vibration     2          0.600              1.964              3.931
 Vibration     3          0.606              1.943              3.319
 Vibration     4          0.625              1.879              2.435
 Vibration     5          0.628              1.869              2.349
 Vibration     6          0.673              1.732              1.610
 Vibration     7          0.691              1.677              1.427
 Vibration     8          0.701              1.649              1.347
 Vibration     9          0.726              1.578              1.171
 Vibration    10          0.791              1.405              0.858
 Vibration    11          0.851              1.260              0.670
 Vibration    12          0.868              1.222              0.627
 Vibration    13          0.900              1.151              0.555

 Optimization completed.
    -- Stationary point found.
 Normal termination of Gaussian 09 at Thu Aug 26 20:05:57 2021.

 -----------------------------------------------------------------
 #P Geom=AllCheck Guess=TCheck SCRF=Check CCSD(T,E4T,FrzG4)/GTBas1
 -----------------------------------------------------------------

 Structure from the checkpoint file:  "/public/home/users/caep010/.cache/gau_scr/Gau-1249.chk"
 ------
 FUXNAN
 ------
 Charge =  0 Multiplicity = 1

 SCF Done:  E(RHF) =  -528.230359584     A.U. after   14 cycles
 E2 =    -0.1589738270D+01 EUMP2 =    -0.52982009785457D+03
 CCSD(T)
 CCSD(T)= -0.52992798704D+03
 9.8599616\CCSD=-529.8573198\CCSD(T)=-529.927987\RMSD=9.852e-09\PG=C01
 Normal termination of Gaussian 09 at Thu Aug 26 20:45:31 2021.

 ---------------------------------------------------------
 #P Geom=AllCheck Guess=TCheck SCRF=Check MP4=FrzG4/GTBas2
 ---------------------------------------------------------

 Structure from the checkpoint file:  "/public/home/users/caep010/.cache/gau_scr/Gau-1249.chk"
 ------
 FUXNAN
 ------
 Charge =  0 Multiplicity = 1

 SCF Done:  E(RHF) =  -528.245580948     A.U. after   15 cycles
 E2 =    -0.1609906946D+01 EUMP2 =    -0.52985548789393D+03
 Normal termination of Gaussian 09 at Thu Aug 26 20:58:33 2021.

 ---------------------------------------------------------
 #P Geom=AllCheck Guess=TCheck SCRF=Check MP4=FrzG4/GTBas3
 ---------------------------------------------------------

 Structure from the checkpoint file:  "/public/home/users/caep010/.cache/gau_scr/Gau-1249.chk"
 ------
 FUXNAN
 ------
 Charge =  0 Multiplicity = 1

 SCF Done:  E(RHF) =  -528.286151078     A.U. after   12 cycles
 E2 =    -0.1907107938D+01 EUMP2 =    -0.53019325901566D+03
 Normal termination of Gaussian 09 at Thu Aug 26 22:58:30 2021.

 -----------------------------------------------------------
 #P Geom=AllCheck Guess=TCheck SCRF=Check MP2=Full/GTLargeXP
 -----------------------------------------------------------

 Structure from the checkpoint file:  "/public/home/users/caep010/.cache/gau_scr/Gau-1249.chk"
 ------
 FUXNAN
 ------
 Charge =  0 Multiplicity = 1

 SCF Done:  E(RHF) =  -528.413484133     A.U. after   13 cycles
 E2 =    -0.2504283802D+01 EUMP2 =    -0.53091776793528D+03
 Normal termination of Gaussian 09 at Thu Aug 26 23:11:28 2021.
 SCF Done:  E(RHF) =  -528.455867114     A.U. after   10 cycles
 Normal termination of Gaussian 09 at Thu Aug 26 23:16:21 2021.

                         Standard orientation:
 ---------------------------------------------------------------------
 Center     Atomic      Atomic             Coordinates (Angstroms)
 Number     Number       Type             X           Y           Z
 ---------------------------------------------------------------------
      1          6           0        1.158453    0.007091   -0.002773
      2          6           0        0.348719   -1.124957   -0.015047
      3          7           0        2.605381   -0.142676    0.007183
      4          8           0        3.287992    0.879046    0.019739
      5          6           0       -1.028604   -0.987545   -0.022652
      6          6           0       -1.620007    0.293588   -0.021528
      7          6           0       -0.773550    1.425700   -0.007197
      8          8           0        3.065984   -1.281746    0.002418
      9          7           0       -2.975768    0.461165   -0.046682
     10          6           0       -3.934735   -0.616232    0.046799
     11          6           0        0.598006    1.285895    0.002043
     12          1           0       -3.321038    1.399087    0.059075
     13          1           0       -4.940834   -0.193655    0.021772
     14          1           0       -3.841176   -1.309994   -0.797612
     15          1           0       -3.827461   -1.193199    0.975858
     16          1           0        0.813897   -2.101698   -0.016199
     17          1           0       -1.650147   -1.873862   -0.029748
     18          1           0       -1.215175    2.417688   -0.005159
     19          1           0        1.253145    2.146577    0.013385
 ---------------------------------------------------------------------

 SCF Done:  E(RHF) =  -528.464042264     A.U. after    8 cycles

 The electronic state is 1-A.
 Alpha  occ. eigenvalues --  -20.58178 -20.58161 -15.83732 -15.59661 -11.31751
 Alpha  occ. eigenvalues --  -11.28322 -11.28285 -11.27054 -11.26954 -11.24831
 Alpha  occ. eigenvalues --  -11.24661  -1.58546  -1.37874  -1.27705  -1.17813
 Alpha  occ. eigenvalues --   -1.07328  -1.04612  -0.97880  -0.91618  -0.86050
 Alpha  occ. eigenvalues --   -0.81472  -0.76846  -0.74242  -0.71359  -0.70345
 Alpha  occ. eigenvalues --   -0.68105  -0.64532  -0.63691  -0.61956  -0.61454
 Alpha  occ. eigenvalues --   -0.58934  -0.56445  -0.53977  -0.51661  -0.48303
 Alpha  occ. eigenvalues --   -0.47821  -0.45743  -0.44182  -0.36855  -0.31635
 Alpha virt. eigenvalues --    0.02357   0.03279   0.04155   0.04406   0.05196
 Alpha virt. eigenvalues --    0.05450   0.06137   0.07017   0.07722   0.07958
 Alpha virt. eigenvalues --    0.08069   0.08776   0.09110   0.09412   0.09902

 Mulliken charges:
               1
     1  C    0.071400
     2  C   -0.184859
     3  N    0.521314
     4  O   -0.454025
     5  C   -0.264449
     6  C    0.331619
     7  C   -0.260826
     8  O   -0.454126
     9  N   -0.450737
    10  C   -0.461713
    11  C   -0.172351
    12  H    0.327966
    13  H    0.190265
    14  H    0.178865
    15  H    0.179185
    16  H    0.260700
    17  H    0.201688
    18  H    0.180849
    19  H    0.259237
 Sum of Mulliken charges =  -0.00000

 Dipole moment (field-independent basis, Debye):
    X=             -7.9548    Y=              0.8077    Z=              0.1890  Tot=              7.9979
 Quadrupole moment (field-independent basis, Debye-Ang):
   XX=            -70.1444   YY=            -59.6144   ZZ=            -67.2326
   XY=              0.1128   XZ=             -0.8500   YZ=              0.3171

 Normal termination of Gaussian 09 at Thu Aug 26 23:49:26 2021.
