 Gaussian 09, Revision E.01,
 Gaussian 09:  ES64L-G09RevE.01 30-Nov-2015

 ----------------
 #P G4 OPT=calcfc
 ----------------

 ------
 FICDOK
 ------
 Symbolic Z-matrix:
 Charge =  0 Multiplicity = 1

 SCF Done:  E(RB3LYP) =  -584.487116086     A.U. after   15 cycles
 SCF Done:  E(RB3LYP) =  -584.559297448     A.U. after   13 cycles
 SCF Done:  E(RB3LYP) =  -584.587463245     A.U. after   15 cycles
 SCF Done:  E(RB3LYP) =  -584.588915568     A.U. after   14 cycles
 SCF Done:  E(RB3LYP) =  -584.588785275     A.U. after   13 cycles
 SCF Done:  E(RB3LYP) =  -584.589010329     A.U. after   10 cycles
 SCF Done:  E(RB3LYP) =  -584.589058127     A.U. after   11 cycles
 SCF Done:  E(RB3LYP) =  -584.589059088     A.U. after    8 cycles
 SCF Done:  E(RB3LYP) =  -584.589060207     A.U. after    9 cycles
 SCF Done:  E(RB3LYP) =  -584.589062173     A.U. after    9 cycles
 SCF Done:  E(RB3LYP) =  -584.589150300     A.U. after    7 cycles
 SCF Done:  E(RB3LYP) =  -584.589150291     A.U. after    7 cycles
 SCF Done:  E(RB3LYP) =  -584.589150280     A.U. after    6 cycles
 Optimization completed.
    -- Stationary point found.
 Normal termination of Gaussian 09 at Wed Aug 25 07:58:55 2021.

 ----------------------------------------------------------
 #P Geom=AllCheck Guess=TCheck SCRF=Check B3LYP/GTBas3 Freq
 ----------------------------------------------------------

 Structure from the checkpoint file:  "/public/home/users/caep010/.cache/gau_scr/Gau-98962.chk"
 ------
 FICDOK
 ------
 Charge =  0 Multiplicity = 1

 SCF Done:  E(RB3LYP) =  -584.589150280     A.U. after    1 cycles

  Exact polarizability: 111.133   0.272  98.421  -0.368  -2.835  49.498
 Approx polarizability: 173.838  10.046 168.225  -3.317 -13.919  79.828

                      1                      2                      3
                      A                      A                      A
 Frequencies --     46.7028                50.6279               103.6321
 Red. masses --      1.3858                 2.1992                 2.7005
 Frc consts  --      0.0018                 0.0033                 0.0171
 IR Inten    --      0.1977                 0.2872                 1.8554

                      4                      5                      6
                      A                      A                      A
 Frequencies --    112.5237               145.6365               198.4224
 Red. masses --      3.0331                 1.4452                 6.5791
 Frc consts  --      0.0226                 0.0181                 0.1526
 IR Inten    --      0.7383                 0.9818                 0.7576

                      7                      8                      9
                      A                      A                      A
 Frequencies --    219.0696               256.2864               280.6922
 Red. masses --      3.9578                 5.1363                 3.6924
 Frc consts  --      0.1119                 0.1988                 0.1714
 IR Inten    --      3.7402                 1.4035                 2.8600

                     10                     11                     12
                      A                      A                      A
 Frequencies --    373.8582               401.6979               466.2209
 Red. masses --      6.1871                 8.3511                 6.5748
 Frc consts  --      0.5095                 0.7940                 0.8420
 IR Inten    --      1.6689                 0.9497                 5.1911

                     13                     14                     15
                      A                      A                      A
 Frequencies --    584.6128               655.5619               669.4832
 Red. masses --      5.0908                 5.9734                 5.7349
 Frc consts  --      1.0251                 1.5125                 1.5145
 IR Inten    --      1.3749                 3.3542                17.2130

                     16                     17                     18
                      A                      A                      A
 Frequencies --    710.3117               772.4836               791.5643
 Red. masses --      6.5104                 7.2073                 5.4232
 Frc consts  --      1.9353                 2.5340                 2.0021
 IR Inten    --      3.6595                 4.3914                10.8330

                     19                     20                     21
                      A                      A                      A
 Frequencies --    818.2468               847.5320              1021.9324
 Red. masses --      1.6620                12.4728                 9.4063
 Frc consts  --      0.6556                 5.2787                 5.7878
 IR Inten    --      4.1584                64.0715                56.2944

                     22                     23                     24
                      A                      A                      A
 Frequencies --   1041.9702              1075.5932              1153.6293
 Red. masses --      5.0066                 1.7361                 1.3148
 Frc consts  --      3.2026                 1.1834                 1.0309
 IR Inten    --     38.8641                 1.2435                 0.8502

                     25                     26                     27
                      A                      A                      A
 Frequencies --   1174.1205              1209.3164              1236.8560
 Red. masses --      1.2443                 1.5285                 1.9356
 Frc consts  --      1.0107                 1.3171                 1.7446
 IR Inten    --      8.1593                10.0649                64.1696

                     28                     29                     30
                      A                      A                      A
 Frequencies --   1280.0277              1320.1795              1365.1949
 Red. masses --      2.7411                 6.6038                 4.8176
 Frc consts  --      2.6461                 6.7812                 5.2902
 IR Inten    --     32.5002                49.6440                16.5735

                     31                     32                     33
                      A                      A                      A
 Frequencies --   1403.8668              1426.8420              1457.5791
 Red. masses --      9.1129                 2.6775                 1.2718
 Frc consts  --     10.5817                 3.2117                 1.5920
 IR Inten    --    346.9070                17.8887                 4.7631

                     34                     35                     36
                      A                      A                      A
 Frequencies --   1470.8445              1480.0303              1481.7569
 Red. masses --      1.6854                 1.0781                 1.0941
 Frc consts  --      2.1482                 1.3914                 1.4153
 IR Inten    --      1.9052                 8.3529                 3.3190

                     37                     38                     39
                      A                      A                      A
 Frequencies --   1510.5626              1517.4811              1554.5416
 Red. masses --      1.0911                 1.0535                 4.3302
 Frc consts  --      1.4669                 1.4293                 6.1654
 IR Inten    --     10.8929                11.0417               101.3169

                     40                     41                     42
                      A                      A                      A
 Frequencies --   1595.4130              1628.2359              3040.8912
 Red. masses --      6.1136                11.0244                 1.0378
 Frc consts  --      9.1684                17.2202                 5.6542
 IR Inten    --      9.3642               427.6050                49.8030

                     43                     44                     45
                      A                      A                      A
 Frequencies --   3058.2607              3128.0449              3136.0580
 Red. masses --      1.0330                 1.1042                 1.0957
 Frc consts  --      5.6923                 6.3655                 6.3490
 IR Inten    --     27.1484                 7.9012                22.7042

                     46                     47                     48
                      A                      A                      A
 Frequencies --   3152.7888              3175.2894              3249.4467
 Red. masses --      1.1039                 1.1070                 1.0966
 Frc consts  --      6.4650                 6.5759                 6.8223
 IR Inten    --      5.5616                 1.4716                 0.1749

 - Thermochemistry -
 -------------------
 Temperature   298.150 Kelvin.  Pressure   1.00000 Atm.
 Atom     1 has atomic number  7 and mass  14.00307

 Molecular mass:   157.04874 amu.
 Principal axes and moments of inertia in atomic units:
                           1         2         3
     Eigenvalues --  1052.999981735.436302691.25438
           X            0.99971  -0.02396  -0.00138
           Y            0.02398   0.99955   0.01798
           Z            0.00095  -0.01801   0.99984
 This molecule is an asymmetric top.
 Rotational symmetry number  1.
 Warning -- assumption of classical behavior for rotation
           may cause significant error
 Rotational temperatures (Kelvin)      0.08225     0.04991     0.03218
 Rotational constants (GHZ):           1.71390     1.03994     0.67059
 Zero-point vibrational energy     352012.7 (Joules/Mol)
                                   84.13304 (Kcal/Mol)
 Warning -- explicit consideration of  13 degrees of freedom as
           vibrations may cause significant error
 Vibrational temperatures:     67.19    72.84   149.10   161.90   209.54
          (Kelvin)            285.49   315.19   368.74   403.85   537.90
                              577.95   670.79   841.13   943.21   963.24
                             1021.98  1111.43  1138.88  1177.27  1219.41
                             1470.33  1499.16  1547.54  1659.81  1689.30
                             1739.93  1779.56  1841.67  1899.44  1964.21
                             2019.85  2052.90  2097.13  2116.21  2129.43
                             2131.91  2173.36  2183.31  2236.64  2295.44
                             2342.67  4375.16  4400.15  4500.55  4512.08
                             4536.15  4568.53  4675.22

 Zero-point correction=                           0.134075 (Hartree/Particle)
 Thermal correction to Energy=                    0.144673
 Thermal correction to Enthalpy=                  0.145617
 Thermal correction to Gibbs Free Energy=         0.096619
 Sum of electronic and zero-point Energies=           -584.455076
 Sum of electronic and thermal Energies=              -584.444478
 Sum of electronic and thermal Enthalpies=            -584.443534
 Sum of electronic and thermal Free Energies=         -584.492531

                     E (Thermal)             CV                S
                      KCal/Mol        Cal/Mol-Kelvin    Cal/Mol-Kelvin
 Total                   90.783             36.464            103.125
 Electronic               0.000              0.000              0.000
 Translational            0.889              2.981             41.064
 Rotational               0.889              2.981             29.976
 Vibrational             89.006             30.502             32.085
 Vibration     1          0.595              1.979              4.952
 Vibration     2          0.595              1.977              4.793
 Vibration     3          0.605              1.946              3.385
 Vibration     4          0.607              1.939              3.225
 Vibration     5          0.617              1.907              2.728
 Vibration     6          0.637              1.842              2.148
 Vibration     7          0.647              1.812              1.967
 Vibration     8          0.666              1.752              1.687
 Vibration     9          0.680              1.709              1.529
 Vibration    10          0.745              1.526              1.064
 Vibration    11          0.767              1.466              0.956
 Vibration    12          0.824              1.325              0.748
 Vibration    13          0.942              1.065              0.477

 Optimization completed.
    -- Stationary point found.
 Normal termination of Gaussian 09 at Wed Aug 25 08:00:51 2021.

 -----------------------------------------------------------------
 #P Geom=AllCheck Guess=TCheck SCRF=Check CCSD(T,E4T,FrzG4)/GTBas1
 -----------------------------------------------------------------

 Structure from the checkpoint file:  "/public/home/users/caep010/.cache/gau_scr/Gau-98962.chk"
 ------
 FICDOK
 ------
 Charge =  0 Multiplicity = 1

 SCF Done:  E(RHF) =  -581.187858531     A.U. after   16 cycles
 E2 =    -0.1684642303D+01 EUMP2 =    -0.58287250083355D+03
 CCSD(T)
 CCSD(T)= -0.58296998437D+03
 856171\MP4SDQ=-582.9043345\CCSD=-582.8997871\CCSD(T)=-582.9699844\RMSD
 Normal termination of Gaussian 09 at Wed Aug 25 08:37:37 2021.

 ---------------------------------------------------------
 #P Geom=AllCheck Guess=TCheck SCRF=Check MP4=FrzG4/GTBas2
 ---------------------------------------------------------

 Structure from the checkpoint file:  "/public/home/users/caep010/.cache/gau_scr/Gau-98962.chk"
 ------
 FICDOK
 ------
 Charge =  0 Multiplicity = 1

 SCF Done:  E(RHF) =  -581.202970203     A.U. after   13 cycles
 E2 =    -0.1707785535D+01 EUMP2 =    -0.58291075573851D+03
 Normal termination of Gaussian 09 at Wed Aug 25 08:50:03 2021.

 ---------------------------------------------------------
 #P Geom=AllCheck Guess=TCheck SCRF=Check MP4=FrzG4/GTBas3
 ---------------------------------------------------------

 Structure from the checkpoint file:  "/public/home/users/caep010/.cache/gau_scr/Gau-98962.chk"
 ------
 FICDOK
 ------
 Charge =  0 Multiplicity = 1

 SCF Done:  E(RHF) =  -581.248075939     A.U. after   13 cycles
 E2 =    -0.2023991261D+01 EUMP2 =    -0.58327206719922D+03
 Normal termination of Gaussian 09 at Wed Aug 25 10:43:54 2021.

 -----------------------------------------------------------
 #P Geom=AllCheck Guess=TCheck SCRF=Check MP2=Full/GTLargeXP
 -----------------------------------------------------------

 Structure from the checkpoint file:  "/public/home/users/caep010/.cache/gau_scr/Gau-98962.chk"
 ------
 FICDOK
 ------
 Charge =  0 Multiplicity = 1

 SCF Done:  E(RHF) =  -581.394662194     A.U. after   13 cycles
 E2 =    -0.2638571350D+01 EUMP2 =    -0.58403323354456D+03
 Normal termination of Gaussian 09 at Wed Aug 25 10:56:51 2021.
 SCF Done:  E(RHF) =  -581.439758917     A.U. after    9 cycles
 Normal termination of Gaussian 09 at Wed Aug 25 11:01:07 2021.

                         Standard orientation:
 ---------------------------------------------------------------------
 Center     Atomic      Atomic             Coordinates (Angstroms)
 Number     Number       Type             X           Y           Z
 ---------------------------------------------------------------------
      1          7           0        1.611549   -0.577242   -0.033921
      2          6           0        3.005290   -0.184516   -0.148259
      3          6           0        1.108365   -1.841576    0.159368
      4          7           0       -0.195179   -1.858479    0.201066
      5          6           0       -0.572871   -0.559350    0.012708
      6          7           0       -1.957341   -0.198639   -0.079572
      7          8           0       -2.795846   -1.063219    0.114806
      8          8           0       -2.211453    0.975849   -0.373003
      9          6           0        0.534867    0.269323   -0.131617
     10          8           0        0.774118    1.558690   -0.368449
     11          6           0        0.191744    2.532273    0.521174
     12          1           0        3.627602   -1.050297    0.082046
     13          1           0        3.233466    0.619259    0.554885
     14          1           0        3.230137    0.161167   -1.160468
     15          1           0        1.757325   -2.699354    0.256885
     16          1           0        0.558443    3.497183    0.170460
     17          1           0        0.536415    2.354921    1.545602
     18          1           0       -0.895521    2.490151    0.470489
 ---------------------------------------------------------------------

 SCF Done:  E(RHF) =  -581.448950049     A.U. after    7 cycles

 The electronic state is 1-A.
 Alpha  occ. eigenvalues --  -20.61853 -20.58901 -20.57898 -15.84285 -15.65291
 Alpha  occ. eigenvalues --  -15.57835 -11.37516 -11.32260 -11.31043 -11.30530
 Alpha  occ. eigenvalues --  -11.29922  -1.59019  -1.45887  -1.38223  -1.37158
 Alpha  occ. eigenvalues --   -1.22676  -1.08456  -1.02574  -0.98019  -0.93373
 Alpha  occ. eigenvalues --   -0.83730  -0.80259  -0.77599  -0.72385  -0.71801
 Alpha  occ. eigenvalues --   -0.70739  -0.69276  -0.67324  -0.66507  -0.64657
 Alpha  occ. eigenvalues --   -0.61478  -0.59890  -0.57922  -0.54753  -0.51622
 Alpha  occ. eigenvalues --   -0.48877  -0.47779  -0.46686  -0.44151  -0.42157
 Alpha  occ. eigenvalues --   -0.34333
 Alpha virt. eigenvalues --    0.01975   0.02994   0.03634   0.04299   0.05655
 Alpha virt. eigenvalues --    0.05834   0.06222   0.06444   0.06646   0.07147
 Alpha virt. eigenvalues --    0.08406   0.08847   0.09621   0.09781   0.10074

 Mulliken charges:
               1
     1  N    0.106223
     2  C   -0.530857
     3  C    0.043485
     4  N   -0.478274
     5  C    0.243993
     6  N    0.500753
     7  O   -0.393617
     8  O   -0.472701
     9  C    0.293251
    10  O   -0.376879
    11  C   -0.378517
    12  H    0.201396
    13  H    0.203656
    14  H    0.209352
    15  H    0.222511
    16  H    0.194479
    17  H    0.172376
    18  H    0.239371
 Sum of Mulliken charges =  -0.00000

 Dipole moment (field-independent basis, Debye):
    X=              7.9953    Y=              1.7888    Z=              1.0156  Tot=              8.2557
 Quadrupole moment (field-independent basis, Debye-Ang):
   XX=            -65.4320   YY=            -62.2502   ZZ=            -63.3032
   XY=             -6.2367   XZ=             -0.1314   YZ=              3.8955

 Normal termination of Gaussian 09 at Wed Aug 25 11:29:17 2021.
