 Gaussian 09, Revision E.01,
 Gaussian 09:  ES64L-G09RevE.01 30-Nov-2015

 ----------------
 #P G4 OPT=calcfc
 ----------------

 ------
 FEXBUF
 ------
 Symbolic Z-matrix:
 Charge =  0 Multiplicity = 1

 SCF Done:  E(RB3LYP) =  -566.935022073     A.U. after   16 cycles
 SCF Done:  E(RB3LYP) =  -567.126954807     A.U. after   14 cycles
 SCF Done:  E(RB3LYP) =  -567.277718684     A.U. after   14 cycles
 SCF Done:  E(RB3LYP) =  -567.305451069     A.U. after   14 cycles
 SCF Done:  E(RB3LYP) =  -567.311816043     A.U. after   14 cycles
 SCF Done:  E(RB3LYP) =  -567.312629568     A.U. after   13 cycles
 SCF Done:  E(RB3LYP) =  -567.312730489     A.U. after   11 cycles
 SCF Done:  E(RB3LYP) =  -567.312749322     A.U. after   10 cycles
 SCF Done:  E(RB3LYP) =  -567.312758525     A.U. after    9 cycles
 SCF Done:  E(RB3LYP) =  -567.312760534     A.U. after    9 cycles
 SCF Done:  E(RB3LYP) =  -567.312760654     A.U. after    7 cycles
 Optimization completed.
    -- Stationary point found.
 Normal termination of Gaussian 09 at Fri Aug 27 03:41:12 2021.

 ----------------------------------------------------------
 #P Geom=AllCheck Guess=TCheck SCRF=Check B3LYP/GTBas3 Freq
 ----------------------------------------------------------

 Structure from the checkpoint file:  "/public/home/users/caep010/.cache/gau_scr/Gau-216421.chk"
 ------
 FEXBUF
 ------
 Charge =  0 Multiplicity = 1

 SCF Done:  E(RB3LYP) =  -567.312760654     A.U. after    1 cycles

  Exact polarizability: 145.844   1.154 100.340   0.000  -0.000  42.678
 Approx polarizability: 297.246  18.322 189.916   0.001  -0.001  69.247

                      1                      2                      3
                      A                      A                      A
 Frequencies --     68.5980               112.6739               189.0125
 Red. masses --      9.3495                 6.7343                 1.1075
 Frc consts  --      0.0259                 0.0504                 0.0233
 IR Inten    --      0.0505                 9.0995                 0.7028

                      4                      5                      6
                      A                      A                      A
 Frequencies --    192.3503               206.6128               322.7887
 Red. masses --      3.0880                 6.0840                 5.9286
 Frc consts  --      0.0673                 0.1530                 0.3640
 IR Inten    --      1.4128                 3.3828                 0.0126

                      7                      8                      9
                      A                      A                      A
 Frequencies --    330.8147               362.1924               453.1799
 Red. masses --      3.4836                11.2741                 7.5085
 Frc consts  --      0.2246                 0.8714                 0.9085
 IR Inten    --      6.0454                 0.5820                 9.8780

                     10                     11                     12
                      A                      A                      A
 Frequencies --    465.0282               552.6535               554.2459
 Red. masses --      3.0577                 3.6827                 6.5265
 Frc consts  --      0.3896                 0.6627                 1.1812
 IR Inten    --      1.7315                 0.0164                 3.4650

                     13                     14                     15
                      A                      A                      A
 Frequencies --    606.3802               670.8320               724.6815
 Red. masses --      4.6765                 8.1243                 3.6879
 Frc consts  --      1.0131                 2.1541                 1.1411
 IR Inten    --      2.8010                24.1363                 6.4281

                     16                     17                     18
                      A                      A                      A
 Frequencies --    783.4371               799.5378               838.6533
 Red. masses --      5.8373                 5.3296                 6.6242
 Frc consts  --      2.1109                 2.0073                 2.7451
 IR Inten    --     15.7708                 8.1032                 3.8072

                     19                     20                     21
                      A                      A                      A
 Frequencies --    859.8144               939.8951               951.6077
 Red. masses --      1.5156                 1.3954                 5.6044
 Frc consts  --      0.6601                 0.7263                 2.9902
 IR Inten    --     16.5520                 9.8558                29.5533

                     22                     23                     24
                      A                      A                      A
 Frequencies --    973.6501              1010.3021              1065.3964
 Red. masses --      1.3354                 1.5921                 1.5340
 Frc consts  --      0.7459                 0.9575                 1.0259
 IR Inten    --      1.8858                 7.4722                 2.7462

                     25                     26                     27
                      A                      A                      A
 Frequencies --   1107.4178              1138.9679              1225.4980
 Red. masses --      1.4923                 1.6398                 3.5806
 Frc consts  --      1.0783                 1.2533                 3.1683
 IR Inten    --     53.5636                 7.2238                77.9116

                     28                     29                     30
                      A                      A                      A
 Frequencies --   1274.0640              1282.8615              1374.9780
 Red. masses --      3.0615                 1.8213                 5.7686
 Frc consts  --      2.9280                 1.7660                 6.4256
 IR Inten    --      4.4670                17.2295               489.3851

                     31                     32                     33
                      A                      A                      A
 Frequencies --   1387.6557              1412.6215              1446.3857
 Red. masses --      5.6500                 1.3532                 1.8318
 Frc consts  --      6.4100                 1.5909                 2.2578
 IR Inten    --    127.3910                 2.7457                 5.0369

                     34                     35                     36
                      A                      A                      A
 Frequencies --   1459.0933              1496.1275              1516.1611
 Red. masses --      1.0442                 1.6536                 3.5738
 Frc consts  --      1.3098                 2.1809                 4.8403
 IR Inten    --      7.6327                51.8582                28.6029

                     37                     38                     39
                      A                      A                      A
 Frequencies --   1580.4044              1639.5608              1665.1204
 Red. masses --      9.4886                12.1941                 6.3850
 Frc consts  --     13.9633                19.3133                10.4305
 IR Inten    --     66.3300               167.0595                37.0136

                     40                     41                     42
                      A                      A                      A
 Frequencies --   3045.8336              3100.9265              3144.9857
 Red. masses --      1.0358                 1.0985                 1.1030
 Frc consts  --      5.6618                 6.2235                 6.4275
 IR Inten    --      6.1819                 3.5227                 6.5288

                     43                     44                     45
                      A                      A                      A
 Frequencies --   3237.3579              3242.4318              3256.5437
 Red. masses --      1.0911                 1.0889                 1.0963
 Frc consts  --      6.7377                 6.7447                 6.8501
 IR Inten    --      3.8647                 3.4884                 2.3710

 - Thermochemistry -
 -------------------
 Temperature   298.150 Kelvin.  Pressure   1.00000 Atm.
 Atom     1 has atomic number  7 and mass  14.00307

 Molecular mass:   154.03784 amu.
 Principal axes and moments of inertia in atomic units:
                           1         2         3
     Eigenvalues --   699.063242441.492683129.54652
           X            0.99960  -0.02821  -0.00000
           Y            0.02821   0.99960   0.00000
           Z            0.00000  -0.00000   1.00000
 This molecule is an asymmetric top.
 Rotational symmetry number  1.
 Warning -- assumption of classical behavior for rotation
           may cause significant error
 Rotational temperatures (Kelvin)      0.12390     0.03548     0.02768
 Rotational constants (GHZ):           2.58166     0.73920     0.57668
 Zero-point vibrational energy     323406.4 (Joules/Mol)
                                   77.29599 (Kcal/Mol)
 Warning -- explicit consideration of  13 degrees of freedom as
           vibrations may cause significant error
 Vibrational temperatures:     98.70   162.11   271.95   276.75   297.27
          (Kelvin)            464.42   475.97   521.11   652.02   669.07
                              795.14   797.44   872.44   965.18  1042.65
                             1127.19  1150.36  1206.63  1237.08  1352.30
                             1369.15  1400.86  1453.60  1532.87  1593.33
                             1638.72  1763.22  1833.09  1845.75  1978.28
                             1996.52  2032.44  2081.02  2099.31  2152.59
                             2181.41  2273.85  2358.96  2395.73  4382.27
                             4461.54  4524.93  4657.83  4665.13  4685.43

 Zero-point correction=                           0.123179 (Hartree/Particle)
 Thermal correction to Energy=                    0.132242
 Thermal correction to Enthalpy=                  0.133186
 Thermal correction to Gibbs Free Energy=         0.088553
 Sum of electronic and zero-point Energies=           -567.189582
 Sum of electronic and thermal Energies=              -567.180518
 Sum of electronic and thermal Enthalpies=            -567.179574
 Sum of electronic and thermal Free Energies=         -567.224208

                     E (Thermal)             CV                S
                      KCal/Mol        Cal/Mol-Kelvin    Cal/Mol-Kelvin
 Total                   82.983             34.097             93.940
 Electronic               0.000              0.000              0.000
 Translational            0.889              2.981             41.006
 Rotational               0.889              2.981             30.058
 Vibrational             81.206             28.135             22.876
 Vibration     1          0.598              1.969              4.193
 Vibration     2          0.607              1.939              3.222
 Vibration     3          0.633              1.855              2.237
 Vibration     4          0.634              1.850              2.205
 Vibration     5          0.641              1.830              2.073
 Vibration     6          0.708              1.630              1.296
 Vibration     7          0.713              1.614              1.256
 Vibration     8          0.736              1.550              1.113
 Vibration     9          0.812              1.354              0.786
 Vibration    10          0.822              1.328              0.752
 Vibration    11          0.908              1.134              0.539
 Vibration    12          0.910              1.130              0.535
 Vibration    13          0.965              1.018              0.439

 Optimization completed.
    -- Stationary point found.
 Normal termination of Gaussian 09 at Fri Aug 27 03:43:02 2021.

 -----------------------------------------------------------------
 #P Geom=AllCheck Guess=TCheck SCRF=Check CCSD(T,E4T,FrzG4)/GTBas1
 -----------------------------------------------------------------

 Structure from the checkpoint file:  "/public/home/users/caep010/.cache/gau_scr/Gau-216421.chk"
 ------
 FEXBUF
 ------
 Charge =  0 Multiplicity = 1

 SCF Done:  E(RHF) =  -563.976207921     A.U. after   15 cycles
 E2 =    -0.1667485132D+01 EUMP2 =    -0.56564369305337D+03
 CCSD(T)
 CCSD(T)= -0.56573607476D+03
 SD=-565.6588114\CCSD(T)=-565.7360748\RMSD=6.610e-09\PG=C01 [X(C6H6N2O3
 Normal termination of Gaussian 09 at Fri Aug 27 04:26:17 2021.

 ---------------------------------------------------------
 #P Geom=AllCheck Guess=TCheck SCRF=Check MP4=FrzG4/GTBas2
 ---------------------------------------------------------

 Structure from the checkpoint file:  "/public/home/users/caep010/.cache/gau_scr/Gau-216421.chk"
 ------
 FEXBUF
 ------
 Charge =  0 Multiplicity = 1

 SCF Done:  E(RHF) =  -563.992998075     A.U. after   15 cycles
 E2 =    -0.1688883972D+01 EUMP2 =    -0.56568188204732D+03
 Normal termination of Gaussian 09 at Fri Aug 27 04:37:52 2021.

 ---------------------------------------------------------
 #P Geom=AllCheck Guess=TCheck SCRF=Check MP4=FrzG4/GTBas3
 ---------------------------------------------------------

 Structure from the checkpoint file:  "/public/home/users/caep010/.cache/gau_scr/Gau-216421.chk"
 ------
 FEXBUF
 ------
 Charge =  0 Multiplicity = 1

 SCF Done:  E(RHF) =  -564.033692450     A.U. after   13 cycles
 E2 =    -0.1990344162D+01 EUMP2 =    -0.56602403661169D+03
 Normal termination of Gaussian 09 at Fri Aug 27 05:55:49 2021.

 -----------------------------------------------------------
 #P Geom=AllCheck Guess=TCheck SCRF=Check MP2=Full/GTLargeXP
 -----------------------------------------------------------

 Structure from the checkpoint file:  "/public/home/users/caep010/.cache/gau_scr/Gau-216421.chk"
 ------
 FEXBUF
 ------
 Charge =  0 Multiplicity = 1

 SCF Done:  E(RHF) =  -564.174329158     A.U. after   16 cycles
 E2 =    -0.2598116238D+01 EUMP2 =    -0.56677244539624D+03
 Normal termination of Gaussian 09 at Fri Aug 27 06:08:20 2021.
 SCF Done:  E(RHF) =  -564.219519880     A.U. after   11 cycles
 Normal termination of Gaussian 09 at Fri Aug 27 06:13:11 2021.

                         Standard orientation:
 ---------------------------------------------------------------------
 Center     Atomic      Atomic             Coordinates (Angstroms)
 Number     Number       Type             X           Y           Z
 ---------------------------------------------------------------------
      1          7           0       -1.779908   -0.595490   -0.000012
      2          6           0       -0.875746   -1.630161   -0.000001
      3          8           0       -3.020753   -0.836131   -0.000031
      4          6           0        0.478599   -1.405403    0.000037
      5          6           0        0.935541   -0.092039   -0.000005
      6          7           0        2.368555    0.180228    0.000002
      7          8           0        2.722557    1.354223   -0.000042
      8          1           0        1.177210   -2.230196   -0.000001
      9          6           0        0.029087    0.961761   -0.000004
     10          1           0        0.393407    1.979964   -0.000031
     11          8           0        3.126561   -0.783599    0.000028
     12          1           0       -1.341145   -2.604899   -0.000021
     13          6           0       -1.329213    0.715735   -0.000014
     14          6           0       -2.394813    1.758003    0.000038
     15          1           0       -1.951582    2.755024   -0.000307
     16          1           0       -3.043316    1.641590   -0.874258
     17          1           0       -3.042746    1.642038    0.874744
 ---------------------------------------------------------------------

 SCF Done:  E(RHF) =  -564.228311499     A.U. after    8 cycles

 The electronic state is 1-A.
 Alpha  occ. eigenvalues --  -20.61690 -20.61681 -20.54342 -15.87135 -15.76352
 Alpha  occ. eigenvalues --  -11.33494 -11.32852 -11.31983 -11.30083 -11.29966
 Alpha  occ. eigenvalues --  -11.25312  -1.62106  -1.48729  -1.41500  -1.24368
 Alpha  occ. eigenvalues --   -1.14630  -1.11970  -1.00945  -0.99272  -0.92114
 Alpha  occ. eigenvalues --   -0.84698  -0.79424  -0.76776  -0.73800  -0.72507
 Alpha  occ. eigenvalues --   -0.72257  -0.67902  -0.67816  -0.64067  -0.61557
 Alpha  occ. eigenvalues --   -0.58168  -0.57492  -0.57422  -0.51597  -0.51560
 Alpha  occ. eigenvalues --   -0.51352  -0.47152  -0.45512  -0.39781  -0.34910
 Alpha virt. eigenvalues --    0.00425   0.03013   0.03407   0.04721   0.04729
 Alpha virt. eigenvalues --    0.05652   0.06110   0.06353   0.07161   0.07233
 Alpha virt. eigenvalues --    0.08016   0.08083   0.08516   0.09251   0.09554

 Mulliken charges:
               1
     1  N    0.209106
     2  C   -0.163681
     3  O   -0.616153
     4  C   -0.120809
     5  C    0.167120
     6  N    0.510815
     7  O   -0.430824
     8  H    0.276173
     9  C   -0.128673
    10  H    0.265103
    11  O   -0.427525
    12  H    0.257734
    13  C    0.229476
    14  C   -0.634756
    15  H    0.179815
    16  H    0.213569
    17  H    0.213509
 Sum of Mulliken charges =  -0.00000

 Dipole moment (field-independent basis, Debye):
    X=             -1.0495    Y=              0.4140    Z=              0.0001  Tot=              1.1283
 Quadrupole moment (field-independent basis, Debye-Ang):
   XX=            -89.2920   YY=            -56.3039   ZZ=            -63.2369
   XY=             -8.1269   XZ=             -0.0003   YZ=              0.0003

 Normal termination of Gaussian 09 at Fri Aug 27 06:44:19 2021.
