 Gaussian 09, Revision E.01,
 Gaussian 09:  ES64L-G09RevE.01 30-Nov-2015

 ----------------
 #P G4 OPT=calcfc
 ----------------

 ------
 FUHSEG
 ------
 Symbolic Z-matrix:
 Charge =  0 Multiplicity = 1

 SCF Done:  E(RB3LYP) =  -606.326644283     A.U. after   16 cycles
 SCF Done:  E(RB3LYP) =  -606.402061499     A.U. after   14 cycles
 SCF Done:  E(RB3LYP) =  -606.425856199     A.U. after   14 cycles
 SCF Done:  E(RB3LYP) =  -606.427079718     A.U. after   12 cycles
 SCF Done:  E(RB3LYP) =  -606.427184248     A.U. after   12 cycles
 SCF Done:  E(RB3LYP) =  -606.427202810     A.U. after   10 cycles
 SCF Done:  E(RB3LYP) =  -606.427204168     A.U. after    8 cycles
 SCF Done:  E(RB3LYP) =  -606.427204395     A.U. after    8 cycles
 Optimization completed.
    -- Stationary point found.
 Normal termination of Gaussian 09 at Wed Aug 25 23:42:37 2021.

 ----------------------------------------------------------
 #P Geom=AllCheck Guess=TCheck SCRF=Check B3LYP/GTBas3 Freq
 ----------------------------------------------------------

 Structure from the checkpoint file:  "/public/home/users/caep010/.cache/gau_scr/Gau-77888.chk"
 ------
 FUHSEG
 ------
 Charge =  0 Multiplicity = 1

 SCF Done:  E(RB3LYP) =  -606.427204395     A.U. after    1 cycles

  Exact polarizability: 201.314   9.943 129.418   0.001  -0.000  46.937
 Approx polarizability: 320.154  32.017 258.618   0.001  -0.002  78.139

                      1                      2                      3
                      A                      A                      A
 Frequencies --     39.4462                62.9945                92.1194
 Red. masses --      4.6719                11.8822                 6.0749
 Frc consts  --      0.0043                 0.0278                 0.0304
 IR Inten    --      0.4418                 0.0103                 1.3642

                      4                      5                      6
                      A                      A                      A
 Frequencies --    116.0104               171.5809               239.7946
 Red. masses --      7.5952                10.2249                 7.5270
 Frc consts  --      0.0602                 0.1774                 0.2550
 IR Inten    --      1.3860                 3.5771                 8.5379

                      7                      8                      9
                      A                      A                      A
 Frequencies --    250.2796               334.1202               338.1556
 Red. masses --      7.8467                 7.1832                 3.8549
 Frc consts  --      0.2896                 0.4725                 0.2597
 IR Inten    --      0.0620                 1.1038                 0.2830

                     10                     11                     12
                      A                      A                      A
 Frequencies --    411.7429               446.1973               499.8892
 Red. masses --      2.9801                11.5095                 3.5972
 Frc consts  --      0.2977                 1.3501                 0.5296
 IR Inten    --      0.0087                 0.3358                 4.6005

                     13                     14                     15
                      A                      A                      A
 Frequencies --    533.6614               609.3357               611.3038
 Red. masses --     13.5615                 7.1793                 6.2522
 Frc consts  --      2.2756                 1.5705                 1.3766
 IR Inten    --      1.1825                16.7871                 3.3714

                     16                     17                     18
                      A                      A                      A
 Frequencies --    624.3515               703.7410               768.4275
 Red. masses --      6.4300                 1.7900                 4.3114
 Frc consts  --      1.4768                 0.5223                 1.4999
 IR Inten    --      0.1191                28.7136                 0.8700

                     19                     20                     21
                      A                      A                      A
 Frequencies --    778.0963               795.5403               813.1232
 Red. masses --      8.7128                 2.1705                 7.3851
 Frc consts  --      3.1079                 0.8093                 2.8768
 IR Inten    --     10.9242                30.1514                12.1703

                     22                     23                     24
                      A                      A                      A
 Frequencies --    863.3846               890.6224               946.7199
 Red. masses --      1.2610                 6.6728                 1.3481
 Frc consts  --      0.5538                 3.1185                 0.7119
 IR Inten    --      0.0110                32.5145                 0.1454

                     25                     26                     27
                      A                      A                      A
 Frequencies --    969.9314              1001.3972              1012.0677
 Red. masses --      1.3571                 1.4208                 6.0162
 Frc consts  --      0.7522                 0.8394                 3.6307
 IR Inten    --      0.1568                 4.7388                 1.7463

                     28                     29                     30
                      A                      A                      A
 Frequencies --   1012.5968              1050.1978              1063.0315
 Red. masses --      1.3531                 2.5932                 3.0622
 Frc consts  --      0.8174                 1.6851                 2.0388
 IR Inten    --      1.8294                20.4901                70.8351

                     31                     32                     33
                      A                      A                      A
 Frequencies --   1119.4376              1189.0145              1215.9130
 Red. masses --      1.6405                 1.0879                 1.1707
 Frc consts  --      1.2112                 0.9061                 1.0198
 IR Inten    --      4.5970                 0.4833                30.4015

                     34                     35                     36
                      A                      A                      A
 Frequencies --   1243.7317              1344.0402              1363.6889
 Red. masses --      2.1885                 4.0955                 1.9729
 Frc consts  --      1.9946                 4.3589                 2.1616
 IR Inten    --     40.8980                68.0721                52.1488

                     37                     38                     39
                      A                      A                      A
 Frequencies --   1372.5748              1395.0099              1479.2888
 Red. masses --      5.9275                 1.8489                 2.2614
 Frc consts  --      6.5795                 2.1199                 2.9156
 IR Inten    --    361.7933                29.9329                19.2637

                     40                     41                     42
                      A                      A                      A
 Frequencies --   1526.4623              1607.8769              1624.6766
 Red. masses --      2.1510                 5.0507                 9.1368
 Frc consts  --      2.9530                 7.6933                14.2095
 IR Inten    --      2.0712                13.6045               112.2065

                     43                     44                     45
                      A                      A                      A
 Frequencies --   1638.7313              1676.1605              2339.0736
 Red. masses --      6.2670                 9.1483                12.6686
 Frc consts  --      9.9158                15.1434                40.8381
 IR Inten    --     61.8181               208.2097                 9.1310

                     46                     47                     48
                      A                      A                      A
 Frequencies --   3176.5102              3179.3091              3185.6866
 Red. masses --      1.0861                 1.0851                 1.0882
 Frc consts  --      6.4569                 6.4622                 6.5069
 IR Inten    --      5.4065                 0.9174                 1.2901

                     49                     50                     51
                      A                      A                      A
 Frequencies --   3197.0639              3205.8167              3232.7253
 Red. masses --      1.0920                 1.0973                 1.0923
 Frc consts  --      6.5764                 6.6441                 6.7256
 IR Inten    --     11.3901                12.3918                 3.4327

 - Thermochemistry -
 -------------------
 Temperature   298.150 Kelvin.  Pressure   1.00000 Atm.
 Atom     1 has atomic number  8 and mass  15.99491

 Molecular mass:   174.04293 amu.
 Principal axes and moments of inertia in atomic units:
                           1         2         3
     Eigenvalues --  1007.101413940.710684947.81209
           X            1.00000   0.00057   0.00000
           Y           -0.00057   1.00000   0.00000
           Z           -0.00000  -0.00000   1.00000
 This molecule is an asymmetric top.
 Rotational symmetry number  1.
 Warning -- assumption of classical behavior for rotation
           may cause significant error
 Rotational temperatures (Kelvin)      0.08600     0.02198     0.01751
 Rotational constants (GHZ):           1.79202     0.45797     0.36476
 Zero-point vibrational energy     355067.5 (Joules/Mol)
                                   84.86317 (Kcal/Mol)
 Warning -- explicit consideration of  15 degrees of freedom as
           vibrations may cause significant error
 Vibrational temperatures:     56.75    90.63   132.54   166.91   246.87
          (Kelvin)            345.01   360.10   480.72   486.53   592.41
                              641.98   719.23   767.82   876.70   879.53
                              898.30  1012.53  1105.59  1119.51  1144.60
                             1169.90  1242.22  1281.41  1362.12  1395.51
                             1440.79  1456.14  1456.90  1511.00  1529.46
                             1610.62  1710.72  1749.43  1789.45  1933.77
                             1962.04  1974.83  2007.11  2128.36  2196.24
                             2313.37  2337.54  2357.77  2411.62  3365.40
                             4570.28  4574.31  4583.49  4599.86  4612.45
                             4651.16

 Zero-point correction=                           0.135238 (Hartree/Particle)
 Thermal correction to Energy=                    0.145917
 Thermal correction to Enthalpy=                  0.146862
 Thermal correction to Gibbs Free Energy=         0.097341
 Sum of electronic and zero-point Energies=           -606.291966
 Sum of electronic and thermal Energies=              -606.281287
 Sum of electronic and thermal Enthalpies=            -606.280343
 Sum of electronic and thermal Free Energies=         -606.329864

                     E (Thermal)             CV                S
                      KCal/Mol        Cal/Mol-Kelvin    Cal/Mol-Kelvin
 Total                   91.565             39.488            104.226
 Electronic               0.000              0.000              0.000
 Translational            0.889              2.981             41.370
 Rotational               0.889              2.981             31.352
 Vibrational             89.787             33.527             31.504
 Vibration     1          0.594              1.981              5.287
 Vibration     2          0.597              1.972              4.361
 Vibration     3          0.602              1.955              3.615
 Vibration     4          0.608              1.936              3.166
 Vibration     5          0.626              1.877              2.418
 Vibration     6          0.657              1.780              1.804
 Vibration     7          0.663              1.762              1.729
 Vibration     8          0.716              1.607              1.240
 Vibration     9          0.718              1.599              1.221
 Vibration    10          0.776              1.445              0.920
 Vibration    11          0.805              1.369              0.807
 Vibration    12          0.855              1.250              0.658
 Vibration    13          0.889              1.176              0.579
 Vibration    14          0.968              1.012              0.434
 Vibration    15          0.970              1.008              0.431

 Optimization completed.
    -- Stationary point found.
 Normal termination of Gaussian 09 at Wed Aug 25 23:45:23 2021.

 -----------------------------------------------------------------
 #P Geom=AllCheck Guess=TCheck SCRF=Check CCSD(T,E4T,FrzG4)/GTBas1
 -----------------------------------------------------------------

 Structure from the checkpoint file:  "/public/home/users/caep010/.cache/gau_scr/Gau-77888.chk"
 ------
 FUHSEG
 ------
 Charge =  0 Multiplicity = 1

 SCF Done:  E(RHF) =  -602.774717985     A.U. after   17 cycles
 E2 =    -0.1830749278D+01 EUMP2 =    -0.60460546726326D+03
 CCSD(T)
 CCSD(T)= -0.60472337070D+03
 DQ=-604.6387382\CCSD=-604.634557\CCSD(T)=-604.7233707\RMSD=3.376e-09\P
 Normal termination of Gaussian 09 at Thu Aug 26 01:00:39 2021.

 ---------------------------------------------------------
 #P Geom=AllCheck Guess=TCheck SCRF=Check MP4=FrzG4/GTBas2
 ---------------------------------------------------------

 Structure from the checkpoint file:  "/public/home/users/caep010/.cache/gau_scr/Gau-77888.chk"
 ------
 FUHSEG
 ------
 Charge =  0 Multiplicity = 1

 SCF Done:  E(RHF) =  -602.791288501     A.U. after   18 cycles
 E2 =    -0.1850829996D+01 EUMP2 =    -0.60464211849725D+03
 Normal termination of Gaussian 09 at Thu Aug 26 01:33:10 2021.

 ---------------------------------------------------------
 #P Geom=AllCheck Guess=TCheck SCRF=Check MP4=FrzG4/GTBas3
 ---------------------------------------------------------

 Structure from the checkpoint file:  "/public/home/users/caep010/.cache/gau_scr/Gau-77888.chk"
 ------
 FUHSEG
 ------
 Charge =  0 Multiplicity = 1

 SCF Done:  E(RHF) =  -602.832102035     A.U. after   13 cycles
 E2 =    -0.2167324171D+01 EUMP2 =    -0.60499942620629D+03
 Normal termination of Gaussian 09 at Thu Aug 26 05:42:16 2021.

 -----------------------------------------------------------
 #P Geom=AllCheck Guess=TCheck SCRF=Check MP2=Full/GTLargeXP
 -----------------------------------------------------------

 Structure from the checkpoint file:  "/public/home/users/caep010/.cache/gau_scr/Gau-77888.chk"
 ------
 FUHSEG
 ------
 Charge =  0 Multiplicity = 1

 SCF Done:  E(RHF) =  -602.973249738     A.U. after   15 cycles
 E2 =    -0.2857266717D+01 EUMP2 =    -0.60583051645589D+03
 Normal termination of Gaussian 09 at Thu Aug 26 05:55:01 2021.
 SCF Done:  E(RHF) =  -603.020828064     A.U. after    9 cycles
 Normal termination of Gaussian 09 at Thu Aug 26 06:01:08 2021.

                         Standard orientation:
 ---------------------------------------------------------------------
 Center     Atomic      Atomic             Coordinates (Angstroms)
 Number     Number       Type             X           Y           Z
 ---------------------------------------------------------------------
      1          8           0        3.749417    0.091557   -0.000040
      2          7           0        2.762582   -0.628592   -0.000014
      3          6           0        1.452652    0.062419    0.000009
      4          8           0        2.773344   -1.850968   -0.000025
      5          6           0        1.550641    1.477615    0.000020
      6          6           0        0.335986   -0.696012    0.000050
      7          6           0       -1.066977   -0.337471    0.000054
      8          6           0       -1.559170    0.982818    0.000014
      9          6           0       -2.926012    1.217301   -0.000043
     10          6           0       -3.828003    0.152302   -0.000057
     11          6           0       -3.357857   -1.159571   -0.000005
     12          7           0        1.573197    2.635638    0.000016
     13          6           0       -1.991970   -1.400648    0.000047
     14          1           0       -1.621430   -2.420730   -0.000017
     15          1           0        0.551836   -1.761362    0.000053
     16          1           0       -0.876676    1.821962    0.000004
     17          1           0       -3.292140    2.237906    0.000010
     18          1           0       -4.054478   -1.990583   -0.000055
     19          1           0       -4.895393    0.346259   -0.000024
 ---------------------------------------------------------------------

 SCF Done:  E(RHF) =  -603.029622379     A.U. after    7 cycles

 The electronic state is 1-A.
 Alpha  occ. eigenvalues --  -20.61550 -20.60999 -15.86983 -15.59503 -11.34638
 Alpha  occ. eigenvalues --  -11.33082 -11.30058 -11.28945 -11.28360 -11.27974
 Alpha  occ. eigenvalues --  -11.27797 -11.26921 -11.26783  -1.62048  -1.41523
 Alpha  occ. eigenvalues --   -1.24619  -1.20528  -1.16399  -1.07905  -1.05663
 Alpha  occ. eigenvalues --   -0.97743  -0.90365  -0.86571  -0.85467  -0.80044
 Alpha  occ. eigenvalues --   -0.75798  -0.73668  -0.73241  -0.70203  -0.68411
 Alpha  occ. eigenvalues --   -0.64257  -0.62895  -0.61680  -0.58053  -0.56582
 Alpha  occ. eigenvalues --   -0.55171  -0.53367  -0.53149  -0.52161  -0.51079
 Alpha  occ. eigenvalues --   -0.47762  -0.46926  -0.44569  -0.37579  -0.35715
 Alpha virt. eigenvalues --   -0.00149   0.02389   0.03241   0.04197   0.04671
 Alpha virt. eigenvalues --    0.05259   0.05649   0.06527   0.06621   0.06962
 Alpha virt. eigenvalues --    0.07331   0.07396   0.07790   0.08272   0.08850

 Mulliken charges:
               1
     1  O   -0.402173
     2  N    0.578814
     3  C    0.098648
     4  O   -0.453377
     5  C    0.114680
     6  C    0.064841
     7  C    0.349326
     8  C   -0.368260
     9  C   -0.212676
    10  C   -0.190777
    11  C   -0.231035
    12  N   -0.424651
    13  C   -0.281523
    14  H    0.202883
    15  H    0.263495
    16  H    0.234009
    17  H    0.223814
    18  H    0.216522
    19  H    0.217441
 Sum of Mulliken charges =  -0.00000

 Dipole moment (field-independent basis, Debye):
    X=             -7.3403    Y=             -2.3153    Z=              0.0001  Tot=              7.6968
 Quadrupole moment (field-independent basis, Debye-Ang):
   XX=            -79.7276   YY=            -80.8011   ZZ=            -76.8976
   XY=             -0.8827   XZ=              0.0003   YZ=              0.0001

 Normal termination of Gaussian 09 at Thu Aug 26 06:41:21 2021.
