 Gaussian 09, Revision E.01,
 Gaussian 09:  ES64L-G09RevE.01 30-Nov-2015

 ----------------
 #P G4 OPT=calcfc
 ----------------

 --------
 FESNIA01
 --------
 Symbolic Z-matrix:
 Charge =  0 Multiplicity = 1

 SCF Done:  E(RB3LYP) =  -755.781841919     A.U. after   16 cycles
 SCF Done:  E(RB3LYP) =  -755.802089865     A.U. after   16 cycles
 SCF Done:  E(RB3LYP) =  -755.804067378     A.U. after   17 cycles
 SCF Done:  E(RB3LYP) =  -755.804463329     A.U. after   15 cycles
 SCF Done:  E(RB3LYP) =  -755.804929814     A.U. after   15 cycles
 SCF Done:  E(RB3LYP) =  -755.804231528     A.U. after   17 cycles
 SCF Done:  E(RB3LYP) =  -755.804995847     A.U. after   12 cycles
 SCF Done:  E(RB3LYP) =  -755.804770963     A.U. after   16 cycles
 SCF Done:  E(RB3LYP) =  -755.805055441     A.U. after   12 cycles
 SCF Done:  E(RB3LYP) =  -755.805225339     A.U. after   15 cycles
 SCF Done:  E(RB3LYP) =  -755.805634274     A.U. after   12 cycles
 SCF Done:  E(RB3LYP) =  -755.805634768     A.U. after    9 cycles
 SCF Done:  E(RB3LYP) =  -755.805634841     A.U. after    8 cycles
 Optimization completed.
    -- Stationary point found.
 Normal termination of Gaussian 09 at Thu Aug 26 10:30:55 2021.

 ----------------------------------------------------------
 #P Geom=AllCheck Guess=TCheck SCRF=Check B3LYP/GTBas3 Freq
 ----------------------------------------------------------

 Structure from the checkpoint file:  "/public/home/users/caep010/.cache/gau_scr/Gau-167976.chk"
 --------
 FESNIA01
 --------
 Charge =  0 Multiplicity = 1

 SCF Done:  E(RB3LYP) =  -755.805634841     A.U. after    1 cycles

  Exact polarizability: 136.360  -0.000 132.633  -0.001  -0.378  56.053
 Approx polarizability: 221.022   0.002 247.773  -0.003   9.079  99.558

                      1                      2                      3
                      A                      A                      A
 Frequencies --     31.1754                54.9759                73.8745
 Red. masses --     14.7039                12.1445                 5.9999
 Frc consts  --      0.0084                 0.0216                 0.0193
 IR Inten    --      0.0979                 0.4182                 4.7927

                      4                      5                      6
                      A                      A                      A
 Frequencies --    109.0360               170.9415               181.4366
 Red. masses --      1.1361                 4.4390                 6.2525
 Frc consts  --      0.0080                 0.0764                 0.1213
 IR Inten    --      0.8676                 1.3137                 0.2449

                      7                      8                      9
                      A                      A                      A
 Frequencies --    192.4122               231.7928               270.4448
 Red. masses --      7.3530                 2.6520                 9.3495
 Frc consts  --      0.1604                 0.0839                 0.4029
 IR Inten    --      5.0730                 6.5215                 0.7294

                     10                     11                     12
                      A                      A                      A
 Frequencies --    304.2725               340.5696               364.0186
 Red. masses --      6.2983                 8.8498                 8.3720
 Frc consts  --      0.3436                 0.6048                 0.6536
 IR Inten    --      3.8741                 0.5468                 1.0558

                     13                     14                     15
                      A                      A                      A
 Frequencies --    400.2833               468.4022               497.2081
 Red. masses --      7.3836                 6.3090                 7.5842
 Frc consts  --      0.6970                 0.8156                 1.1047
 IR Inten    --      0.6352                 0.8428                 0.9795

                     16                     17                     18
                      A                      A                      A
 Frequencies --    559.0898               597.6768               644.2556
 Red. masses --      5.1409                 4.5626                 5.7864
 Frc consts  --      0.9468                 0.9603                 1.4151
 IR Inten    --      5.6591                 7.2082                 0.0056

                     19                     20                     21
                      A                      A                      A
 Frequencies --    718.0484               723.9052               781.5559
 Red. masses --      9.6042                 9.7566                 1.9054
 Frc consts  --      2.9175                 3.0124                 0.6857
 IR Inten    --     13.9813                42.8693                31.1126

                     22                     23                     24
                      A                      A                      A
 Frequencies --    789.6259               807.5892               852.3106
 Red. masses --      8.8324                 4.5023                 5.3884
 Frc consts  --      3.2447                 1.7301                 2.3063
 IR Inten    --      1.5420                 6.4986                 8.2713

                     25                     26                     27
                      A                      A                      A
 Frequencies --    865.0533               923.2144               963.5543
 Red. masses --      4.7595                10.4175                 1.4235
 Frc consts  --      2.0984                 5.2314                 0.7787
 IR Inten    --      9.5507                49.9777                 1.3347

                     28                     29                     30
                      A                      A                      A
 Frequencies --    983.2548              1007.3012              1113.3356
 Red. masses --      1.3104                 9.1130                 1.7112
 Frc consts  --      0.7464                 5.4479                 1.2497
 IR Inten    --      2.2552                85.0092                33.9056

                     31                     32                     33
                      A                      A                      A
 Frequencies --   1156.5886              1162.3682              1185.6765
 Red. masses --      9.1350                 1.2244                 1.1770
 Frc consts  --      7.1997                 0.9746                 0.9749
 IR Inten    --      5.5166                 0.2252                 0.1962

                     34                     35                     36
                      A                      A                      A
 Frequencies --   1208.3479              1226.1275              1280.2878
 Red. masses --      1.3430                 1.9642                 3.7945
 Frc consts  --      1.1553                 1.7399                 3.6646
 IR Inten    --      1.8894                17.8873                72.5574

                     37                     38                     39
                      A                      A                      A
 Frequencies --   1327.8577              1390.7051              1399.3438
 Red. masses --      7.7849                14.2489                 8.4702
 Frc consts  --      8.0873                16.2368                 9.7722
 IR Inten    --     14.3178               404.3488                40.8678

                     40                     41                     42
                      A                      A                      A
 Frequencies --   1443.4083              1474.5329              1492.5190
 Red. masses --      1.6767                 2.3810                 1.0520
 Frc consts  --      2.0582                 3.0501                 1.3808
 IR Inten    --     40.4656                 0.1689                 3.7563

                     43                     44                     45
                      A                      A                      A
 Frequencies --   1496.1588              1506.2801              1598.2645
 Red. masses --      1.3014                 1.5490                 7.0605
 Frc consts  --      1.7164                 2.0707                10.6263
 IR Inten    --     26.0942                35.3509                 6.6833

                     46                     47                     48
                      A                      A                      A
 Frequencies --   1616.1309              1638.3096              1665.9016
 Red. masses --      7.7057                12.5786                10.6070
 Frc consts  --     11.8581                19.8918                17.3437
 IR Inten    --    139.8395                66.8551               370.3274

                     49                     50                     51
                      A                      A                      A
 Frequencies --   3070.4535              3164.4197              3168.0049
 Red. masses --      1.0274                 1.1075                 1.1063
 Frc consts  --      5.7067                 6.5339                 6.5417
 IR Inten    --     42.7734                 5.4595                 9.4757

                     52                     53                     54
                      A                      A                      A
 Frequencies --   3208.7288              3230.1453              3233.4637
 Red. masses --      1.0882                 1.0908                 1.0955
 Frc consts  --      6.6012                 6.7054                 6.7486
 IR Inten    --      2.5149                 4.0173                 0.1323

 - Thermochemistry -
 -------------------
 Temperature   298.150 Kelvin.  Pressure   1.00000 Atm.
 Atom     1 has atomic number  8 and mass  15.99491

 Molecular mass:   198.02767 amu.
 Principal axes and moments of inertia in atomic units:
                           1         2         3
     Eigenvalues --  1527.286843142.711064457.53712
           X            1.00000  -0.00000  -0.00000
           Y            0.00000   0.99999   0.00505
           Z            0.00000  -0.00505   0.99999
 This molecule is an asymmetric top.
 Rotational symmetry number  1.
 Warning -- assumption of classical behavior for rotation
           may cause significant error
 Rotational temperatures (Kelvin)      0.05671     0.02756     0.01943
 Rotational constants (GHZ):           1.18166     0.57426     0.40487
 Zero-point vibrational energy     361060.7 (Joules/Mol)
                                   86.29558 (Kcal/Mol)
 Warning -- explicit consideration of  17 degrees of freedom as
           vibrations may cause significant error
 Vibrational temperatures:     44.85    79.10   106.29   156.88   245.95
          (Kelvin)            261.05   276.84   333.50   389.11   437.78
                              490.00   523.74   575.92   673.93   715.37
                              804.40   859.92   926.94  1033.11  1041.54
                             1124.48  1136.09  1161.94  1226.28  1244.62
                             1328.30  1386.34  1414.68  1449.28  1601.84
                             1664.07  1672.39  1705.92  1738.54  1764.12
                             1842.05  1910.49  2000.91  2013.34  2076.74
                             2121.52  2147.40  2152.64  2167.20  2299.54
                             2325.25  2357.16  2396.86  4417.69  4552.89
                             4558.05  4616.64  4647.45  4652.23

 Zero-point correction=                           0.137521 (Hartree/Particle)
 Thermal correction to Energy=                    0.149628
 Thermal correction to Enthalpy=                  0.150572
 Thermal correction to Gibbs Free Energy=         0.097754
 Sum of electronic and zero-point Energies=           -755.668114
 Sum of electronic and thermal Energies=              -755.656007
 Sum of electronic and thermal Enthalpies=            -755.655063
 Sum of electronic and thermal Free Energies=         -755.707881

                     E (Thermal)             CV                S
                      KCal/Mol        Cal/Mol-Kelvin    Cal/Mol-Kelvin
 Total                   93.893             43.664            111.164
 Electronic               0.000              0.000              0.000
 Translational            0.889              2.981             41.755
 Rotational               0.889              2.981             31.437
 Vibrational             92.115             37.702             37.973
 Vibration     1          0.594              1.983              5.753
 Vibration     2          0.596              1.976              4.630
 Vibration     3          0.599              1.966              4.047
 Vibration     4          0.606              1.942              3.286
 Vibration     5          0.626              1.878              2.425
 Vibration     6          0.630              1.865              2.314
 Vibration     7          0.634              1.850              2.204
 Vibration     8          0.653              1.792              1.865
 Vibration     9          0.674              1.728              1.593
 Vibration    10          0.695              1.666              1.393
 Vibration    11          0.720              1.594              1.209
 Vibration    12          0.738              1.546              1.105
 Vibration    13          0.766              1.470              0.962
 Vibration    14          0.826              1.320              0.742
 Vibration    15          0.853              1.256              0.665
 Vibration    16          0.915              1.120              0.526
 Vibration    17          0.956              1.037              0.454

 Optimization completed.
    -- Stationary point found.
 Normal termination of Gaussian 09 at Thu Aug 26 10:34:33 2021.

 -----------------------------------------------------------------
 #P Geom=AllCheck Guess=TCheck SCRF=Check CCSD(T,E4T,FrzG4)/GTBas1
 -----------------------------------------------------------------

 Structure from the checkpoint file:  "/public/home/users/caep010/.cache/gau_scr/Gau-167976.chk"
 --------
 FESNIA01
 --------
 Charge =  0 Multiplicity = 1

 SCF Done:  E(RHF) =  -751.491398773     A.U. after   16 cycles
 E2 =    -0.2150391654D+01 EUMP2 =    -0.75364179042653D+03
 CCSD(T)
 CCSD(T)= -0.75375403170D+03
 91\CCSD(T)=-753.7540317\RMSD=7.306e-09\PG=C01 [X(C7H6N2O5)]\\@
 Normal termination of Gaussian 09 at Thu Aug 26 13:01:01 2021.

 ---------------------------------------------------------
 #P Geom=AllCheck Guess=TCheck SCRF=Check MP4=FrzG4/GTBas2
 ---------------------------------------------------------

 Structure from the checkpoint file:  "/public/home/users/caep010/.cache/gau_scr/Gau-167976.chk"
 --------
 FESNIA01
 --------
 Charge =  0 Multiplicity = 1

 SCF Done:  E(RHF) =  -751.512207702     A.U. after   21 cycles
 E2 =    -0.2180737746D+01 EUMP2 =    -0.75369294544770D+03
 Normal termination of Gaussian 09 at Thu Aug 26 13:55:02 2021.

 ---------------------------------------------------------
 #P Geom=AllCheck Guess=TCheck SCRF=Check MP4=FrzG4/GTBas3
 ---------------------------------------------------------

 Structure from the checkpoint file:  "/public/home/users/caep010/.cache/gau_scr/Gau-167976.chk"
 --------
 FESNIA01
 --------
 Charge =  0 Multiplicity = 1

 SCF Done:  E(RHF) =  -751.567138746     A.U. after   12 cycles
 E2 =    -0.2573669262D+01 EUMP2 =    -0.75414080800762D+03
 Normal termination of Gaussian 09 at Thu Aug 26 21:56:12 2021.

 -----------------------------------------------------------
 #P Geom=AllCheck Guess=TCheck SCRF=Check MP2=Full/GTLargeXP
 -----------------------------------------------------------

 Structure from the checkpoint file:  "/public/home/users/caep010/.cache/gau_scr/Gau-167976.chk"
 --------
 FESNIA01
 --------
 Charge =  0 Multiplicity = 1

 SCF Done:  E(RHF) =  -751.756641839     A.U. after   15 cycles
 E2 =    -0.3355320740D+01 EUMP2 =    -0.75511196257953D+03
 Normal termination of Gaussian 09 at Thu Aug 26 22:12:26 2021.
 SCF Done:  E(RHF) =  -751.817133303     A.U. after   10 cycles
 Normal termination of Gaussian 09 at Thu Aug 26 22:20:57 2021.

                         Standard orientation:
 ---------------------------------------------------------------------
 Center     Atomic      Atomic             Coordinates (Angstroms)
 Number     Number       Type             X           Y           Z
 ---------------------------------------------------------------------
      1          8           0       -0.000015   -1.549212    0.458576
      2          6           0        0.000100   -2.560236   -0.573066
      3          1           0       -0.903411   -2.475385   -1.177562
      4          1           0        0.000683   -3.510084   -0.038612
      5          1           0        0.903164   -2.474652   -1.178122
      6          6           0       -0.000013   -0.260430    0.083035
      7          6           0       -1.191625    0.485667   -0.037610
      8          7           0       -2.512559   -0.142017    0.162362
      9          8           0       -2.661537   -1.310060   -0.162185
     10          8           0       -3.389204    0.571945    0.631264
     11          6           0        1.191611    0.485669   -0.037650
     12          6           0       -1.196838    1.851935   -0.295832
     13          6           0       -0.000015    2.535759   -0.454276
     14          1           0       -2.152088    2.356520   -0.357084
     15          1           0       -0.000023    3.596623   -0.671729
     16          6           0        1.196807    1.851939   -0.295874
     17          1           0        2.152054    2.356534   -0.357126
     18          7           0        2.512540   -0.141999    0.162392
     19          8           0        2.661436   -1.310150   -0.161805
     20          8           0        3.389268    0.572071    0.630974
 ---------------------------------------------------------------------

 SCF Done:  E(RHF) =  -751.829000499     A.U. after    8 cycles

 The electronic state is 1-A.
 Alpha  occ. eigenvalues --  -20.61691 -20.61691 -20.61504 -20.61503 -20.60774
 Alpha  occ. eigenvalues --  -15.87097 -15.87096 -11.38175 -11.33621 -11.33618
 Alpha  occ. eigenvalues --  -11.30680 -11.30677 -11.29183 -11.28518  -1.62326
 Alpha  occ. eigenvalues --   -1.62289  -1.44421  -1.41638  -1.41479  -1.22902
 Alpha  occ. eigenvalues --   -1.14186  -1.09598  -1.00706  -0.98093  -0.95142
 Alpha  occ. eigenvalues --   -0.86379  -0.85364  -0.80646  -0.77494  -0.74839
 Alpha  occ. eigenvalues --   -0.74826  -0.74407  -0.73999  -0.72684  -0.70171
 Alpha  occ. eigenvalues --   -0.69031  -0.66165  -0.63412  -0.60113  -0.59975
 Alpha  occ. eigenvalues --   -0.56472  -0.53981  -0.51889  -0.51613  -0.50808
 Alpha  occ. eigenvalues --   -0.50726  -0.48642  -0.46966  -0.46286  -0.40932
 Alpha  occ. eigenvalues --   -0.38679
 Alpha virt. eigenvalues --    0.01728   0.02431   0.03389   0.04213   0.04357
 Alpha virt. eigenvalues --    0.04966   0.05587   0.05989   0.06250   0.06608
 Alpha virt. eigenvalues --    0.07705   0.08222   0.08500   0.08580   0.08996

 Mulliken charges:
               1
     1  O   -0.366286
     2  C   -0.401518
     3  H    0.202613
     4  H    0.207031
     5  H    0.202599
     6  C    0.244385
     7  C    0.194047
     8  N    0.493448
     9  O   -0.402252
    10  O   -0.426750
    11  C    0.194025
    12  C   -0.204127
    13  C   -0.148077
    14  H    0.258332
    15  H    0.233860
    16  C   -0.204123
    17  H    0.258343
    18  N    0.493476
    19  O   -0.402256
    20  O   -0.426770
 Sum of Mulliken charges =  -0.00000

 Dipole moment (field-independent basis, Debye):
    X=              0.0000    Y=              3.0943    Z=             -2.5448  Tot=              4.0063
 Quadrupole moment (field-independent basis, Debye-Ang):
   XX=           -104.6573   YY=            -68.3279   ZZ=            -80.1651
   XY=             -0.0013   XZ=             -0.0001   YZ=             -1.2954

 Normal termination of Gaussian 09 at Thu Aug 26 23:18:16 2021.
