 Gaussian 09, Revision E.01,
 Gaussian 09:  ES64L-G09RevE.01 30-Nov-2015

 ----------------
 #P G4 OPT=calcfc
 ----------------

 --------
 FESNEW16
 --------
 Symbolic Z-matrix:
 Charge =  0 Multiplicity = 1

 SCF Done:  E(RB3LYP) =  -755.710298728     A.U. after   16 cycles
 SCF Done:  E(RB3LYP) =  -755.789216989     A.U. after   13 cycles
 SCF Done:  E(RB3LYP) =  -755.817900270     A.U. after   15 cycles
 SCF Done:  E(RB3LYP) =  -755.818747007     A.U. after   15 cycles
 SCF Done:  E(RB3LYP) =  -755.818699919     A.U. after   16 cycles
 SCF Done:  E(RB3LYP) =  -755.818934798     A.U. after   16 cycles
 SCF Done:  E(RB3LYP) =  -755.818971139     A.U. after   13 cycles
 SCF Done:  E(RB3LYP) =  -755.818975907     A.U. after   12 cycles
 SCF Done:  E(RB3LYP) =  -755.818976165     A.U. after    8 cycles
 Optimization completed.
    -- Stationary point found.
 Normal termination of Gaussian 09 at Thu Aug 26 08:50:13 2021.

 ----------------------------------------------------------
 #P Geom=AllCheck Guess=TCheck SCRF=Check B3LYP/GTBas3 Freq
 ----------------------------------------------------------

 Structure from the checkpoint file:  "/public/home/users/caep010/.cache/gau_scr/Gau-149742.chk"
 --------
 FESNEW16
 --------
 Charge =  0 Multiplicity = 1

 SCF Done:  E(RB3LYP) =  -755.818976165     A.U. after    2 cycles

  Exact polarizability: 159.068   5.414 126.300   2.441   2.056  53.810
 Approx polarizability: 260.744   7.826 233.608  13.302  10.226  93.568

                      1                      2                      3
                      A                      A                      A
 Frequencies --     44.8952                58.2357                78.5537
 Red. masses --     14.1467                12.3893                 4.0850
 Frc consts  --      0.0168                 0.0248                 0.0149
 IR Inten    --      0.6514                 0.3053                 0.1325

                      4                      5                      6
                      A                      A                      A
 Frequencies --    122.0009               158.3748               162.2217
 Red. masses --      4.6635                 5.4938                11.5348
 Frc consts  --      0.0409                 0.0812                 0.1788
 IR Inten    --      2.6971                 5.4938                 3.2489

                      7                      8                      9
                      A                      A                      A
 Frequencies --    196.5120               241.7341               301.3793
 Red. masses --      4.6274                 1.1530                 5.9476
 Frc consts  --      0.1053                 0.0397                 0.3183
 IR Inten    --      0.6349                 0.0310                 2.3179

                     10                     11                     12
                      A                      A                      A
 Frequencies --    320.8680               341.5655               373.8803
 Red. masses --      5.6858                11.1836                 7.9014
 Frc consts  --      0.3449                 0.7687                 0.6508
 IR Inten    --      0.3310                 0.5993                 0.9603

                     13                     14                     15
                      A                      A                      A
 Frequencies --    408.2187               472.1602               528.3494
 Red. masses --      5.0452                 4.5960                 6.0573
 Frc consts  --      0.4954                 0.6037                 0.9963
 IR Inten    --      1.9051                 0.2449                 2.0014

                     16                     17                     18
                      A                      A                      A
 Frequencies --    544.4059               623.9057               648.2309
 Red. masses --      4.4047                 5.1662                 6.8035
 Frc consts  --      0.7692                 1.1848                 1.6844
 IR Inten    --      2.4575                 0.2767                13.2949

                     19                     20                     21
                      A                      A                      A
 Frequencies --    693.6499               729.0436               777.2146
 Red. masses --      6.7106                 5.5559                 5.2526
 Frc consts  --      1.9024                 1.7399                 1.8694
 IR Inten    --     23.6024                24.8761                24.0745

                     22                     23                     24
                      A                      A                      A
 Frequencies --    793.3947               806.4454               849.5654
 Red. masses --      4.5229                 6.3694                12.6264
 Frc consts  --      1.6774                 2.4406                 5.3694
 IR Inten    --      2.8575                 5.2299                25.6417

                     25                     26                     27
                      A                      A                      A
 Frequencies --    852.3889               936.5342               967.8875
 Red. masses --      1.8246                 7.6845                 1.4204
 Frc consts  --      0.7811                 3.9711                 0.7840
 IR Inten    --     20.0279                34.6745                 6.8836

                     28                     29                     30
                      A                      A                      A
 Frequencies --    985.2462              1049.6283              1084.7805
 Red. masses --      1.4072                 7.2141                 1.9213
 Frc consts  --      0.8048                 4.6828                 1.3321
 IR Inten    --      3.3422                46.8574                83.1016

                     31                     32                     33
                      A                      A                      A
 Frequencies --   1156.4831              1163.7206              1172.8895
 Red. masses --      4.8725                 1.3315                 1.2720
 Frc consts  --      3.8395                 1.0624                 1.0310
 IR Inten    --     12.9563                51.5921                 1.1360

                     34                     35                     36
                      A                      A                      A
 Frequencies --   1209.6033              1270.7676              1323.0872
 Red. masses --      1.3565                 1.5507                 3.5357
 Frc consts  --      1.1694                 1.4754                 3.6468
 IR Inten    --      4.3526                 6.9797               321.6111

                     37                     38                     39
                      A                      A                      A
 Frequencies --   1361.3365              1386.4668              1402.3942
 Red. masses --      8.4899                13.4113                11.2574
 Frc consts  --      9.2701                15.1894                13.0445
 IR Inten    --     30.2952               465.2559               103.5537

                     40                     41                     42
                      A                      A                      A
 Frequencies --   1441.8404              1475.9990              1494.9032
 Red. masses --      4.0935                 1.3221                 1.0467
 Frc consts  --      5.0139                 1.6970                 1.3781
 IR Inten    --      3.0722                31.2588                 8.3653

                     43                     44                     45
                      A                      A                      A
 Frequencies --   1501.6403              1527.2368              1599.4312
 Red. masses --      1.0748                 2.5948                 9.7339
 Frc consts  --      1.4279                 3.5659                14.6713
 IR Inten    --     29.9674                74.1643                48.5226

                     46                     47                     48
                      A                      A                      A
 Frequencies --   1621.5637              1654.7203              1662.4519
 Red. masses --      9.1551                 9.8758                10.4518
 Frc consts  --     14.1834                15.9321                17.0193
 IR Inten    --     37.1228               176.7455               352.8444

                     49                     50                     51
                      A                      A                      A
 Frequencies --   3024.4475              3095.0351              3159.4924
 Red. masses --      1.0337                 1.1060                 1.1007
 Frc consts  --      5.5713                 6.2421                 6.4739
 IR Inten    --     39.1381                22.4659                 9.2661

                     52                     53                     54
                      A                      A                      A
 Frequencies --   3226.7875              3239.3950              3254.2681
 Red. masses --      1.0871                 1.0940                 1.0907
 Frc consts  --      6.6693                 6.7638                 6.8058
 IR Inten    --      1.7440                 3.7192                17.1012

 - Thermochemistry -
 -------------------
 Temperature   298.150 Kelvin.  Pressure   1.00000 Atm.
 Atom     1 has atomic number  6 and mass  12.00000

 Molecular mass:   198.02767 amu.
 Principal axes and moments of inertia in atomic units:
                           1         2         3
     Eigenvalues --  1624.062303695.346045234.77304
           X            0.99919   0.04028  -0.00141
           Y           -0.04029   0.99919  -0.00233
           Z            0.00132   0.00239   1.00000
 This molecule is an asymmetric top.
 Rotational symmetry number  1.
 Warning -- assumption of classical behavior for rotation
           may cause significant error
 Rotational temperatures (Kelvin)      0.05333     0.02344     0.01655
 Rotational constants (GHZ):           1.11125     0.48838     0.34476
 Zero-point vibrational energy     362332.3 (Joules/Mol)
                                   86.59950 (Kcal/Mol)
 Warning -- explicit consideration of  16 degrees of freedom as
           vibrations may cause significant error
 Vibrational temperatures:     64.59    83.79   113.02   175.53   227.87
          (Kelvin)            233.40   282.74   347.80   433.62   461.66
                              491.44   537.93   587.33   679.33   760.18
                              783.28   897.66   932.66   998.01  1048.93
                             1118.24  1141.52  1160.29  1222.33  1226.40
                             1347.46  1392.57  1417.55  1510.18  1560.76
                             1663.92  1674.33  1687.52  1740.35  1828.35
                             1903.63  1958.66  1994.81  2017.73  2074.48
                             2123.63  2150.83  2160.52  2197.35  2301.22
                             2333.07  2380.77  2391.89  4351.50  4453.06
                             4545.80  4642.62  4660.76  4682.16

 Zero-point correction=                           0.138005 (Hartree/Particle)
 Thermal correction to Energy=                    0.149964
 Thermal correction to Enthalpy=                  0.150908
 Thermal correction to Gibbs Free Energy=         0.098565
 Sum of electronic and zero-point Energies=           -755.680971
 Sum of electronic and thermal Energies=              -755.669012
 Sum of electronic and thermal Enthalpies=            -755.668068
 Sum of electronic and thermal Free Energies=         -755.720411

                     E (Thermal)             CV                S
                      KCal/Mol        Cal/Mol-Kelvin    Cal/Mol-Kelvin
 Total                   94.104             43.381            110.166
 Electronic               0.000              0.000              0.000
 Translational            0.889              2.981             41.755
 Rotational               0.889              2.981             31.819
 Vibrational             92.326             37.419             36.592
 Vibration     1          0.595              1.979              5.030
 Vibration     2          0.596              1.974              4.516
 Vibration     3          0.600              1.964              3.927
 Vibration     4          0.610              1.931              3.068
 Vibration     5          0.621              1.893              2.569
 Vibration     6          0.622              1.889              2.524
 Vibration     7          0.636              1.845              2.166
 Vibration     8          0.658              1.776              1.790
 Vibration     9          0.693              1.671              1.409
 Vibration    10          0.706              1.634              1.306
 Vibration    11          0.721              1.592              1.205
 Vibration    12          0.745              1.526              1.064
 Vibration    13          0.773              1.452              0.933
 Vibration    14          0.829              1.312              0.732
 Vibration    15          0.883              1.187              0.591
 Vibration    16          0.900              1.152              0.556

 Optimization completed.
    -- Stationary point found.
 Normal termination of Gaussian 09 at Thu Aug 26 08:53:36 2021.

 -----------------------------------------------------------------
 #P Geom=AllCheck Guess=TCheck SCRF=Check CCSD(T,E4T,FrzG4)/GTBas1
 -----------------------------------------------------------------

 Structure from the checkpoint file:  "/public/home/users/caep010/.cache/gau_scr/Gau-149742.chk"
 --------
 FESNEW16
 --------
 Charge =  0 Multiplicity = 1

 SCF Done:  E(RHF) =  -751.504041784     A.U. after   16 cycles
 E2 =    -0.2147156868D+01 EUMP2 =    -0.75365119865210D+03
 CCSD(T)
 CCSD(T)= -0.75376363901D+03
 \MP4SDTQ=-753.7887202\MP4SDQ=-753.6748327\CCSD=-753.6670377\CCSD(T)=-7
 Normal termination of Gaussian 09 at Thu Aug 26 11:28:25 2021.

 ---------------------------------------------------------
 #P Geom=AllCheck Guess=TCheck SCRF=Check MP4=FrzG4/GTBas2
 ---------------------------------------------------------

 Structure from the checkpoint file:  "/public/home/users/caep010/.cache/gau_scr/Gau-149742.chk"
 --------
 FESNEW16
 --------
 Charge =  0 Multiplicity = 1

 SCF Done:  E(RHF) =  -751.525001802     A.U. after   22 cycles
 E2 =    -0.2176553111D+01 EUMP2 =    -0.75370155491285D+03
 Normal termination of Gaussian 09 at Thu Aug 26 12:23:40 2021.

 ---------------------------------------------------------
 #P Geom=AllCheck Guess=TCheck SCRF=Check MP4=FrzG4/GTBas3
 ---------------------------------------------------------

 Structure from the checkpoint file:  "/public/home/users/caep010/.cache/gau_scr/Gau-149742.chk"
 --------
 FESNEW16
 --------
 Charge =  0 Multiplicity = 1

 SCF Done:  E(RHF) =  -751.580186419     A.U. after   12 cycles
 E2 =    -0.2569818431D+01 EUMP2 =    -0.75415000484999D+03
 Normal termination of Gaussian 09 at Thu Aug 26 20:18:01 2021.

 -----------------------------------------------------------
 #P Geom=AllCheck Guess=TCheck SCRF=Check MP2=Full/GTLargeXP
 -----------------------------------------------------------

 Structure from the checkpoint file:  "/public/home/users/caep010/.cache/gau_scr/Gau-149742.chk"
 --------
 FESNEW16
 --------
 Charge =  0 Multiplicity = 1

 SCF Done:  E(RHF) =  -751.770415574     A.U. after   14 cycles
 E2 =    -0.3352366870D+01 EUMP2 =    -0.75512278244463D+03
 Normal termination of Gaussian 09 at Thu Aug 26 20:33:06 2021.
 SCF Done:  E(RHF) =  -751.831262575     A.U. after   10 cycles
 Normal termination of Gaussian 09 at Thu Aug 26 20:41:10 2021.

                         Standard orientation:
 ---------------------------------------------------------------------
 Center     Atomic      Atomic             Coordinates (Angstroms)
 Number     Number       Type             X           Y           Z
 ---------------------------------------------------------------------
      1          6           0       -1.180263   -0.731882    0.012308
      2          6           0       -0.656353    0.583072   -0.000510
      3          6           0       -0.265431   -1.798648    0.005813
      4          7           0       -1.533029    1.767780   -0.025362
      5          1           0       -0.627630   -2.817048    0.019363
      6          6           0        0.707167    0.817976    0.004823
      7          6           0        1.576204   -0.262168   -0.014849
      8          6           0        1.100562   -1.568174   -0.016415
      9          1           0        1.807429   -2.386957   -0.028834
     10          1           0        1.081742    1.831411    0.020307
     11          7           0        3.022401   -0.019097   -0.031322
     12          8           0       -2.503851   -0.889130    0.069188
     13          6           0       -3.051576   -2.202300    0.126564
     14          1           0       -4.131157   -2.063518    0.173254
     15          1           0       -2.795798   -2.778246   -0.769667
     16          1           0       -2.710693   -2.737101    1.020176
     17          8           0       -2.607694    1.672927   -0.596141
     18          8           0       -1.100933    2.781313    0.509227
     19          8           0        3.401026    1.144571   -0.035147
     20          8           0        3.757533   -0.999251   -0.040155
 ---------------------------------------------------------------------

 SCF Done:  E(RHF) =  -751.843142522     A.U. after    8 cycles

 The electronic state is 1-A.
 Alpha  occ. eigenvalues --  -20.63454 -20.61161 -20.61078 -20.61040 -20.60673
 Alpha  occ. eigenvalues --  -15.86653 -15.86419 -11.38203 -11.33150 -11.32433
 Alpha  occ. eigenvalues --  -11.32210 -11.31139 -11.30956 -11.28553  -1.61700
 Alpha  occ. eigenvalues --   -1.61562  -1.47075  -1.41111  -1.40886  -1.23165
 Alpha  occ. eigenvalues --   -1.13533  -1.10144  -1.02011  -0.98995  -0.95302
 Alpha  occ. eigenvalues --   -0.87622  -0.84076  -0.80757  -0.76500  -0.76026
 Alpha  occ. eigenvalues --   -0.75209  -0.73691  -0.73305  -0.73015  -0.70625
 Alpha  occ. eigenvalues --   -0.69774  -0.67249  -0.63824  -0.63230  -0.58796
 Alpha  occ. eigenvalues --   -0.58152  -0.55159  -0.52596  -0.51157  -0.50869
 Alpha  occ. eigenvalues --   -0.50642  -0.49671  -0.46766  -0.46047  -0.40717
 Alpha  occ. eigenvalues --   -0.37826
 Alpha virt. eigenvalues --    0.01877   0.02327   0.03326   0.03452   0.04311
 Alpha virt. eigenvalues --    0.04840   0.05679   0.05788   0.06697   0.06897
 Alpha virt. eigenvalues --    0.07343   0.08285   0.08479   0.08868   0.09109

 Mulliken charges:
               1
     1  C    0.324030
     2  C    0.104723
     3  C   -0.179642
     4  N    0.493432
     5  H    0.225049
     6  C   -0.178059
     7  C    0.109337
     8  C   -0.225193
     9  H    0.271178
    10  H    0.301455
    11  N    0.543341
    12  O   -0.263918
    13  C   -0.416171
    14  H    0.221162
    15  H    0.184396
    16  H    0.185008
    17  O   -0.397199
    18  O   -0.430604
    19  O   -0.431507
    20  O   -0.440819
 Sum of Mulliken charges =  -0.00000

 Dipole moment (field-independent basis, Debye):
    X=             -3.1196    Y=             -6.4792    Z=              0.1725  Tot=              7.1932
 Quadrupole moment (field-independent basis, Debye-Ang):
   XX=            -98.2918   YY=            -78.6506   ZZ=            -79.6814
   XY=             12.6538   XZ=             -1.7860   YZ=             -1.3049

 Normal termination of Gaussian 09 at Thu Aug 26 21:35:08 2021.
