 Gaussian 09, Revision E.01,
 Gaussian 09:  ES64L-G09RevE.01 30-Nov-2015

 ----------------
 #P G4 OPT=calcfc
 ----------------

 ------
 GADFID
 ------
 Symbolic Z-matrix:
 Charge =  0 Multiplicity = 1

 SCF Done:  E(RB3LYP) =  -681.275750186     A.U. after   15 cycles
 SCF Done:  E(RB3LYP) =  -681.386285342     A.U. after   14 cycles
 SCF Done:  E(RB3LYP) =  -681.462602575     A.U. after   14 cycles
 SCF Done:  E(RB3LYP) =  -681.463671391     A.U. after   14 cycles
 SCF Done:  E(RB3LYP) =  -681.460182626     A.U. after   14 cycles
 SCF Done:  E(RB3LYP) =  -681.463723031     A.U. after   10 cycles
 SCF Done:  E(RB3LYP) =  -681.464290519     A.U. after   13 cycles
 SCF Done:  E(RB3LYP) =  -681.464333414     A.U. after   11 cycles
 SCF Done:  E(RB3LYP) =  -681.464341162     A.U. after   10 cycles
 SCF Done:  E(RB3LYP) =  -681.464342400     A.U. after    8 cycles
 SCF Done:  E(RB3LYP) =  -681.464342679     A.U. after    8 cycles
 SCF Done:  E(RB3LYP) =  -681.464342696     A.U. after    7 cycles
 Optimization completed.
    -- Stationary point found.
 Normal termination of Gaussian 09 at Fri Aug 27 12:01:20 2021.

 ----------------------------------------------------------
 #P Geom=AllCheck Guess=TCheck SCRF=Check B3LYP/GTBas3 Freq
 ----------------------------------------------------------

 Structure from the checkpoint file:  "/public/home/users/caep010/.cache/gau_scr/Gau-156507.chk"
 ------
 GADFID
 ------
 Charge =  0 Multiplicity = 1

 SCF Done:  E(RB3LYP) =  -681.464342696     A.U. after    1 cycles

  Exact polarizability: 248.584  -7.347 133.483   0.812   0.409  66.850
 Approx polarizability: 389.563 -37.590 230.910  -2.304   1.833 106.624

                      1                      2                      3
                      A                      A                      A
 Frequencies --     44.2327                61.5456                75.2174
 Red. masses --      3.5820                 3.7747                 5.0384
 Frc consts  --      0.0041                 0.0084                 0.0168
 IR Inten    --      0.4352                 3.5220                 4.4398

                      4                      5                      6
                      A                      A                      A
 Frequencies --     79.4997               111.7732               136.0372
 Red. masses --      4.0912                 1.8723                 1.5204
 Frc consts  --      0.0152                 0.0138                 0.0166
 IR Inten    --      1.9755                 9.3225                 1.5284

                      7                      8                      9
                      A                      A                      A
 Frequencies --    164.8211               198.5631               203.6285
 Red. masses --      1.7491                 1.2424                 2.0506
 Frc consts  --      0.0280                 0.0289                 0.0501
 IR Inten    --      0.2940                 0.2308                 2.9277

                     10                     11                     12
                      A                      A                      A
 Frequencies --    216.0696               233.1635               260.9217
 Red. masses --      5.6164                 3.0877                 2.7082
 Frc consts  --      0.1545                 0.0989                 0.1086
 IR Inten    --      1.7729                 1.2173                 4.2190

                     13                     14                     15
                      A                      A                      A
 Frequencies --    301.6273               346.0320               367.7232
 Red. masses --      3.9584                 2.1543                 5.0579
 Frc consts  --      0.2122                 0.1520                 0.4030
 IR Inten    --      4.9362                 1.8180                 1.7556

                     16                     17                     18
                      A                      A                      A
 Frequencies --    377.2902               443.1034               459.9689
 Red. masses --      5.5176                 6.7617                 2.7405
 Frc consts  --      0.4628                 0.7822                 0.3416
 IR Inten    --      4.7209                 0.0186                 1.9483

                     19                     20                     21
                      A                      A                      A
 Frequencies --    536.2713               594.5591               609.7712
 Red. masses --      4.4543                 4.2616                 3.8770
 Frc consts  --      0.7547                 0.8876                 0.8493
 IR Inten    --      4.2696                 3.6063                12.6439

                     22                     23                     24
                      A                      A                      A
 Frequencies --    730.2658               736.0486               777.9807
 Red. masses --      6.5521                 7.8398                 8.5357
 Frc consts  --      2.0587                 2.5025                 3.0439
 IR Inten    --      0.3594                 0.9701                 5.4195

                     25                     26                     27
                      A                      A                      A
 Frequencies --    809.5113               846.5682               852.0645
 Red. masses --      7.1203                 5.1512                 2.0077
 Frc consts  --      2.7491                 2.1751                 0.8588
 IR Inten    --      1.9264                14.3554                18.7559

                     28                     29                     30
                      A                      A                      A
 Frequencies --    866.0960               900.8207              1003.4354
 Red. masses --      1.4310                 3.7549                 1.1883
 Frc consts  --      0.6324                 1.7952                 0.7050
 IR Inten    --     11.2272                16.8840                26.8606

                     31                     32                     33
                      A                      A                      A
 Frequencies --   1049.6311              1084.1832              1088.4763
 Red. masses --      4.0324                 1.6875                 1.5068
 Frc consts  --      2.6175                 1.1687                 1.0518
 IR Inten    --     31.7877                 7.2065                10.1273

                     34                     35                     36
                      A                      A                      A
 Frequencies --   1126.1923              1131.4670              1154.3835
 Red. masses --      1.4008                 1.4798                 1.3006
 Frc consts  --      1.0467                 1.1162                 1.0212
 IR Inten    --    102.4616               114.7598                 0.0446

                     37                     38                     39
                      A                      A                      A
 Frequencies --   1165.0880              1167.7751              1247.0676
 Red. masses --      1.4185                 3.6113                 2.1968
 Frc consts  --      1.1345                 2.9015                 2.0129
 IR Inten    --     65.9782                20.0970                 7.5124

                     40                     41                     42
                      A                      A                      A
 Frequencies --   1268.8241              1307.3512              1344.0081
 Red. masses --      1.5359                 1.6664                 5.1228
 Frc consts  --      1.4568                 1.6781                 5.4521
 IR Inten    --     26.5660               309.7244               170.1655

                     43                     44                     45
                      A                      A                      A
 Frequencies --   1345.7292              1374.4560              1398.0586
 Red. masses --      4.3423                 2.2839                 4.0347
 Frc consts  --      4.6332                 2.5421                 4.6464
 IR Inten    --    121.5186               101.6012               564.2718

                     46                     47                     48
                      A                      A                      A
 Frequencies --   1423.2972              1425.7499              1453.3766
 Red. masses --      4.2826                 4.3831                 1.1695
 Frc consts  --      5.1115                 5.2495                 1.4555
 IR Inten    --    227.3030                 3.4037                12.8328

                     49                     50                     51
                      A                      A                      A
 Frequencies --   1463.0486              1472.1151              1474.9652
 Red. masses --      1.2967                 1.0418                 1.2197
 Frc consts  --      1.6353                 1.3302                 1.5634
 IR Inten    --     43.0033                 7.0983                28.0794

                     52                     53                     54
                      A                      A                      A
 Frequencies --   1479.8297              1485.2731              1507.0998
 Red. masses --      1.0669                 1.0487                 1.1311
 Frc consts  --      1.3765                 1.3630                 1.5136
 IR Inten    --     16.5100                14.7131                23.2100

                     55                     56                     57
                      A                      A                      A
 Frequencies --   1513.1753              1518.6670              1544.0628
 Red. masses --      1.1812                 1.2050                 4.3816
 Frc consts  --      1.5934                 1.6374                 6.1547
 IR Inten    --     45.5592                 4.6985               246.3399

                     58                     59                     60
                      A                      A                      A
 Frequencies --   1560.9934              1589.6126              1678.1205
 Red. masses --      3.6348                 8.1146                 4.6191
 Frc consts  --      5.2184                12.0809                 7.6639
 IR Inten    --     95.0836               165.6309               848.5249

                     61                     62                     63
                      A                      A                      A
 Frequencies --   2991.4527              3002.0645              3061.8013
 Red. masses --      1.0482                 1.0492                 1.0888
 Frc consts  --      5.5266                 5.5714                 6.0138
 IR Inten    --     90.3143                92.3812                38.8616

                     64                     65                     66
                      A                      A                      A
 Frequencies --   3065.2274              3079.8814              3125.3189
 Red. masses --      1.0326                 1.0864                 1.1017
 Frc consts  --      5.7164                 6.0718                 6.3404
 IR Inten    --     36.8932                21.5230                 8.3202

                     67                     68                     69
                      A                      A                      A
 Frequencies --   3129.0998              3147.6189              3151.6902
 Red. masses --      1.0995                 1.1034                 1.1048
 Frc consts  --      6.3427                 6.4412                 6.4656
 IR Inten    --     17.9655                 7.6556                 6.0060

                     70                     71                     72
                      A                      A                      A
 Frequencies --   3186.6903              3234.2459              3257.2097
 Red. masses --      1.0894                 1.0960                 1.0880
 Frc consts  --      6.5183                 6.7546                 6.8010
 IR Inten    --      1.7446                 5.3872                14.1163

 - Thermochemistry -
 -------------------
 Temperature   298.150 Kelvin.  Pressure   1.00000 Atm.
 Atom     1 has atomic number  7 and mass  14.00307

 Molecular mass:   196.09603 amu.
 Principal axes and moments of inertia in atomic units:
                           1         2         3
     Eigenvalues --  1288.290244969.657676217.31387
           X            0.99982   0.01871   0.00147
           Y           -0.01870   0.99982  -0.00287
           Z           -0.00152   0.00284   0.99999
 This molecule is an asymmetric top.
 Rotational symmetry number  1.
 Warning -- assumption of classical behavior for rotation
           may cause significant error
 Rotational temperatures (Kelvin)      0.06723     0.01743     0.01393
 Rotational constants (GHZ):           1.40088     0.36315     0.29028
 Zero-point vibrational energy     548003.3 (Joules/Mol)
                                  130.97592 (Kcal/Mol)
 Warning -- explicit consideration of  21 degrees of freedom as
           vibrations may cause significant error
 Vibrational temperatures:     63.64    88.55   108.22   114.38   160.82
          (Kelvin)            195.73   237.14   285.69   292.98   310.88
                              335.47   375.41   433.97   497.86   529.07
                              542.84   637.53   661.79   771.57   855.44
                              877.32  1050.69  1059.01  1119.34  1164.70
                             1218.02  1225.93  1246.12  1296.08  1443.72
                             1510.18  1559.90  1566.07  1620.34  1627.93
                             1660.90  1676.30  1680.17  1794.25  1825.55
                             1880.98  1933.73  1936.20  1977.53  2011.49
                             2047.80  2051.33  2091.08  2105.00  2118.04
                             2122.14  2129.14  2136.97  2168.38  2177.12
                             2185.02  2221.56  2245.92  2287.10  2414.44
                             4304.03  4319.30  4405.24  4410.17  4431.26
                             4496.63  4502.07  4528.72  4534.57  4584.93
                             4653.35  4686.39

 Zero-point correction=                           0.208723 (Hartree/Particle)
 Thermal correction to Energy=                    0.222880
 Thermal correction to Enthalpy=                  0.223824
 Thermal correction to Gibbs Free Energy=         0.166906
 Sum of electronic and zero-point Energies=           -681.255619
 Sum of electronic and thermal Energies=              -681.241462
 Sum of electronic and thermal Enthalpies=            -681.240518
 Sum of electronic and thermal Free Energies=         -681.297436

                     E (Thermal)             CV                S
                      KCal/Mol        Cal/Mol-Kelvin    Cal/Mol-Kelvin
 Total                  139.859             50.489            119.794
 Electronic               0.000              0.000              0.000
 Translational            0.889              2.981             41.725
 Rotational               0.889              2.981             32.054
 Vibrational            138.082             44.528             46.015
 Vibration     1          0.595              1.980              5.060
 Vibration     2          0.597              1.973              4.407
 Vibration     3          0.599              1.966              4.012
 Vibration     4          0.600              1.963              3.903
 Vibration     5          0.607              1.940              3.238
 Vibration     6          0.614              1.917              2.859
 Vibration     7          0.623              1.886              2.494
 Vibration     8          0.637              1.842              2.146
 Vibration     9          0.639              1.835              2.100
 Vibration    10          0.645              1.817              1.992
 Vibration    11          0.654              1.790              1.854
 Vibration    12          0.669              1.744              1.656
 Vibration    13          0.694              1.671              1.408
 Vibration    14          0.724              1.583              1.184
 Vibration    15          0.740              1.539              1.089
 Vibration    16          0.748              1.519              1.050
 Vibration    17          0.803              1.376              0.817
 Vibration    18          0.818              1.339              0.766
 Vibration    19          0.891              1.170              0.573
 Vibration    20          0.952              1.043              0.459
 Vibration    21          0.969              1.011              0.433

 Optimization completed.
    -- Stationary point found.
 Normal termination of Gaussian 09 at Fri Aug 27 12:05:32 2021.

 -----------------------------------------------------------------
 #P Geom=AllCheck Guess=TCheck SCRF=Check CCSD(T,E4T,FrzG4)/GTBas1
 -----------------------------------------------------------------

 Structure from the checkpoint file:  "/public/home/users/caep010/.cache/gau_scr/Gau-156507.chk"
 ------
 GADFID
 ------
 Charge =  0 Multiplicity = 1

 SCF Done:  E(RHF) =  -677.286792936     A.U. after   15 cycles
 E2 =    -0.2060190829D+01 EUMP2 =    -0.67934698376533D+03
 CCSD(T)
 CCSD(T)= -0.67949097588D+03
 SDQ=-679.4051789\CCSD=-679.4019305\CCSD(T)=-679.4909759\RMSD=5.782e-09
 Normal termination of Gaussian 09 at Fri Aug 27 14:43:47 2021.

 ---------------------------------------------------------
 #P Geom=AllCheck Guess=TCheck SCRF=Check MP4=FrzG4/GTBas2
 ---------------------------------------------------------

 Structure from the checkpoint file:  "/public/home/users/caep010/.cache/gau_scr/Gau-156507.chk"
 ------
 GADFID
 ------
 Charge =  0 Multiplicity = 1

 SCF Done:  E(RHF) =  -677.304288291     A.U. after   16 cycles
 E2 =    -0.2086629167D+01 EUMP2 =    -0.67939091745775D+03
 Normal termination of Gaussian 09 at Fri Aug 27 16:10:14 2021.

 ---------------------------------------------------------
 #P Geom=AllCheck Guess=TCheck SCRF=Check MP4=FrzG4/GTBas3
 ---------------------------------------------------------

 Structure from the checkpoint file:  "/public/home/users/caep010/.cache/gau_scr/Gau-156507.chk"
 ------
 GADFID
 ------
 Charge =  0 Multiplicity = 1

 SCF Done:  E(RHF) =  -677.358590592     A.U. after   13 cycles
 E2 =    -0.2476429060D+01 EUMP2 =    -0.67983501965138D+03
 Normal termination of Gaussian 09 at Sat Aug 28 05:53:55 2021.

 -----------------------------------------------------------
 #P Geom=AllCheck Guess=TCheck SCRF=Check MP2=Full/GTLargeXP
 -----------------------------------------------------------

 Structure from the checkpoint file:  "/public/home/users/caep010/.cache/gau_scr/Gau-156507.chk"
 ------
 GADFID
 ------
 Charge =  0 Multiplicity = 1

 SCF Done:  E(RHF) =  -677.520606098     A.U. after   14 cycles
 E2 =    -0.3240736117D+01 EUMP2 =    -0.68076134221456D+03
 Normal termination of Gaussian 09 at Sat Aug 28 06:13:54 2021.
 SCF Done:  E(RHF) =  -677.572800545     A.U. after   10 cycles
 Normal termination of Gaussian 09 at Sat Aug 28 06:23:06 2021.

                         Standard orientation:
 ---------------------------------------------------------------------
 Center     Atomic      Atomic             Coordinates (Angstroms)
 Number     Number       Type             X           Y           Z
 ---------------------------------------------------------------------
      1          7           0       -2.406392   -0.939547   -0.003812
      2          6           0       -3.862142   -0.920551    0.016269
      3          1           0       -4.255530   -0.393527   -0.853239
      4          1           0       -4.201874   -1.958563    0.004972
      5          6           0       -1.644933   -2.054516   -0.034286
      6          1           0       -4.231227   -0.420660    0.912028
      7          7           0       -0.350680   -1.821160   -0.049789
      8          6           0       -0.210439   -0.450991   -0.026604
      9          6           0        1.065189    0.199849   -0.026279
     10          6           0       -1.493563    0.116987    0.001545
     11          7           0       -1.885001    1.464066    0.028773
     12          8           0       -0.998795    2.326158    0.032000
     13          8           0       -3.097143    1.727255    0.047779
     14          6           0        2.215692   -0.524839   -0.044101
     15          7           0        3.481125   -0.037934   -0.101958
     16          6           0        4.612376   -0.901033    0.175949
     17          1           0        4.320665   -1.943497    0.033259
     18          1           0        4.981272   -0.785796    1.206119
     19          1           0        5.439307   -0.676877   -0.506961
     20          6           0        3.716174    1.392867   -0.091911
     21          1           0        3.071454    1.884629   -0.826233
     22          1           0        4.757302    1.588801   -0.357624
     23          1           0        3.515466    1.839964    0.892556
     24          1           0       -2.097568   -3.036597   -0.045077
     25          1           0        2.146180   -1.608140   -0.029522
     26          1           0        1.058571    1.278346   -0.004492
 ---------------------------------------------------------------------

 SCF Done:  E(RHF) =  -677.583215804     A.U. after    8 cycles

 The electronic state is 1-A.
 Alpha  occ. eigenvalues --  -20.57115 -20.57076 -15.83546 -15.63749 -15.59109
 Alpha  occ. eigenvalues --  -15.55556 -11.32504 -11.30076 -11.29714 -11.28944
 Alpha  occ. eigenvalues --  -11.28163 -11.27266 -11.26445 -11.20738  -1.57465
 Alpha  occ. eigenvalues --   -1.36929  -1.36153  -1.27579  -1.20766  -1.10242
 Alpha  occ. eigenvalues --   -1.05212  -0.98463  -0.97576  -0.95797  -0.90240
 Alpha  occ. eigenvalues --   -0.82721  -0.79456  -0.76331  -0.73925  -0.70876
 Alpha  occ. eigenvalues --   -0.69889  -0.68845  -0.68283  -0.65262  -0.65118
 Alpha  occ. eigenvalues --   -0.64591  -0.61402  -0.58553  -0.57496  -0.56745
 Alpha  occ. eigenvalues --   -0.56554  -0.56036  -0.54781  -0.52894  -0.48565
 Alpha  occ. eigenvalues --   -0.46887  -0.46767  -0.44931  -0.43809  -0.41221
 Alpha  occ. eigenvalues --   -0.36800  -0.27609
 Alpha virt. eigenvalues --    0.02743   0.03107   0.03891   0.04195   0.04396
 Alpha virt. eigenvalues --    0.05253   0.05312   0.05467   0.06553   0.06791
 Alpha virt. eigenvalues --    0.07102   0.07339   0.07645   0.08181   0.08626

 Mulliken charges:
               1
     1  N    0.091763
     2  C   -0.554237
     3  H    0.217273
     4  H    0.189383
     5  C    0.054055
     6  H    0.217608
     7  N   -0.547595
     8  C    0.470689
     9  C   -0.328292
    10  C   -0.000635
    11  N    0.483486
    12  O   -0.479930
    13  O   -0.490611
    14  C   -0.096674
    15  N   -0.007659
    16  C   -0.486879
    17  H    0.191604
    18  H    0.168556
    19  H    0.176280
    20  C   -0.521846
    21  H    0.202045
    22  H    0.187916
    23  H    0.179080
    24  H    0.229109
    25  H    0.216946
    26  H    0.238564
 Sum of Mulliken charges =  -0.00000

 Dipole moment (field-independent basis, Debye):
    X=              2.4746    Y=             -4.4765    Z=              0.1155  Tot=              5.1162
 Quadrupole moment (field-independent basis, Debye-Ang):
   XX=            -59.7132   YY=            -88.8975   ZZ=            -84.6850
   XY=             15.4881   XZ=              0.7794   YZ=             -0.6175

 Normal termination of Gaussian 09 at Sat Aug 28 07:23:00 2021.
