 Gaussian 09, Revision E.01,
 Gaussian 09:  ES64L-G09RevE.01 30-Nov-2015

 -----
 #P G4
 -----

 ------
 GEDYEU
 ------
 Symbolic Z-matrix:
 Charge =  0 Multiplicity = 1

 SCF Done:  E(RB3LYP) =  -595.464082210     A.U. after   15 cycles
 SCF Done:  E(RB3LYP) =  -595.511261926     A.U. after   13 cycles
 SCF Done:  E(RB3LYP) =  -595.519711203     A.U. after   14 cycles
 SCF Done:  E(RB3LYP) =  -595.519555268     A.U. after   12 cycles
 SCF Done:  E(RB3LYP) =  -595.520109024     A.U. after    8 cycles
 SCF Done:  E(RB3LYP) =  -595.520310344     A.U. after   12 cycles
 SCF Done:  E(RB3LYP) =  -595.520135679     A.U. after   12 cycles
 SCF Done:  E(RB3LYP) =  -595.520354182     A.U. after    8 cycles
 SCF Done:  E(RB3LYP) =  -595.520459584     A.U. after   12 cycles
 SCF Done:  E(RB3LYP) =  -595.520537294     A.U. after   11 cycles
 SCF Done:  E(RB3LYP) =  -595.521261113     A.U. after   12 cycles
 SCF Done:  E(RB3LYP) =  -595.521265964     A.U. after    9 cycles
 SCF Done:  E(RB3LYP) =  -595.521266688     A.U. after    8 cycles
 Optimization completed.
    -- Stationary point found.
 Normal termination of Gaussian 09 at Tue Aug 24 14:54:57 2021.

 ----------------------------------------------------------
 #P Geom=AllCheck Guess=TCheck SCRF=Check B3LYP/GTBas3 Freq
 ----------------------------------------------------------

 Structure from the checkpoint file:  "/public/home/users/caep010/.cache/gau_scr/Gau-50184.chk"
 ------
 GEDYEU
 ------
 Charge =  0 Multiplicity = 1

 SCF Done:  E(RB3LYP) =  -595.521266688     A.U. after    1 cycles

  Exact polarizability:  98.104  -2.549  86.264  -0.287   0.156  44.293
 Approx polarizability: 157.534  -9.116 160.463  -0.403   1.936  73.310

                      1                      2                      3
                      A                      A                      A
 Frequencies --     74.1647                91.1131               152.6645
 Red. masses --      4.8214                10.1798                 2.6034
 Frc consts  --      0.0156                 0.0498                 0.0357
 IR Inten    --      0.4092                 2.4105                 0.3112

                      4                      5                      6
                      A                      A                      A
 Frequencies --    170.9326               206.7860               333.5357
 Red. masses --      6.5449                 5.7675                 9.1214
 Frc consts  --      0.1127                 0.1453                 0.5979
 IR Inten    --      1.9857                 3.0556                 5.0438

                      7                      8                      9
                      A                      A                      A
 Frequencies --    402.4327               431.3564               529.2181
 Red. masses --      7.7186                10.7469                 7.4498
 Frc consts  --      0.7365                 1.1782                 1.2293
 IR Inten    --      2.6266                 1.1616                 1.5952

                     10                     11                     12
                      A                      A                      A
 Frequencies --    685.3374               701.0366               743.2331
 Red. masses --      5.3335                12.1923                 9.9648
 Frc consts  --      1.4759                 3.5303                 3.2432
 IR Inten    --      8.8740                 1.4858                 6.0834

                     13                     14                     15
                      A                      A                      A
 Frequencies --    767.4869               775.5799               814.7981
 Red. masses --      5.1986                 8.4212                 6.7474
 Frc consts  --      1.8042                 2.9846                 2.6393
 IR Inten    --     12.4790                17.6413                26.1936

                     16                     17                     18
                      A                      A                      A
 Frequencies --    860.9768               954.7670               969.4870
 Red. masses --      1.5436                 4.0148                 6.2234
 Frc consts  --      0.6742                 2.1563                 3.4464
 IR Inten    --      4.5443                 5.4615                 6.9602

                     19                     20                     21
                      A                      A                      A
 Frequencies --   1042.3059              1096.9280              1121.5675
 Red. masses --      8.2714                12.5478                 1.6785
 Frc consts  --      5.2944                 8.8956                 1.2440
 IR Inten    --     46.4018                15.2469                 4.1349

                     22                     23                     24
                      A                      A                      A
 Frequencies --   1147.8410              1178.8875              1220.2536
 Red. masses --      6.3795                 3.8488                 1.1944
 Frc consts  --      4.9522                 3.1515                 1.0478
 IR Inten    --      8.1424                62.3818                10.2778

                     25                     26                     27
                      A                      A                      A
 Frequencies --   1241.9582              1270.6131              1301.0524
 Red. masses --      1.6470                 2.7376                 2.2284
 Frc consts  --      1.4968                 2.6041                 2.2225
 IR Inten    --      4.1508                17.6460                 1.8364

                     28                     29                     30
                      A                      A                      A
 Frequencies --   1331.8831              1362.9467              1385.7782
 Red. masses --      5.8022                 2.9101                 2.1602
 Frc consts  --      6.0642                 3.1850                 2.4441
 IR Inten    --    371.1921               134.4185                 6.8763

                     31                     32                     33
                      A                      A                      A
 Frequencies --   1497.7163              1517.5984              1538.0826
 Red. masses --      1.6356                 1.2872                 1.7673
 Frc consts  --      2.1616                 1.7467                 2.4633
 IR Inten    --      6.8056                 5.5472                14.4900

                     34                     35                     36
                      A                      A                      A
 Frequencies --   1589.9265              1694.3965              3072.7060
 Red. masses --      8.1823                14.3917                 1.0612
 Frc consts  --     12.1866                24.3440                 5.9030
 IR Inten    --     80.6851               295.4627                17.6029

                     37                     38                     39
                      A                      A                      A
 Frequencies --   3083.1802              3127.7561              3149.7809
 Red. masses --      1.0639                 1.1044                 1.1058
 Frc consts  --      5.9586                 6.3658                 6.4639
 IR Inten    --      6.0625                 4.1487                 4.9886

 - Thermochemistry -
 -------------------
 Temperature   298.150 Kelvin.  Pressure   1.00000 Atm.
 Atom     1 has atomic number  8 and mass  15.99491

 Molecular mass:   156.03957 amu.
 Principal axes and moments of inertia in atomic units:
                           1         2         3
     Eigenvalues --   773.419951795.385112524.50001
           X            0.99999   0.00513  -0.00066
           Y           -0.00513   0.99999  -0.00071
           Z            0.00066   0.00072   1.00000
 This molecule is an asymmetric top.
 Rotational symmetry number  1.
 Warning -- assumption of classical behavior for rotation
           may cause significant error
 Rotational temperatures (Kelvin)      0.11199     0.04824     0.03431
 Rotational constants (GHZ):           2.33346     1.00521     0.71489
 Zero-point vibrational energy     266994.9 (Joules/Mol)
                                   63.81332 (Kcal/Mol)
 Warning -- explicit consideration of   9 degrees of freedom as
           vibrations may cause significant error
 Vibrational temperatures:    106.71   131.09   219.65   245.93   297.52
          (Kelvin)            479.88   579.01   620.62   761.43   986.05
                             1008.63  1069.35  1104.24  1115.89  1172.31
                             1238.75  1373.70  1394.87  1499.64  1578.23
                             1613.68  1651.49  1696.15  1755.67  1786.90
                             1828.13  1871.92  1916.28  1960.97  1993.82
                             2154.88  2183.48  2212.96  2287.55  2437.86
                             4420.93  4436.00  4500.14  4531.83

 Zero-point correction=                           0.101693 (Hartree/Particle)
 Thermal correction to Energy=                    0.109970
 Thermal correction to Enthalpy=                  0.110915
 Thermal correction to Gibbs Free Energy=         0.067393
 Sum of electronic and zero-point Energies=           -595.419574
 Sum of electronic and thermal Energies=              -595.411296
 Sum of electronic and thermal Enthalpies=            -595.410352
 Sum of electronic and thermal Free Energies=         -595.453874

                     E (Thermal)             CV                S
                      KCal/Mol        Cal/Mol-Kelvin    Cal/Mol-Kelvin
 Total                   69.007             29.695             91.600
 Electronic               0.000              0.000              0.000
 Translational            0.889              2.981             41.044
 Rotational               0.889              2.981             29.640
 Vibrational             67.230             23.733             20.915
 Vibration     1          0.599              1.966              4.040
 Vibration     2          0.602              1.955              3.636
 Vibration     3          0.619              1.900              2.639
 Vibration     4          0.626              1.878              2.425
 Vibration     5          0.641              1.830              2.072
 Vibration     6          0.715              1.609              1.243
 Vibration     7          0.768              1.465              0.954
 Vibration     8          0.792              1.402              0.854
 Vibration     9          0.884              1.185              0.589

 Normal termination of Gaussian 09 at Tue Aug 24 14:56:38 2021.

 -----------------------------------------------------------------
 #P Geom=AllCheck Guess=TCheck SCRF=Check CCSD(T,E4T,FrzG4)/GTBas1
 -----------------------------------------------------------------

 Structure from the checkpoint file:  "/public/home/users/caep010/.cache/gau_scr/Gau-50184.chk"
 ------
 GEDYEU
 ------
 Charge =  0 Multiplicity = 1

 SCF Done:  E(RHF) =  -592.101837329     A.U. after   15 cycles
 E2 =    -0.1746313445D+01 EUMP2 =    -0.59384815077473D+03
 CCSD(T)
 CCSD(T)= -0.59393316500D+03
 DTQ=-593.9538065\MP4SDQ=-593.8609072\CCSD=-593.8549027\CCSD(T)=-593.93
 Normal termination of Gaussian 09 at Tue Aug 24 15:33:01 2021.

 ---------------------------------------------------------
 #P Geom=AllCheck Guess=TCheck SCRF=Check MP4=FrzG4/GTBas2
 ---------------------------------------------------------

 Structure from the checkpoint file:  "/public/home/users/caep010/.cache/gau_scr/Gau-50184.chk"
 ------
 GEDYEU
 ------
 Charge =  0 Multiplicity = 1

 SCF Done:  E(RHF) =  -592.117423366     A.U. after   13 cycles
 E2 =    -0.1767765246D+01 EUMP2 =    -0.59388518861177D+03
 Normal termination of Gaussian 09 at Tue Aug 24 15:45:38 2021.

 ---------------------------------------------------------
 #P Geom=AllCheck Guess=TCheck SCRF=Check MP4=FrzG4/GTBas3
 ---------------------------------------------------------

 Structure from the checkpoint file:  "/public/home/users/caep010/.cache/gau_scr/Gau-50184.chk"
 ------
 GEDYEU
 ------
 Charge =  0 Multiplicity = 1

 SCF Done:  E(RHF) =  -592.163241615     A.U. after   13 cycles
 E2 =    -0.2064252213D+01 EUMP2 =    -0.59422749382843D+03
 Normal termination of Gaussian 09 at Tue Aug 24 16:57:01 2021.

 -----------------------------------------------------------
 #P Geom=AllCheck Guess=TCheck SCRF=Check MP2=Full/GTLargeXP
 -----------------------------------------------------------

 Structure from the checkpoint file:  "/public/home/users/caep010/.cache/gau_scr/Gau-50184.chk"
 ------
 GEDYEU
 ------
 Charge =  0 Multiplicity = 1

 SCF Done:  E(RHF) =  -592.309856809     A.U. after   14 cycles
 E2 =    -0.2676081141D+01 EUMP2 =    -0.59498593795050D+03
 Normal termination of Gaussian 09 at Tue Aug 24 17:08:35 2021.
 SCF Done:  E(RHF) =  -592.356365131     A.U. after   10 cycles
 Normal termination of Gaussian 09 at Tue Aug 24 17:12:50 2021.

                         Standard orientation:
 ---------------------------------------------------------------------
 Center     Atomic      Atomic             Coordinates (Angstroms)
 Number     Number       Type             X           Y           Z
 ---------------------------------------------------------------------
      1          8           0       -1.907013   -1.650326    0.045077
      2          7           0       -1.943017   -0.441162    0.009936
      3          7           0       -0.746031    0.214039   -0.326060
      4          6           0       -0.634123    1.664140   -0.018832
      5          6           0        0.903175    1.932433   -0.025357
      6          1           0        1.235629    2.402828   -0.954550
      7          1           0        1.223443    2.543941    0.819492
      8          7           0        1.411469    0.575042    0.067971
      9          6           0        0.496827   -0.384078   -0.125717
     10          7           0        1.063507   -1.563713   -0.129254
     11          7           0        2.395190   -1.279079    0.074503
     12          7           0        2.621886   -0.008903    0.176149
     13          1           0       -1.079504    1.861508    0.959374
     14          1           0       -1.165232    2.251742   -0.766566
     15          8           0       -2.896817    0.299257    0.186045
 ---------------------------------------------------------------------

 SCF Done:  E(RHF) =  -592.365336470     A.U. after    8 cycles

 The electronic state is 1-A.
 Alpha  occ. eigenvalues --  -20.63354 -20.63063 -15.92105 -15.70328 -15.68616
 Alpha  occ. eigenvalues --  -15.67368 -15.66149 -15.61189 -11.38872 -11.34496
 Alpha  occ. eigenvalues --  -11.34313  -1.66117  -1.51052  -1.44768  -1.36529
 Alpha  occ. eigenvalues --   -1.27745  -1.19901  -1.09621  -1.00575  -0.94323
 Alpha  occ. eigenvalues --   -0.89210  -0.84683  -0.80352  -0.79567  -0.76767
 Alpha  occ. eigenvalues --   -0.74081  -0.71562  -0.68520  -0.66472  -0.62447
 Alpha  occ. eigenvalues --   -0.61313  -0.57702  -0.54239  -0.53096  -0.52523
 Alpha  occ. eigenvalues --   -0.49138  -0.48831  -0.48074  -0.45054  -0.40047
 Alpha virt. eigenvalues --    0.01733   0.03220   0.03455   0.04851   0.05920
 Alpha virt. eigenvalues --    0.06420   0.06515   0.06675   0.06957   0.07226
 Alpha virt. eigenvalues --    0.09169   0.10040   0.10474   0.11423   0.11984

 Mulliken charges:
               1
     1  O   -0.362800
     2  N    0.562667
     3  N   -0.007326
     4  C   -0.260021
     5  C   -0.248996
     6  H    0.203633
     7  H    0.217614
     8  N    0.142519
     9  C    0.329206
    10  N   -0.317244
    11  N   -0.091980
    12  N   -0.185971
    13  H    0.226560
    14  H    0.219704
    15  O   -0.427565
 Sum of Mulliken charges =  -0.00000

 Dipole moment (field-independent basis, Debye):
    X=             -0.4715    Y=              7.1310    Z=             -0.2317  Tot=              7.1504
 Quadrupole moment (field-independent basis, Debye-Ang):
   XX=            -80.7412   YY=            -61.8958   ZZ=            -59.5628
   XY=              3.5983   XZ=              0.0420   YZ=             -0.2708

 Normal termination of Gaussian 09 at Tue Aug 24 17:42:44 2021.
