 Gaussian 09, Revision E.01,
 Gaussian 09:  ES64L-G09RevE.01 30-Nov-2015

 ----------------
 #P G4 OPT=calcfc
 ----------------

 ------
 GIZSOX
 ------
 Symbolic Z-matrix:
 Charge =  0 Multiplicity = 1

 SCF Done:  E(RB3LYP) =  -734.787231776     A.U. after   16 cycles
 SCF Done:  E(RB3LYP) =  -734.863441405     A.U. after   13 cycles
 SCF Done:  E(RB3LYP) =  -734.890425654     A.U. after   15 cycles
 SCF Done:  E(RB3LYP) =  -734.901180584     A.U. after   14 cycles
 SCF Done:  E(RB3LYP) =  -734.905440786     A.U. after   14 cycles
 SCF Done:  E(RB3LYP) =  -734.906435887     A.U. after   14 cycles
 SCF Done:  E(RB3LYP) =  -734.906608883     A.U. after   13 cycles
 SCF Done:  E(RB3LYP) =  -734.906593726     A.U. after   13 cycles
 SCF Done:  E(RB3LYP) =  -734.906644896     A.U. after   12 cycles
 SCF Done:  E(RB3LYP) =  -734.906646323     A.U. after    9 cycles
 SCF Done:  E(RB3LYP) =  -734.906646381     A.U. after    8 cycles
 Optimization completed.
    -- Stationary point found.
 Normal termination of Gaussian 09 at Thu Aug 26 20:18:29 2021.

 ----------------------------------------------------------
 #P Geom=AllCheck Guess=TCheck SCRF=Check B3LYP/GTBas3 Freq
 ----------------------------------------------------------

 Structure from the checkpoint file:  "/public/home/users/caep010/.cache/gau_scr/Gau-132226.chk"
 ------
 GIZSOX
 ------
 Charge =  0 Multiplicity = 1

 SCF Done:  E(RB3LYP) =  -734.906646381     A.U. after    1 cycles

  Exact polarizability:  99.798   4.614  90.169  -4.550  -6.595  84.662
 Approx polarizability: 163.478   9.688 136.367 -14.398 -13.564 160.775

                      1                      2                      3
                      A                      A                      A
 Frequencies --     37.5851                59.6907                77.0875
 Red. masses --     14.4427                 3.8352                12.2814
 Frc consts  --      0.0120                 0.0081                 0.0430
 IR Inten    --      0.1802                 0.0790                 0.6533

                      4                      5                      6
                      A                      A                      A
 Frequencies --    113.5751               154.8580               164.8182
 Red. masses --      7.1557                 5.2923                 2.6096
 Frc consts  --      0.0544                 0.0748                 0.0418
 IR Inten    --      0.5547                 1.5805                 0.5280

                      7                      8                      9
                      A                      A                      A
 Frequencies --    208.9775               255.3439               301.6816
 Red. masses --     10.2875                 5.0366                 3.2162
 Frc consts  --      0.2647                 0.1935                 0.1725
 IR Inten    --      2.8316                 1.3083                 0.7993

                     10                     11                     12
                      A                      A                      A
 Frequencies --    349.6768               372.3925               388.6757
 Red. masses --      5.7614                 9.7161                 9.6522
 Frc consts  --      0.4151                 0.7939                 0.8591
 IR Inten    --      4.3577                 2.6282                 1.7315

                     13                     14                     15
                      A                      A                      A
 Frequencies --    422.7114               455.9111               528.9932
 Red. masses --      2.1482                 3.7498                 2.4741
 Frc consts  --      0.2262                 0.4592                 0.4079
 IR Inten    --     35.1716                20.7357                33.9867

                     16                     17                     18
                      A                      A                      A
 Frequencies --    545.3654               595.1766               659.7520
 Red. masses --      2.9530                 2.4766                 5.5443
 Frc consts  --      0.5175                 0.5169                 1.4219
 IR Inten    --     22.2088                 7.2942                19.7021

                     19                     20                     21
                      A                      A                      A
 Frequencies --    711.0142               754.2632               779.1922
 Red. masses --      6.6794                 3.9651                 3.9736
 Frc consts  --      1.9895                 1.3291                 1.4214
 IR Inten    --     12.0257                 3.0020                23.2058

                     22                     23                     24
                      A                      A                      A
 Frequencies --    840.8071               854.8806               863.2650
 Red. masses --      3.5270                 5.6097                 2.6426
 Frc consts  --      1.4691                 2.4154                 1.1603
 IR Inten    --     27.7723                23.4933                12.2832

                     25                     26                     27
                      A                      A                      A
 Frequencies --    922.0928               934.7213               978.1568
 Red. masses --      2.2579                 2.0169                 7.3350
 Frc consts  --      1.1311                 1.0383                 4.1349
 IR Inten    --      4.6870                 6.5988                54.3468

                     28                     29                     30
                      A                      A                      A
 Frequencies --   1015.0881              1045.1279              1077.4521
 Red. masses --      2.2872                 6.2508                 1.7405
 Frc consts  --      1.3886                 4.0227                 1.1905
 IR Inten    --     16.1392                86.1101                 0.3914

                     31                     32                     33
                      A                      A                      A
 Frequencies --   1139.4304              1179.7903              1209.2822
 Red. masses --      6.0746                 1.5689                 1.5096
 Frc consts  --      4.6467                 1.2866                 1.3007
 IR Inten    --      9.3894                 5.9548                 7.9875

                     34                     35                     36
                      A                      A                      A
 Frequencies --   1231.5782              1265.3265              1309.2504
 Red. masses --      1.8478                 2.0135                 1.3654
 Frc consts  --      1.6513                 1.8994                 1.3789
 IR Inten    --      4.7927                 7.4950                 6.1859

                     37                     38                     39
                      A                      A                      A
 Frequencies --   1324.8986              1347.6093              1381.4491
 Red. masses --      1.5177                 1.3963                13.4335
 Frc consts  --      1.5696                 1.4940                15.1046
 IR Inten    --      5.6230                 5.4453               127.2326

                     40                     41                     42
                      A                      A                      A
 Frequencies --   1411.3349              1430.0838              1463.7835
 Red. masses --      1.7051                 3.6244                 1.0811
 Frc consts  --      2.0010                 4.3672                 1.3648
 IR Inten    --     37.6534               113.4321                12.2760

                     43                     44                     45
                      A                      A                      A
 Frequencies --   1488.4035              1506.8212              1666.7196
 Red. masses --      1.0996                 1.0977                14.1291
 Frc consts  --      1.4352                 1.4684                23.1255
 IR Inten    --     14.7412                 4.2089               298.7641

                     46                     47                     48
                      A                      A                      A
 Frequencies --   1685.9359              1744.9757              3046.9077
 Red. masses --     14.3689                 8.2511                 1.0671
 Frc consts  --     24.0633                14.8027                 5.8366
 IR Inten    --    159.2556                 4.4989                 4.2521

                     49                     50                     51
                      A                      A                      A
 Frequencies --   3066.1522              3086.3067              3099.2226
 Red. masses --      1.0655                 1.0606                 1.0941
 Frc consts  --      5.9016                 5.9524                 6.1916
 IR Inten    --     17.2894                 0.4818                 4.5858

                     52                     53                     54
                      A                      A                      A
 Frequencies --   3121.8774              3146.0666              3802.4570
 Red. masses --      1.1012                 1.1048                 1.0677
 Frc consts  --      6.3234                 6.4425                 9.0952
 IR Inten    --     15.2172                 2.4614               124.2578

 - Thermochemistry -
 -------------------
 Temperature   298.150 Kelvin.  Pressure   1.00000 Atm.
 Atom     1 has atomic number  6 and mass  12.00000

 Molecular mass:   189.03857 amu.
 Principal axes and moments of inertia in atomic units:
                           1         2         3
     Eigenvalues --  1785.214622298.683952600.74507
           X            0.99993  -0.01143  -0.00250
           Y            0.01098   0.99021  -0.13917
           Z            0.00407   0.13914   0.99026
 This molecule is an asymmetric top.
 Rotational symmetry number  1.
 Warning -- assumption of classical behavior for rotation
           may cause significant error
 Rotational temperatures (Kelvin)      0.04852     0.03768     0.03330
 Rotational constants (GHZ):           1.01094     0.78512     0.69393
 Zero-point vibrational energy     374574.7 (Joules/Mol)
                                   89.52550 (Kcal/Mol)
 Warning -- explicit consideration of  17 degrees of freedom as
           vibrations may cause significant error
 Vibrational temperatures:     54.08    85.88   110.91   163.41   222.81
          (Kelvin)            237.14   300.67   367.38   434.05   503.11
                              535.79   559.22   608.19   655.95   761.10
                              784.66   856.33   949.23  1022.99  1085.22
                             1121.08  1209.73  1229.98  1242.04  1326.68
                             1344.85  1407.35  1460.48  1503.70  1550.21
                             1639.38  1697.45  1739.89  1771.96  1820.52
                             1883.72  1906.23  1938.91  1987.59  2030.59
                             2057.57  2106.06  2141.48  2167.98  2398.03
                             2425.68  2510.63  4383.82  4411.50  4440.50
                             4459.08  4491.68  4526.48  5470.88

 Zero-point correction=                           0.142668 (Hartree/Particle)
 Thermal correction to Energy=                    0.154483
 Thermal correction to Enthalpy=                  0.155427
 Thermal correction to Gibbs Free Energy=         0.103758
 Sum of electronic and zero-point Energies=           -734.763978
 Sum of electronic and thermal Energies=              -734.752164
 Sum of electronic and thermal Enthalpies=            -734.751220
 Sum of electronic and thermal Free Energies=         -734.802888

                     E (Thermal)             CV                S
                      KCal/Mol        Cal/Mol-Kelvin    Cal/Mol-Kelvin
 Total                   96.939             42.831            108.746
 Electronic               0.000              0.000              0.000
 Translational            0.889              2.981             41.616
 Rotational               0.889              2.981             30.746
 Vibrational             95.162             36.870             36.383
 Vibration     1          0.594              1.982              5.382
 Vibration     2          0.597              1.974              4.467
 Vibration     3          0.599              1.964              3.964
 Vibration     4          0.607              1.938              3.207
 Vibration     5          0.620              1.897              2.612
 Vibration     6          0.623              1.886              2.494
 Vibration     7          0.642              1.827              2.053
 Vibration     8          0.666              1.754              1.693
 Vibration     9          0.694              1.671              1.408
 Vibration    10          0.727              1.576              1.168
 Vibration    11          0.744              1.529              1.070
 Vibration    12          0.757              1.494              1.005
 Vibration    13          0.785              1.421              0.883
 Vibration    14          0.814              1.348              0.778
 Vibration    15          0.884              1.186              0.589
 Vibration    16          0.901              1.150              0.554
 Vibration    17          0.953              1.042              0.458

 Optimization completed.
    -- Stationary point found.
 Normal termination of Gaussian 09 at Thu Aug 26 20:21:51 2021.

 -----------------------------------------------------------------
 #P Geom=AllCheck Guess=TCheck SCRF=Check CCSD(T,E4T,FrzG4)/GTBas1
 -----------------------------------------------------------------

 Structure from the checkpoint file:  "/public/home/users/caep010/.cache/gau_scr/Gau-132226.chk"
 ------
 GIZSOX
 ------
 Charge =  0 Multiplicity = 1

 SCF Done:  E(RHF) =  -730.734518215     A.U. after   15 cycles
 E2 =    -0.2086681625D+01 EUMP2 =    -0.73282119984049D+03
 CCSD(T)
 CCSD(T)= -0.73292943388D+03
 \CCSD=-732.8416611\CCSD(T)=-732.9294339\RMSD=4.924e-09\PG=C01 [X(C5H7N
 Normal termination of Gaussian 09 at Thu Aug 26 22:14:06 2021.

 ---------------------------------------------------------
 #P Geom=AllCheck Guess=TCheck SCRF=Check MP4=FrzG4/GTBas2
 ---------------------------------------------------------

 Structure from the checkpoint file:  "/public/home/users/caep010/.cache/gau_scr/Gau-132226.chk"
 ------
 GIZSOX
 ------
 Charge =  0 Multiplicity = 1

 SCF Done:  E(RHF) =  -730.755974614     A.U. after   16 cycles
 E2 =    -0.2118366857D+01 EUMP2 =    -0.73287434147130D+03
 Normal termination of Gaussian 09 at Thu Aug 26 22:57:07 2021.

 ---------------------------------------------------------
 #P Geom=AllCheck Guess=TCheck SCRF=Check MP4=FrzG4/GTBas3
 ---------------------------------------------------------

 Structure from the checkpoint file:  "/public/home/users/caep010/.cache/gau_scr/Gau-132226.chk"
 ------
 GIZSOX
 ------
 Charge =  0 Multiplicity = 1

 SCF Done:  E(RHF) =  -730.813844822     A.U. after   13 cycles
 E2 =    -0.2504085686D+01 EUMP2 =    -0.73331793050838D+03
 Normal termination of Gaussian 09 at Fri Aug 27 04:35:44 2021.

 -----------------------------------------------------------
 #P Geom=AllCheck Guess=TCheck SCRF=Check MP2=Full/GTLargeXP
 -----------------------------------------------------------

 Structure from the checkpoint file:  "/public/home/users/caep010/.cache/gau_scr/Gau-132226.chk"
 ------
 GIZSOX
 ------
 Charge =  0 Multiplicity = 1

 SCF Done:  E(RHF) =  -731.003043647     A.U. after   15 cycles
 E2 =    -0.3246244590D+01 EUMP2 =    -0.73424928823730D+03
 Normal termination of Gaussian 09 at Fri Aug 27 04:50:08 2021.
 SCF Done:  E(RHF) =  -731.061863864     A.U. after   10 cycles
 Normal termination of Gaussian 09 at Fri Aug 27 04:57:49 2021.

                         Standard orientation:
 ---------------------------------------------------------------------
 Center     Atomic      Atomic             Coordinates (Angstroms)
 Number     Number       Type             X           Y           Z
 ---------------------------------------------------------------------
      1          6           0        0.392392    0.128532   -0.226190
      2          6           0       -1.080576   -0.095936    0.020202
      3          7           0        1.097238   -1.165089   -0.633619
      4          7           0        1.124660    0.619037    1.044524
      5          8           0        2.316033    0.826281    0.918239
      6          7           0       -1.485994   -1.203038    0.495087
      7          8           0        1.533514   -1.854056    0.265138
      8          6           0       -1.867189    1.103404   -0.450707
      9          8           0        0.450260    0.817983    2.036228
     10          8           0        1.113635   -1.421422   -1.824043
     11          6           0       -0.790913    2.111160   -0.911639
     12          8           0       -2.865138   -1.229873    0.608959
     13          6           0        0.430070    1.239502   -1.274052
     14          1           0       -0.537121    2.791094   -0.092889
     15          1           0       -2.524762    0.796355   -1.272729
     16          1           0       -1.115934    2.722637   -1.755001
     17          1           0       -3.032238   -2.107595    0.972616
     18          1           0        1.385318    1.765451   -1.270440
     19          1           0       -2.516205    1.484453    0.341995
     20          1           0        0.300467    0.759957   -2.247348
 ---------------------------------------------------------------------

 SCF Done:  E(RHF) =  -731.073673186     A.U. after    8 cycles

 The electronic state is 1-A.
 Alpha  occ. eigenvalues --  -20.63207 -20.63075 -20.62728 -20.62521 -20.62461
 Alpha  occ. eigenvalues --  -15.87629 -15.87496 -15.66375 -11.40342 -11.32421
 Alpha  occ. eigenvalues --  -11.28275 -11.27240 -11.27065  -1.64205  -1.62579
 Alpha  occ. eigenvalues --   -1.46795  -1.43288  -1.42917  -1.24816  -1.16016
 Alpha  occ. eigenvalues --   -1.10066  -0.98639  -0.97603  -0.91221  -0.84992
 Alpha  occ. eigenvalues --   -0.82347  -0.81363  -0.75560  -0.75028  -0.74243
 Alpha  occ. eigenvalues --   -0.73329  -0.72870  -0.72391  -0.67699  -0.64084
 Alpha  occ. eigenvalues --   -0.63720  -0.60254  -0.59979  -0.57206  -0.54129
 Alpha  occ. eigenvalues --   -0.53838  -0.52368  -0.51598  -0.51104  -0.50131
 Alpha  occ. eigenvalues --   -0.48373  -0.47343  -0.46556  -0.42302
 Alpha virt. eigenvalues --    0.02335   0.03478   0.03876   0.04538   0.05484
 Alpha virt. eigenvalues --    0.05691   0.06422   0.06745   0.06981   0.07373
 Alpha virt. eigenvalues --    0.07440   0.08775   0.09059   0.09505   0.09676

 Mulliken charges:
               1
     1  C    0.481219
     2  C    0.215048
     3  N    0.514176
     4  N    0.515184
     5  O   -0.419889
     6  N   -0.220494
     7  O   -0.378333
     8  C   -0.344965
     9  O   -0.388683
    10  O   -0.417043
    11  C   -0.351054
    12  O   -0.485629
    13  C   -0.414375
    14  H    0.186326
    15  H    0.206787
    16  H    0.195683
    17  H    0.414864
    18  H    0.236232
    19  H    0.213716
    20  H    0.241233
 Sum of Mulliken charges =  -0.00000

 Dipole moment (field-independent basis, Debye):
    X=             -4.1503    Y=              2.8024    Z=             -2.3380  Tot=              5.5267
 Quadrupole moment (field-independent basis, Debye-Ang):
   XX=            -76.7991   YY=            -71.8631   ZZ=            -79.1857
   XY=              4.6292   XZ=             -2.5405   YZ=             -8.0903

 Normal termination of Gaussian 09 at Fri Aug 27 05:49:12 2021.
