 Gaussian 09, Revision E.01,
 Gaussian 09:  ES64L-G09RevE.01 30-Nov-2015

 ----------------
 #P G4 OPT=calcfc
 ----------------

 ------
 GARBUY
 ------
 Symbolic Z-matrix:
 Charge =  0 Multiplicity = 1

 SCF Done:  E(RB3LYP) =  -680.598557629     A.U. after   15 cycles
 SCF Done:  E(RB3LYP) =  -680.702166381     A.U. after   13 cycles
 SCF Done:  E(RB3LYP) =  -680.742611877     A.U. after   14 cycles
 SCF Done:  E(RB3LYP) =  -680.744373231     A.U. after   13 cycles
 SCF Done:  E(RB3LYP) =  -680.744562422     A.U. after   12 cycles
 SCF Done:  E(RB3LYP) =  -680.744584156     A.U. after   10 cycles
 SCF Done:  E(RB3LYP) =  -680.744589059     A.U. after    8 cycles
 SCF Done:  E(RB3LYP) =  -680.744589602     A.U. after    8 cycles
 Optimization completed.
    -- Stationary point found.
 Normal termination of Gaussian 09 at Wed Aug 25 08:42:40 2021.

 ----------------------------------------------------------
 #P Geom=AllCheck Guess=TCheck SCRF=Check B3LYP/GTBas3 Freq
 ----------------------------------------------------------

 Structure from the checkpoint file:  "/public/home/users/caep010/.cache/gau_scr/Gau-103685.chk"
 ------
 GARBUY
 ------
 Charge =  0 Multiplicity = 1

 SCF Done:  E(RB3LYP) =  -680.744589602     A.U. after    1 cycles

  Exact polarizability: 161.024   5.944 123.830  -0.004   0.004  43.658
 Approx polarizability: 278.486  14.856 225.248  -0.019   0.004  72.638

                      1                      2                      3
                      A                      A                      A
 Frequencies --     62.0618                73.5791               113.1736
 Red. masses --     12.9333                11.3384                 8.4599
 Frc consts  --      0.0293                 0.0362                 0.0638
 IR Inten    --      0.1736                 0.0662                 7.3002

                      4                      5                      6
                      A                      A                      A
 Frequencies --    147.8384               163.1896               274.0312
 Red. masses --      4.3812                 9.7687                 1.2230
 Frc consts  --      0.0564                 0.1533                 0.0541
 IR Inten    --      5.1062                 2.2290               139.6192

                      7                      8                      9
                      A                      A                      A
 Frequencies --    288.5675               304.4837               351.6832
 Red. masses --      6.2996                 4.9115                 7.7752
 Frc consts  --      0.3091                 0.2683                 0.5666
 IR Inten    --      1.3573                14.9071                 1.7978

                     10                     11                     12
                      A                      A                      A
 Frequencies --    364.1200               418.7243               439.2492
 Red. masses --      7.6079                 5.7768                 3.1929
 Frc consts  --      0.5943                 0.5968                 0.3630
 IR Inten    --      5.3114                 1.7957                 1.9594

                     13                     14                     15
                      A                      A                      A
 Frequencies --    498.5345               531.5404               564.4699
 Red. masses --      6.1294                 3.0134                 4.8657
 Frc consts  --      0.8976                 0.5016                 0.9134
 IR Inten    --      9.6074                 5.2530                 0.0908

                     16                     17                     18
                      A                      A                      A
 Frequencies --    593.9479               649.8612               651.6524
 Red. masses --      1.2210                 1.0559                 7.1861
 Frc consts  --      0.2538                 0.2627                 1.7979
 IR Inten    --     87.4935                10.6740                15.1949

                     19                     20                     21
                      A                      A                      A
 Frequencies --    676.0641               722.8766               778.6602
 Red. masses --      5.0097                 4.4486                 5.3293
 Frc consts  --      1.3491                 1.3696                 1.9038
 IR Inten    --     68.3079                29.5045                14.4683

                     22                     23                     24
                      A                      A                      A
 Frequencies --    779.3821               813.8433               837.2189
 Red. masses --      6.0502                 3.6331                 7.0007
 Frc consts  --      2.1653                 1.4178                 2.8911
 IR Inten    --     10.2665                12.9496                 5.9382

                     25                     26                     27
                      A                      A                      A
 Frequencies --    853.9171               933.6118               971.7866
 Red. masses --      1.9450                 6.5204                 1.3814
 Frc consts  --      0.8356                 3.3486                 0.7686
 IR Inten    --     21.8214                17.6300                 1.4153

                     28                     29                     30
                      A                      A                      A
 Frequencies --    992.9066              1053.8642              1083.9819
 Red. masses --      1.4031                 1.7563                 2.2872
 Frc consts  --      0.8150                 1.1492                 1.5834
 IR Inten    --      2.3123                 0.6141                52.6352

                     31                     32                     33
                      A                      A                      A
 Frequencies --   1141.3685              1174.2972              1208.3144
 Red. masses --      2.8834                 1.1724                 2.1803
 Frc consts  --      2.2131                 0.9525                 1.8755
 IR Inten    --    188.0996                85.9684               191.7999

                     34                     35                     36
                      A                      A                      A
 Frequencies --   1294.5026              1353.9195              1372.5141
 Red. masses --      1.4567                 2.6847                 4.2059
 Frc consts  --      1.4382                 2.8996                 4.6681
 IR Inten    --     12.0870                24.0043               288.0757

                     37                     38                     39
                      A                      A                      A
 Frequencies --   1388.0623              1419.5163              1467.5637
 Red. masses --      6.7998                 5.1685                 4.8953
 Frc consts  --      7.7191                 6.1362                 6.2119
 IR Inten    --    338.4937                85.9976                11.3410

                     40                     41                     42
                      A                      A                      A
 Frequencies --   1514.0817              1582.1833              1608.4978
 Red. masses --      2.3705                 5.9180                 2.4266
 Frc consts  --      3.2018                 8.7284                 3.6991
 IR Inten    --     24.1070                23.0880                52.4093

                     43                     44                     45
                      A                      A                      A
 Frequencies --   1639.7578              1659.3921              1770.6081
 Red. masses --      3.9222                 5.1648                 7.1607
 Frc consts  --      6.2135                 8.3791                13.2267
 IR Inten    --    326.6782               288.5768               316.0200

                     46                     47                     48
                      A                      A                      A
 Frequencies --   3179.4736              3232.7725              3253.2768
 Red. masses --      1.0894                 1.0922                 1.0901
 Frc consts  --      6.4885                 6.7251                 6.7979
 IR Inten    --      9.1257                 2.1339                 7.4315

                     49                     50                     51
                      A                      A                      A
 Frequencies --   3530.9200              3716.8506              3767.0596
 Red. masses --      1.0519                 1.0982                 1.0643
 Frc consts  --      7.7267                 8.9391                 8.8986
 IR Inten    --    190.2657                84.0010                98.9685

 - Thermochemistry -
 -------------------
 Temperature   298.150 Kelvin.  Pressure   1.00000 Atm.
 Atom     1 has atomic number  6 and mass  12.00000

 Molecular mass:   182.03276 amu.
 Principal axes and moments of inertia in atomic units:
                           1         2         3
     Eigenvalues --  1233.119133286.850194519.96920
           X            1.00000   0.00003   0.00001
           Y           -0.00003   1.00000   0.00002
           Z           -0.00001  -0.00002   1.00000
 This molecule is an asymmetric top.
 Rotational symmetry number  1.
 Warning -- assumption of classical behavior for rotation
           may cause significant error
 Rotational temperatures (Kelvin)      0.07024     0.02635     0.01916
 Rotational constants (GHZ):           1.46356     0.54908     0.39928
 Zero-point vibrational energy     354476.0 (Joules/Mol)
                                   84.72179 (Kcal/Mol)
 Warning -- explicit consideration of  16 degrees of freedom as
           vibrations may cause significant error
 Vibrational temperatures:     89.29   105.86   162.83   212.71   234.79
          (Kelvin)            394.27   415.18   438.08   505.99   523.89
                              602.45   631.98   717.28   764.77   812.15
                              854.56   935.00   937.58   972.70  1040.06
                             1120.32  1121.36  1170.94  1204.57  1228.59
                             1343.26  1398.18  1428.57  1516.27  1559.61
                             1642.17  1689.55  1738.49  1862.50  1947.99
                             1974.74  1997.11  2042.36  2111.49  2178.42
                             2276.41  2314.27  2359.24  2387.49  2547.51
                             4574.55  4651.23  4680.73  5080.20  5347.71
                             5419.95

 Zero-point correction=                           0.135013 (Hartree/Particle)
 Thermal correction to Energy=                    0.145940
 Thermal correction to Enthalpy=                  0.146884
 Thermal correction to Gibbs Free Energy=         0.097742
 Sum of electronic and zero-point Energies=           -680.609577
 Sum of electronic and thermal Energies=              -680.598650
 Sum of electronic and thermal Enthalpies=            -680.597705
 Sum of electronic and thermal Free Energies=         -680.646847

                     E (Thermal)             CV                S
                      KCal/Mol        Cal/Mol-Kelvin    Cal/Mol-Kelvin
 Total                   91.579             41.416            103.427
 Electronic               0.000              0.000              0.000
 Translational            0.889              2.981             41.504
 Rotational               0.889              2.981             31.283
 Vibrational             89.801             35.454             30.641
 Vibration     1          0.597              1.972              4.391
 Vibration     2          0.599              1.966              4.055
 Vibration     3          0.607              1.939              3.214
 Vibration     4          0.617              1.905              2.700
 Vibration     5          0.623              1.888              2.512
 Vibration     6          0.676              1.721              1.571
 Vibration     7          0.685              1.695              1.482
 Vibration     8          0.695              1.665              1.392
 Vibration     9          0.728              1.572              1.159
 Vibration    10          0.738              1.546              1.104
 Vibration    11          0.782              1.430              0.896
 Vibration    12          0.799              1.385              0.829
 Vibration    13          0.854              1.253              0.662
 Vibration    14          0.887              1.180              0.584
 Vibration    15          0.920              1.108              0.515
 Vibration    16          0.952              1.045              0.460

 Normal termination of Gaussian 09 at Wed Aug 25 08:45:25 2021.

 -----------------------------------------------------------------
 #P Geom=AllCheck Guess=TCheck SCRF=Check CCSD(T,E4T,FrzG4)/GTBas1
 -----------------------------------------------------------------

 Structure from the checkpoint file:  "/public/home/users/caep010/.cache/gau_scr/Gau-103685.chk"
 ------
 GARBUY
 ------
 Charge =  0 Multiplicity = 1

 SCF Done:  E(RHF) =  -676.826632670     A.U. after   15 cycles
 E2 =    -0.1934972225D+01 EUMP2 =    -0.67876160489435D+03
 CCSD(T)
 CCSD(T)= -0.67887069763D+03
 8498\CCSD=-678.7875809\CCSD(T)=-678.8706976\RMSD=4.081e-09\PG=C01 [X(C
 Normal termination of Gaussian 09 at Wed Aug 25 10:07:49 2021.

 ---------------------------------------------------------
 #P Geom=AllCheck Guess=TCheck SCRF=Check MP4=FrzG4/GTBas2
 ---------------------------------------------------------

 Structure from the checkpoint file:  "/public/home/users/caep010/.cache/gau_scr/Gau-103685.chk"
 ------
 GARBUY
 ------
 Charge =  0 Multiplicity = 1

 SCF Done:  E(RHF) =  -676.846408199     A.U. after   16 cycles
 E2 =    -0.1961426082D+01 EUMP2 =    -0.67880783428168D+03
 Normal termination of Gaussian 09 at Wed Aug 25 10:43:24 2021.

 ---------------------------------------------------------
 #P Geom=AllCheck Guess=TCheck SCRF=Check MP4=FrzG4/GTBas3
 ---------------------------------------------------------

 Structure from the checkpoint file:  "/public/home/users/caep010/.cache/gau_scr/Gau-103685.chk"
 ------
 GARBUY
 ------
 Charge =  0 Multiplicity = 1

 SCF Done:  E(RHF) =  -676.899431214     A.U. after   12 cycles
 E2 =    -0.2319136276D+01 EUMP2 =    -0.67921856748982D+03
 Normal termination of Gaussian 09 at Wed Aug 25 15:24:00 2021.

 -----------------------------------------------------------
 #P Geom=AllCheck Guess=TCheck SCRF=Check MP2=Full/GTLargeXP
 -----------------------------------------------------------

 Structure from the checkpoint file:  "/public/home/users/caep010/.cache/gau_scr/Gau-103685.chk"
 ------
 GARBUY
 ------
 Charge =  0 Multiplicity = 1

 SCF Done:  E(RHF) =  -677.071258516     A.U. after   13 cycles
 E2 =    -0.3040259743D+01 EUMP2 =    -0.68011151825884D+03
 Normal termination of Gaussian 09 at Wed Aug 25 15:36:35 2021.
 SCF Done:  E(RHF) =  -677.125407535     A.U. after    9 cycles
 Normal termination of Gaussian 09 at Wed Aug 25 15:42:48 2021.

                         Standard orientation:
 ---------------------------------------------------------------------
 Center     Atomic      Atomic             Coordinates (Angstroms)
 Number     Number       Type             X           Y           Z
 ---------------------------------------------------------------------
      1          6           0        1.142047    1.294606   -0.000154
      2          6           0        0.983795   -0.126296   -0.000178
      3          6           0       -0.026172    2.097408    0.000132
      4          6           0        2.166544   -1.002152    0.000081
      5          7           0        2.360317    1.872311   -0.000751
      6          8           0        3.327177   -0.627120    0.000538
      7          1           0        2.447195    2.872831    0.001350
      8          6           0       -0.299800   -0.676518   -0.000164
      9          1           0       -0.432179   -1.748764   -0.000204
     10          6           0       -1.413782    0.142104   -0.000019
     11          1           0        0.085596    3.176877    0.000228
     12          6           0       -1.280269    1.536445    0.000178
     13          1           0       -2.172733    2.148051    0.000351
     14          1           0        3.177239    1.276215    0.000502
     15          7           0       -2.744355   -0.452083    0.000012
     16          8           0       -2.827514   -1.676297   -0.000088
     17          8           0        1.862482   -2.316192   -0.000144
     18          1           0        2.708103   -2.787658    0.000136
     19          8           0       -3.707037    0.310518    0.000140
 ---------------------------------------------------------------------

 SCF Done:  E(RHF) =  -677.136001214     A.U. after    7 cycles

 The electronic state is 1-A.
 Alpha  occ. eigenvalues --  -20.62706 -20.59184 -20.59145 -20.56469 -15.84783
 Alpha  occ. eigenvalues --  -15.59871 -11.41239 -11.34315 -11.29566 -11.29241
 Alpha  occ. eigenvalues --  -11.28924 -11.27090 -11.26015  -1.59627  -1.48556
 Alpha  occ. eigenvalues --   -1.38979  -1.37919  -1.27469  -1.19036  -1.08738
 Alpha  occ. eigenvalues --   -1.07018  -0.95167  -0.92576  -0.86798  -0.81850
 Alpha  occ. eigenvalues --   -0.77807  -0.74799  -0.74072  -0.73179  -0.71425
 Alpha  occ. eigenvalues --   -0.71037  -0.70474  -0.65731  -0.64735  -0.63431
 Alpha  occ. eigenvalues --   -0.61424  -0.59941  -0.57451  -0.55126  -0.50801
 Alpha  occ. eigenvalues --   -0.49473  -0.48847  -0.48781  -0.47591  -0.45125
 Alpha  occ. eigenvalues --   -0.38932  -0.33296
 Alpha virt. eigenvalues --    0.02534   0.03436   0.04037   0.04204   0.05131
 Alpha virt. eigenvalues --    0.05604   0.05804   0.05927   0.07156   0.07238
 Alpha virt. eigenvalues --    0.07836   0.08156   0.08233   0.09361   0.09786

 Mulliken charges:
               1
     1  C    0.311795
     2  C    0.141912
     3  C   -0.232540
     4  C    0.587416
     5  N   -0.794898
     6  O   -0.660714
     7  H    0.339628
     8  C   -0.185215
     9  H    0.285998
    10  C    0.040794
    11  H    0.191863
    12  C   -0.184223
    13  H    0.265520
    14  H    0.396678
    15  N    0.550036
    16  O   -0.455200
    17  O   -0.565608
    18  H    0.428474
    19  O   -0.461717
 Sum of Mulliken charges =  -0.00000

 Dipole moment (field-independent basis, Debye):
    X=              4.6891    Y=              2.9814    Z=              0.0043  Tot=              5.5567
 Quadrupole moment (field-independent basis, Debye-Ang):
   XX=            -92.6395   YY=            -61.1782   ZZ=            -75.6832
   XY=             -4.5059   XZ=              0.0114   YZ=              0.0119

 Normal termination of Gaussian 09 at Wed Aug 25 16:24:07 2021.
