 Gaussian 09, Revision E.01,
 Gaussian 09:  ES64L-G09RevE.01 30-Nov-2015

 ----------------
 #P G4 OPT=calcfc
 ----------------

 ------
 GULGAV
 ------
 Symbolic Z-matrix:
 Charge =  0 Multiplicity = 1

 SCF Done:  E(RB3LYP) =  -635.185313209     A.U. after   16 cycles
 SCF Done:  E(RB3LYP) =  -635.234635261     A.U. after   14 cycles
 SCF Done:  E(RB3LYP) =  -635.240938371     A.U. after   16 cycles
 SCF Done:  E(RB3LYP) =  -635.242003999     A.U. after   15 cycles
 SCF Done:  E(RB3LYP) =  -635.242078875     A.U. after   14 cycles
 SCF Done:  E(RB3LYP) =  -635.242082935     A.U. after   10 cycles
 SCF Done:  E(RB3LYP) =  -635.242083516     A.U. after    9 cycles
 Optimization completed.
    -- Stationary point found.
 Normal termination of Gaussian 09 at Wed Aug 25 17:41:10 2021.

 ----------------------------------------------------------
 #P Geom=AllCheck Guess=TCheck SCRF=Check B3LYP/GTBas3 Freq
 ----------------------------------------------------------

 Structure from the checkpoint file:  "/public/home/users/caep010/.cache/gau_scr/Gau-89511.chk"
 ------
 GULGAV
 ------
 Charge =  0 Multiplicity = 1

 SCF Done:  E(RB3LYP) =  -635.242083516     A.U. after    1 cycles

  Exact polarizability:  91.961  -1.154  89.694   3.660  -1.266  39.979
 Approx polarizability: 172.959  -4.085 162.721  16.745  -9.249  76.384

                      1                      2                      3
                      A                      A                      A
 Frequencies --     42.2998                76.2654               165.0865
 Red. masses --     14.8584                15.6956                14.9125
 Frc consts  --      0.0157                 0.0538                 0.2395
 IR Inten    --      0.5931                 0.3956                 1.5281

                      4                      5                      6
                      A                      A                      A
 Frequencies --    176.4453               206.8980               268.8879
 Red. masses --      8.7663                 7.7364                 8.1359
 Frc consts  --      0.1608                 0.1951                 0.3466
 IR Inten    --      5.9043                 1.2888                 3.9890

                      7                      8                      9
                      A                      A                      A
 Frequencies --    383.2788               423.3389               500.5296
 Red. masses --     11.6519                11.9911                10.6988
 Frc consts  --      1.0085                 1.2661                 1.5792
 IR Inten    --      0.5199                 2.7757                 3.5191

                     10                     11                     12
                      A                      A                      A
 Frequencies --    590.7509               619.2640               672.9747
 Red. masses --      7.6959                 3.2888                 1.5924
 Frc consts  --      1.5824                 0.7431                 0.4249
 IR Inten    --      9.3343                53.3181                38.6107

                     13                     14                     15
                      A                      A                      A
 Frequencies --    711.6072               770.7441               799.9155
 Red. masses --      3.6031                10.4417                10.8894
 Frc consts  --      1.0750                 3.6546                 4.1053
 IR Inten    --      4.1707                13.0104                 2.5943

                     16                     17                     18
                      A                      A                      A
 Frequencies --    817.0492               860.7946               863.1900
 Red. masses --     13.5800                 1.4505                13.1358
 Frc consts  --      5.3413                 0.6333                 5.7666
 IR Inten    --     60.3872                 8.3551                34.8980

                     19                     20                     21
                      A                      A                      A
 Frequencies --    952.8420              1083.6591              1147.5055
 Red. masses --      7.7057                 1.9042                 2.9707
 Frc consts  --      4.1220                 1.3175                 2.3047
 IR Inten    --      0.1645                24.8851                22.9960

                     22                     23                     24
                      A                      A                      A
 Frequencies --   1241.9384              1299.6544              1363.5417
 Red. masses --      1.7320                 8.3214                10.2619
 Frc consts  --      1.5739                 8.2814                11.2413
 IR Inten    --      3.5566                39.5009               110.3072

                     25                     26                     27
                      A                      A                      A
 Frequencies --   1387.2292              1417.3182              1448.2543
 Red. masses --     10.0118                12.6507                 3.7165
 Frc consts  --     11.3516                14.9727                 4.5928
 IR Inten    --    250.5576                94.0326                54.8625

                     28                     29                     30
                      A                      A                      A
 Frequencies --   1509.3510              1572.1068              1631.8625
 Red. masses --      4.1310                 7.5666                14.0795
 Frc consts  --      5.5449                11.0183                22.0904
 IR Inten    --     77.7725                36.3429               233.0148

                     31                     32                     33
                      A                      A                      A
 Frequencies --   1661.3222              3272.1690              3623.5227
 Red. masses --     14.5886                 1.0983                 1.0815
 Frc consts  --     23.7231                 6.9287                 8.3667
 IR Inten    --    208.1842                 1.8848               137.9760

 - Thermochemistry -
 -------------------
 Temperature   298.150 Kelvin.  Pressure   1.00000 Atm.
 Atom     1 has atomic number  8 and mass  15.99491

 Molecular mass:   158.00760 amu.
 Principal axes and moments of inertia in atomic units:
                           1         2         3
     Eigenvalues --  1079.236011585.716392527.91158
           X            0.99940   0.03476   0.00024
           Y           -0.03476   0.99939   0.00156
           Z           -0.00019  -0.00157   1.00000
 This molecule is an asymmetric top.
 Rotational symmetry number  1.
 Warning -- assumption of classical behavior for rotation
           may cause significant error
 Rotational temperatures (Kelvin)      0.08025     0.05462     0.03426
 Rotational constants (GHZ):           1.67224     1.13812     0.71393
 Zero-point vibrational energy     200742.9 (Joules/Mol)
                                   47.97871 (Kcal/Mol)
 Warning -- explicit consideration of  11 degrees of freedom as
           vibrations may cause significant error
 Vibrational temperatures:     60.86   109.73   237.52   253.87   297.68
          (Kelvin)            386.87   551.45   609.09   720.15   849.96
                              890.98   968.26  1023.84  1108.93  1150.90
                             1175.55  1238.49  1241.94  1370.93  1559.14
                             1651.00  1786.87  1869.91  1961.83  1995.91
                             2039.20  2083.71  2171.62  2261.91  2347.88
                             2390.27  4707.92  5213.43

 Zero-point correction=                           0.076459 (Hartree/Particle)
 Thermal correction to Energy=                    0.085058
 Thermal correction to Enthalpy=                  0.086002
 Thermal correction to Gibbs Free Energy=         0.041326
 Sum of electronic and zero-point Energies=           -635.165625
 Sum of electronic and thermal Energies=              -635.157025
 Sum of electronic and thermal Enthalpies=            -635.156081
 Sum of electronic and thermal Free Energies=         -635.200758

                     E (Thermal)             CV                S
                      KCal/Mol        Cal/Mol-Kelvin    Cal/Mol-Kelvin
 Total                   53.375             30.146             94.029
 Electronic               0.000              0.000              0.000
 Translational            0.889              2.981             41.082
 Rotational               0.889              2.981             29.849
 Vibrational             51.597             24.185             23.099
 Vibration     1          0.595              1.980              5.148
 Vibration     2          0.599              1.965              3.985
 Vibration     3          0.623              1.885              2.491
 Vibration     4          0.628              1.871              2.366
 Vibration     5          0.641              1.830              2.071
 Vibration     6          0.673              1.730              1.603
 Vibration     7          0.752              1.506              1.026
 Vibration     8          0.786              1.419              0.881
 Vibration     9          0.856              1.249              0.657
 Vibration    10          0.948              1.051              0.466
 Vibration    11          0.979              0.991              0.418

 Optimization completed.
    -- Stationary point found.
 Normal termination of Gaussian 09 at Wed Aug 25 17:42:42 2021.

 -----------------------------------------------------------------
 #P Geom=AllCheck Guess=TCheck SCRF=Check CCSD(T,E4T,FrzG4)/GTBas1
 -----------------------------------------------------------------

 Structure from the checkpoint file:  "/public/home/users/caep010/.cache/gau_scr/Gau-89511.chk"
 ------
 GULGAV
 ------
 Charge =  0 Multiplicity = 1

 SCF Done:  E(RHF) =  -631.719112188     A.U. after   15 cycles
 E2 =    -0.1795642166D+01 EUMP2 =    -0.63351475435410D+03
 CCSD(T)
 CCSD(T)= -0.63358233107D+03
 308\MP4SDQ=-633.5099094\CCSD=-633.500877\CCSD(T)=-633.5823311\RMSD=8.5
 Normal termination of Gaussian 09 at Wed Aug 25 18:15:20 2021.

 ---------------------------------------------------------
 #P Geom=AllCheck Guess=TCheck SCRF=Check MP4=FrzG4/GTBas2
 ---------------------------------------------------------

 Structure from the checkpoint file:  "/public/home/users/caep010/.cache/gau_scr/Gau-89511.chk"
 ------
 GULGAV
 ------
 Charge =  0 Multiplicity = 1

 SCF Done:  E(RHF) =  -631.737948130     A.U. after   14 cycles
 E2 =    -0.1821294200D+01 EUMP2 =    -0.63355924232955D+03
 Normal termination of Gaussian 09 at Wed Aug 25 18:26:12 2021.

 ---------------------------------------------------------
 #P Geom=AllCheck Guess=TCheck SCRF=Check MP4=FrzG4/GTBas3
 ---------------------------------------------------------

 Structure from the checkpoint file:  "/public/home/users/caep010/.cache/gau_scr/Gau-89511.chk"
 ------
 GULGAV
 ------
 Charge =  0 Multiplicity = 1

 SCF Done:  E(RHF) =  -631.785165620     A.U. after   13 cycles
 E2 =    -0.2127324393D+01 EUMP2 =    -0.63391249001258D+03
 Normal termination of Gaussian 09 at Wed Aug 25 19:28:19 2021.

 -----------------------------------------------------------
 #P Geom=AllCheck Guess=TCheck SCRF=Check MP2=Full/GTLargeXP
 -----------------------------------------------------------

 Structure from the checkpoint file:  "/public/home/users/caep010/.cache/gau_scr/Gau-89511.chk"
 ------
 GULGAV
 ------
 Charge =  0 Multiplicity = 1

 SCF Done:  E(RHF) =  -631.950881079     A.U. after   15 cycles
 E2 =    -0.2755561773D+01 EUMP2 =    -0.63470644285223D+03
 Normal termination of Gaussian 09 at Wed Aug 25 19:38:28 2021.
 SCF Done:  E(RHF) =  -632.001388593     A.U. after   11 cycles
 Normal termination of Gaussian 09 at Wed Aug 25 19:42:17 2021.

                         Standard orientation:
 ---------------------------------------------------------------------
 Center     Atomic      Atomic             Coordinates (Angstroms)
 Number     Number       Type             X           Y           Z
 ---------------------------------------------------------------------
      1          8           0       -1.603148   -1.501265    0.804130
      2          7           0       -1.753349   -0.551196    0.053047
      3          8           0       -2.711378   -0.328149   -0.665702
      4          6           0       -0.680589    0.439234    0.030030
      5          7           0       -0.969088    1.757636    0.066206
      6          6           0        0.202805    2.368795    0.074914
      7          1           0        0.349223    3.437028    0.109929
      8          7           0        1.230894    1.490030    0.037806
      9          1           0        2.228064    1.654142    0.021478
     10          6           0        0.684124    0.235360    0.011120
     11          7           0        1.545938   -0.903239   -0.098292
     12          8           0        1.038300   -1.992157   -0.296787
     13          8           0        2.751714   -0.666444    0.003466
 ---------------------------------------------------------------------

 SCF Done:  E(RHF) =  -632.011391381     A.U. after    8 cycles

 The electronic state is 1-A.
 Alpha  occ. eigenvalues --  -20.63907 -20.63155 -20.62205 -20.62148 -15.89609
 Alpha  occ. eigenvalues --  -15.87644 -15.69789 -15.62340 -11.38465 -11.38277
 Alpha  occ. eigenvalues --  -11.37739  -1.64326  -1.62912  -1.44042  -1.42793
 Alpha  occ. eigenvalues --   -1.42366  -1.26065  -1.15496  -1.06469  -0.97237
 Alpha  occ. eigenvalues --   -0.91470  -0.84431  -0.83675  -0.77877  -0.76819
 Alpha  occ. eigenvalues --   -0.76630  -0.74602  -0.74378  -0.73187  -0.67312
 Alpha  occ. eigenvalues --   -0.66841  -0.55275  -0.53893  -0.52429  -0.52316
 Alpha  occ. eigenvalues --   -0.50820  -0.48824  -0.47708  -0.46588  -0.40499
 Alpha virt. eigenvalues --    0.00117   0.01482   0.03652   0.03739   0.04930
 Alpha virt. eigenvalues --    0.05992   0.06606   0.06891   0.07079   0.07363
 Alpha virt. eigenvalues --    0.08391   0.09332   0.10181   0.11247   0.11549

 Mulliken charges:
               1
     1  O   -0.376874
     2  N    0.489013
     3  O   -0.389948
     4  C    0.361270
     5  N   -0.423580
     6  C    0.128818
     7  H    0.258638
     8  N   -0.398400
     9  H    0.425207
    10  C    0.225287
    11  N    0.512907
    12  O   -0.365167
    13  O   -0.447171
 Sum of Mulliken charges =  -0.00000

 Dipole moment (field-independent basis, Debye):
    X=              3.8363    Y=              6.0164    Z=              0.1483  Tot=              7.1370
 Quadrupole moment (field-independent basis, Debye-Ang):
   XX=            -72.3886   YY=            -57.4050   ZZ=            -61.3441
   XY=              8.4663   XZ=             -1.0082   YZ=              1.1869

 Normal termination of Gaussian 09 at Wed Aug 25 20:07:12 2021.
