 Gaussian 09, Revision E.01,
 Gaussian 09:  ES64L-G09RevE.01 30-Nov-2015

 ----------------
 #P G4 OPT=calcfc
 ----------------

 ------
 HABMED
 ------
 Symbolic Z-matrix:
 Charge =  0 Multiplicity = 1

 SCF Done:  E(RB3LYP) =  -622.547880675     A.U. after   16 cycles
 SCF Done:  E(RB3LYP) =  -622.620177075     A.U. after   14 cycles
 SCF Done:  E(RB3LYP) =  -622.647435127     A.U. after   16 cycles
 SCF Done:  E(RB3LYP) =  -622.650533793     A.U. after   15 cycles
 SCF Done:  E(RB3LYP) =  -622.648366655     A.U. after   14 cycles
 SCF Done:  E(RB3LYP) =  -622.650880343     A.U. after   11 cycles
 SCF Done:  E(RB3LYP) =  -622.650529009     A.U. after   15 cycles
 SCF Done:  E(RB3LYP) =  -622.651657255     A.U. after   12 cycles
 SCF Done:  E(RB3LYP) =  -622.651790780     A.U. after   12 cycles
 SCF Done:  E(RB3LYP) =  -622.651610067     A.U. after   12 cycles
 SCF Done:  E(RB3LYP) =  -622.651815751     A.U. after   10 cycles
 SCF Done:  E(RB3LYP) =  -622.651815869     A.U. after    9 cycles
 SCF Done:  E(RB3LYP) =  -622.651816040     A.U. after    8 cycles
 Optimization completed.
    -- Stationary point found.
 Normal termination of Gaussian 09 at Fri Aug 27 03:50:44 2021.

 ----------------------------------------------------------
 #P Geom=AllCheck Guess=TCheck SCRF=Check B3LYP/GTBas3 Freq
 ----------------------------------------------------------

 Structure from the checkpoint file:  "/public/home/users/caep010/.cache/gau_scr/Gau-186940.chk"
 ------
 HABMED
 ------
 Charge =  0 Multiplicity = 1

 SCF Done:  E(RB3LYP) =  -622.651816040     A.U. after    1 cycles

  Exact polarizability: 130.132  -5.765 114.608  -8.837   2.640  55.814
 Approx polarizability: 210.323 -29.771 223.648 -22.131  16.827 100.053

                      1                      2                      3
                      A                      A                      A
 Frequencies --     79.5399                85.8525               102.4812
 Red. masses --      5.8063                 8.7729                 6.6888
 Frc consts  --      0.0216                 0.0381                 0.0414
 IR Inten    --      0.9718                 0.4390                 3.6038

                      4                      5                      6
                      A                      A                      A
 Frequencies --    143.7344               193.4985               231.6459
 Red. masses --      1.2847                 3.5583                 3.2890
 Frc consts  --      0.0156                 0.0785                 0.1040
 IR Inten    --      0.2582                 1.4336                 3.5525

                      7                      8                      9
                      A                      A                      A
 Frequencies --    289.8409               328.9564               371.7088
 Red. masses --      3.4296                 5.5811                 4.5642
 Frc consts  --      0.1697                 0.3558                 0.3716
 IR Inten    --      0.4318                 5.8361                14.8257

                     10                     11                     12
                      A                      A                      A
 Frequencies --    422.7684               524.7584               535.6680
 Red. masses --      6.2306                 4.4458                 4.5040
 Frc consts  --      0.6561                 0.7213                 0.7614
 IR Inten    --      4.2153                 2.8529                 4.7299

                     13                     14                     15
                      A                      A                      A
 Frequencies --    576.0629               585.6185               595.4373
 Red. masses --      4.4414                 4.6856                 6.7930
 Frc consts  --      0.8684                 0.9468                 1.4190
 IR Inten    --      1.7015                 7.1004                 6.4930

                     16                     17                     18
                      A                      A                      A
 Frequencies --    627.2056               734.5490               743.6588
 Red. masses --      2.5571                 6.7794                 3.0450
 Frc consts  --      0.5927                 2.1552                 0.9922
 IR Inten    --     36.6389                12.2298                14.6378

                     19                     20                     21
                      A                      A                      A
 Frequencies --    790.7070               806.0509               829.1347
 Red. masses --      3.6231                 1.9330                 4.9421
 Frc consts  --      1.3346                 0.7400                 2.0018
 IR Inten    --     34.6248                 9.7677                74.0142

                     22                     23                     24
                      A                      A                      A
 Frequencies --    896.2973               913.8700               963.1112
 Red. masses --      1.4470                 4.0688                 1.2700
 Frc consts  --      0.6849                 2.0021                 0.6941
 IR Inten    --      2.8598                23.0737                 0.4394

                     25                     26                     27
                      A                      A                      A
 Frequencies --    971.1064              1012.9606              1063.2975
 Red. masses --      2.8432                 2.1019                 1.5509
 Frc consts  --      1.5798                 1.2707                 1.0331
 IR Inten    --     33.6730                51.7141                 7.0846

                     28                     29                     30
                      A                      A                      A
 Frequencies --   1088.1569              1116.7128              1183.1855
 Red. masses --      2.4625                 1.7237                 1.2990
 Frc consts  --      1.7179                 1.2664                 1.0715
 IR Inten    --     23.2478                 5.0166                12.6173

                     31                     32                     33
                      A                      A                      A
 Frequencies --   1231.2107              1262.7995              1298.1265
 Red. masses --      4.7887                 3.0847                 2.2737
 Frc consts  --      4.2769                 2.8982                 2.2574
 IR Inten    --     62.8387                10.5353                51.8880

                     34                     35                     36
                      A                      A                      A
 Frequencies --   1340.8247              1362.1465              1413.2291
 Red. masses --      4.5096                 5.7178                 1.2506
 Frc consts  --      4.7767                 6.2507                 1.4716
 IR Inten    --    198.3845               218.9123                 4.2158

                     37                     38                     39
                      A                      A                      A
 Frequencies --   1451.2609              1472.3643              1478.0765
 Red. masses --      2.0831                 1.6113                 1.0848
 Frc consts  --      2.5849                 2.0581                 1.3963
 IR Inten    --     71.0265                14.8623                23.6620

                     40                     41                     42
                      A                      A                      A
 Frequencies --   1495.0955              1531.0457              1599.5946
 Red. masses --      1.2003                 3.6452                 5.3442
 Frc consts  --      1.5808                 5.0344                 8.0567
 IR Inten    --     42.9665                 9.6552                10.5899

                     43                     44                     45
                      A                      A                      A
 Frequencies --   1650.2822              1711.7477              3050.8040
 Red. masses --      6.7103                 6.4919                 1.0350
 Frc consts  --     10.7673                11.2073                 5.6757
 IR Inten    --     13.0654               288.1802                10.6778

                     46                     47                     48
                      A                      A                      A
 Frequencies --   3118.9115              3129.3647              3197.2777
 Red. masses --      1.0998                 1.1028                 1.0873
 Frc consts  --      6.3032                 6.3631                 6.5486
 IR Inten    --      2.9948                10.9837                 1.9274

                     49                     50                     51
                      A                      A                      A
 Frequencies --   3212.3641              3253.3628              3441.8097
 Red. masses --      1.0943                 1.0944                 1.0729
 Frc consts  --      6.6535                 6.8248                 7.4882
 IR Inten    --      3.7521                 0.5650                85.4241

 - Thermochemistry -
 -------------------
 Temperature   298.150 Kelvin.  Pressure   1.00000 Atm.
 Atom     1 has atomic number  8 and mass  15.99491

 Molecular mass:   169.04874 amu.
 Principal axes and moments of inertia in atomic units:
                           1         2         3
     Eigenvalues --  1159.565632195.981993077.91397
           X            0.99994  -0.00452  -0.01027
           Y            0.00436   0.99987  -0.01564
           Z            0.01034   0.01560   0.99982
 This molecule is an asymmetric top.
 Rotational symmetry number  1.
 Warning -- assumption of classical behavior for rotation
           may cause significant error
 Rotational temperatures (Kelvin)      0.07470     0.03944     0.02814
 Rotational constants (GHZ):           1.55639     0.82184     0.58635
 Zero-point vibrational energy     367907.2 (Joules/Mol)
                                   87.93192 (Kcal/Mol)
 Warning -- explicit consideration of  15 degrees of freedom as
           vibrations may cause significant error
 Vibrational temperatures:    114.44   123.52   147.45   206.80   278.40
          (Kelvin)            333.29   417.02   473.29   534.81   608.27
                              755.01   770.71   828.82   842.57   856.70
                              902.41  1056.85  1069.96  1137.65  1159.73
                             1192.94  1289.57  1314.85  1385.70  1397.20
                             1457.42  1529.85  1565.61  1606.70  1702.34
                             1771.44  1816.88  1867.71  1929.15  1959.82
                             2033.32  2088.04  2118.40  2126.62  2151.11
                             2202.83  2301.46  2374.39  2462.82  4389.42
                             4487.41  4502.45  4600.16  4621.87  4680.86
                             4951.99

 Zero-point correction=                           0.140128 (Hartree/Particle)
 Thermal correction to Energy=                    0.150308
 Thermal correction to Enthalpy=                  0.151252
 Thermal correction to Gibbs Free Energy=         0.103986
 Sum of electronic and zero-point Energies=           -622.511688
 Sum of electronic and thermal Energies=              -622.501508
 Sum of electronic and thermal Enthalpies=            -622.500564
 Sum of electronic and thermal Free Energies=         -622.547830

                     E (Thermal)             CV                S
                      KCal/Mol        Cal/Mol-Kelvin    Cal/Mol-Kelvin
 Total                   94.320             38.239             99.480
 Electronic               0.000              0.000              0.000
 Translational            0.889              2.981             41.283
 Rotational               0.889              2.981             30.439
 Vibrational             92.542             32.277             27.758
 Vibration     1          0.600              1.963              3.902
 Vibration     2          0.601              1.959              3.752
 Vibration     3          0.605              1.947              3.407
 Vibration     4          0.616              1.909              2.754
 Vibration     5          0.635              1.849              2.194
 Vibration     6          0.653              1.793              1.866
 Vibration     7          0.686              1.693              1.475
 Vibration     8          0.712              1.618              1.265
 Vibration     9          0.743              1.530              1.073
 Vibration    10          0.785              1.421              0.883
 Vibration    11          0.880              1.195              0.599
 Vibration    12          0.891              1.171              0.575
 Vibration    13          0.932              1.083              0.493
 Vibration    14          0.943              1.062              0.475
 Vibration    15          0.953              1.041              0.458

 Optimization completed.
    -- Stationary point found.
 Normal termination of Gaussian 09 at Fri Aug 27 03:53:17 2021.

 -----------------------------------------------------------------
 #P Geom=AllCheck Guess=TCheck SCRF=Check CCSD(T,E4T,FrzG4)/GTBas1
 -----------------------------------------------------------------

 Structure from the checkpoint file:  "/public/home/users/caep010/.cache/gau_scr/Gau-186940.chk"
 ------
 HABMED
 ------
 Charge =  0 Multiplicity = 1

 SCF Done:  E(RHF) =  -618.984686805     A.U. after   15 cycles
 E2 =    -0.1829628282D+01 EUMP2 =    -0.62081431508660D+03
 CCSD(T)
 CCSD(T)= -0.62091855619D+03
 CSD=-620.8362602\CCSD(T)=-620.9185562\RMSD=9.064e-09\PG=C01 [X(C6H7N3O
 Normal termination of Gaussian 09 at Fri Aug 27 04:52:46 2021.

 ---------------------------------------------------------
 #P Geom=AllCheck Guess=TCheck SCRF=Check MP4=FrzG4/GTBas2
 ---------------------------------------------------------

 Structure from the checkpoint file:  "/public/home/users/caep010/.cache/gau_scr/Gau-186940.chk"
 ------
 HABMED
 ------
 Charge =  0 Multiplicity = 1

 SCF Done:  E(RHF) =  -619.003565444     A.U. after   14 cycles
 E2 =    -0.1854710106D+01 EUMP2 =    -0.62085827554998D+03
 Normal termination of Gaussian 09 at Fri Aug 27 05:16:07 2021.

 ---------------------------------------------------------
 #P Geom=AllCheck Guess=TCheck SCRF=Check MP4=FrzG4/GTBas3
 ---------------------------------------------------------

 Structure from the checkpoint file:  "/public/home/users/caep010/.cache/gau_scr/Gau-186940.chk"
 ------
 HABMED
 ------
 Charge =  0 Multiplicity = 1

 SCF Done:  E(RHF) =  -619.050713483     A.U. after   13 cycles
 E2 =    -0.2187013225D+01 EUMP2 =    -0.62123772670777D+03
 Normal termination of Gaussian 09 at Fri Aug 27 08:27:41 2021.

 -----------------------------------------------------------
 #P Geom=AllCheck Guess=TCheck SCRF=Check MP2=Full/GTLargeXP
 -----------------------------------------------------------

 Structure from the checkpoint file:  "/public/home/users/caep010/.cache/gau_scr/Gau-186940.chk"
 ------
 HABMED
 ------
 Charge =  0 Multiplicity = 1

 SCF Done:  E(RHF) =  -619.205216809     A.U. after   14 cycles
 E2 =    -0.2852325215D+01 EUMP2 =    -0.62205754202403D+03
 Normal termination of Gaussian 09 at Fri Aug 27 08:46:27 2021.
 SCF Done:  E(RHF) =  -619.254822246     A.U. after   10 cycles
 Normal termination of Gaussian 09 at Fri Aug 27 08:52:31 2021.

                         Standard orientation:
 ---------------------------------------------------------------------
 Center     Atomic      Atomic             Coordinates (Angstroms)
 Number     Number       Type             X           Y           Z
 ---------------------------------------------------------------------
      1          8           0       -0.340159   -2.384545   -0.229361
      2          7           0       -0.906582   -1.246922   -0.081419
      3          6           0       -0.180091   -0.086956   -0.291135
      4          7           0        1.138208   -0.343141   -0.687183
      5          6           0       -0.768979    1.172727   -0.217329
      6          6           0        0.019711    2.411515   -0.541633
      7          1           0        0.610582    2.735261    0.319444
      8          1           0        0.719840    2.225350   -1.360841
      9          1           0       -0.651984    3.223298   -0.830358
     10          1           0        1.241927   -1.329208   -0.939663
     11          7           0        2.189289   -0.037478    0.224268
     12          8           0        3.230636   -0.622711    0.009838
     13          8           0        1.970032    0.801859    1.077078
     14          6           0       -2.114149    1.243318    0.149849
     15          6           0       -2.829882    0.076061    0.389918
     16          1           0       -3.876613    0.108313    0.667621
     17          6           0       -2.222261   -1.154340    0.255640
     18          1           0       -2.702995   -2.111219    0.396556
     19          1           0       -2.597330    2.210212    0.225265
 ---------------------------------------------------------------------

 SCF Done:  E(RHF) =  -619.264484775     A.U. after    8 cycles

 The electronic state is 1-A.
 Alpha  occ. eigenvalues --  -20.61448 -20.61359 -20.52966 -15.89739 -15.74772
 Alpha  occ. eigenvalues --  -15.66004 -11.35437 -11.31158 -11.29446 -11.28349
 Alpha  occ. eigenvalues --  -11.28130 -11.24890  -1.63905  -1.47519  -1.42719
 Alpha  occ. eigenvalues --   -1.30231  -1.22132  -1.11502  -1.08588  -0.99793
 Alpha  occ. eigenvalues --   -0.94280  -0.88656  -0.86844  -0.80034  -0.78773
 Alpha  occ. eigenvalues --   -0.75875  -0.73442  -0.72506  -0.68751  -0.66390
 Alpha  occ. eigenvalues --   -0.65849  -0.63539  -0.59992  -0.59530  -0.56228
 Alpha  occ. eigenvalues --   -0.55528  -0.52756  -0.51491  -0.50347  -0.48921
 Alpha  occ. eigenvalues --   -0.47461  -0.44881  -0.37583  -0.34580
 Alpha virt. eigenvalues --    0.02325   0.03159   0.04106   0.04596   0.04776
 Alpha virt. eigenvalues --    0.05578   0.05783   0.06695   0.06973   0.07145
 Alpha virt. eigenvalues --    0.08001   0.08127   0.08564   0.09318   0.09549

 Mulliken charges:
               1
     1  O   -0.666244
     2  N    0.166095
     3  C    0.245403
     4  N   -0.412781
     5  C    0.350543
     6  C   -0.694210
     7  H    0.228248
     8  H    0.208573
     9  H    0.179357
    10  H    0.392676
    11  N    0.590206
    12  O   -0.416365
    13  O   -0.400282
    14  C   -0.181544
    15  C   -0.122665
    16  H    0.228885
    17  C   -0.164606
    18  H    0.252953
    19  H    0.215758
 Sum of Mulliken charges =  -0.00000

 Dipole moment (field-independent basis, Debye):
    X=             -5.5571    Y=              3.5620    Z=             -0.7876  Tot=              6.6475
 Quadrupole moment (field-independent basis, Debye-Ang):
   XX=            -68.0152   YY=            -72.6258   ZZ=            -71.6697
   XY=             -0.4292   XZ=             -5.1675   YZ=             -2.3534

 Normal termination of Gaussian 09 at Fri Aug 27 09:33:25 2021.
