 Gaussian 09, Revision E.01,
 Gaussian 09:  ES64L-G09RevE.01 30-Nov-2015

 ----------------
 #P G4 OPT=calcfc
 ----------------

 ------
 HNIMOZ
 ------
 Symbolic Z-matrix:
 Charge =  0 Multiplicity = 1

 SCF Done:  E(RB3LYP) =  -583.348421877     A.U. after   15 cycles
 SCF Done:  E(RB3LYP) =  -583.377914739     A.U. after   13 cycles
 SCF Done:  E(RB3LYP) =  -583.380586391     A.U. after   14 cycles
 SCF Done:  E(RB3LYP) =  -583.380927970     A.U. after   11 cycles
 SCF Done:  E(RB3LYP) =  -583.380946796     A.U. after   10 cycles
 SCF Done:  E(RB3LYP) =  -583.380950017     A.U. after    9 cycles
 SCF Done:  E(RB3LYP) =  -583.380951058     A.U. after    8 cycles
 SCF Done:  E(RB3LYP) =  -583.380951080     A.U. after    7 cycles
 Optimization completed.
    -- Stationary point found.
 Normal termination of Gaussian 09 at Thu Aug 26 21:02:24 2021.

 ----------------------------------------------------------
 #P Geom=AllCheck Guess=TCheck SCRF=Check B3LYP/GTBas3 Freq
 ----------------------------------------------------------

 Structure from the checkpoint file:  "/public/home/users/caep010/.cache/gau_scr/Gau-187555.chk"
 ------
 HNIMOZ
 ------
 Charge =  0 Multiplicity = 1

 SCF Done:  E(RB3LYP) =  -583.380951080     A.U. after    1 cycles

  Exact polarizability: 109.579  -1.133  92.263  -0.414  -0.156  45.275
 Approx polarizability: 178.631   8.476 175.334  -0.187   0.653  72.081

                      1                      2                      3
                      A                      A                      A
 Frequencies --     81.0432               103.2229               152.5354
 Red. masses --      8.5486                 1.9669                 6.9068
 Frc consts  --      0.0331                 0.0123                 0.0947
 IR Inten    --      1.7212                 0.3908                 7.8560

                      4                      5                      6
                      A                      A                      A
 Frequencies --    169.5808               170.6010               326.5425
 Red. masses --      4.9901                 6.8811                 9.8123
 Frc consts  --      0.0845                 0.1180                 0.6165
 IR Inten    --      1.7724                 7.4889                 0.7891

                      7                      8                      9
                      A                      A                      A
 Frequencies --    389.6133               441.2333               592.9696
 Red. masses --      8.8121                 9.6106                 3.8711
 Frc consts  --      0.7881                 1.1024                 0.8019
 IR Inten    --      1.4513                 2.3740                 1.2150

                     10                     11                     12
                      A                      A                      A
 Frequencies --    598.9090               667.9526               741.5818
 Red. masses --      6.6000                 4.9324                 7.5516
 Frc consts  --      1.3948                 1.2966                 2.4468
 IR Inten    --      7.5866                 1.4499                18.8765

                     13                     14                     15
                      A                      A                      A
 Frequencies --    760.2757               769.0324               799.1128
 Red. masses --      7.0467                 9.9161                 3.4383
 Frc consts  --      2.3998                 3.4553                 1.2936
 IR Inten    --     30.2658                 6.4853                 1.7657

                     16                     17                     18
                      A                      A                      A
 Frequencies --    835.8454               867.0580               895.2157
 Red. masses --      4.4811                 2.3658                 1.4403
 Frc consts  --      1.8446                 1.0479                 0.6801
 IR Inten    --     17.5297                13.9202                 7.7111

                     19                     20                     21
                      A                      A                      A
 Frequencies --    949.3545              1009.5398              1065.9590
 Red. masses --      2.6964                 6.5840                 4.2839
 Frc consts  --      1.4318                 3.9536                 2.8679
 IR Inten    --      8.5555                80.2085                31.5079

                     22                     23                     24
                      A                      A                      A
 Frequencies --   1136.2900              1179.5927              1208.3540
 Red. masses --      1.6566                 2.2939                 2.1140
 Frc consts  --      1.2602                 1.8806                 1.8186
 IR Inten    --      1.6040                44.8078                42.1324

                     25                     26                     27
                      A                      A                      A
 Frequencies --   1218.1144              1248.1829              1281.1004
 Red. masses --      1.4112                 1.3141                 2.8231
 Frc consts  --      1.2337                 1.2062                 2.7299
 IR Inten    --     21.9299                 9.0845                83.5204

                     28                     29                     30
                      A                      A                      A
 Frequencies --   1308.6869              1372.6394              1393.6921
 Red. masses --      1.6469                 1.5036                 7.7526
 Frc consts  --      1.6618                 1.6692                 8.8723
 IR Inten    --     80.0726                52.1557               121.4774

                     31                     32                     33
                      A                      A                      A
 Frequencies --   1434.8898              1493.9267              1511.3564
 Red. masses --      7.1334                 2.2855                 1.6547
 Frc consts  --      8.6533                 3.0053                 2.2268
 IR Inten    --    200.1266                25.9510                86.6840

                     34                     35                     36
                      A                      A                      A
 Frequencies --   1529.5340              1551.3767              1598.5740
 Red. masses --      1.4289                 2.5783                13.2698
 Frc consts  --      1.9696                 3.6561                19.9793
 IR Inten    --     56.6800               166.9167               140.3848

                     37                     38                     39
                      A                      A                      A
 Frequencies --   1607.3427              3067.8817              3071.8617
 Red. masses --      8.1864                 1.0672                 1.0629
 Frc consts  --     12.4612                 5.9180                 5.9093
 IR Inten    --    347.0818                19.9100                27.9963

                     40                     41                     42
                      A                      A                      A
 Frequencies --   3133.0379              3147.1432              3275.7553
 Red. masses --      1.0999                 1.1061                 1.0975
 Frc consts  --      6.3612                 6.4545                 6.9385
 IR Inten    --      5.9869                11.7454                 1.8350

 - Thermochemistry -
 -------------------
 Temperature   298.150 Kelvin.  Pressure   1.00000 Atm.
 Atom     1 has atomic number  6 and mass  12.00000

 Molecular mass:   155.03309 amu.
 Principal axes and moments of inertia in atomic units:
                           1         2         3
     Eigenvalues --   752.275411919.478982645.79116
           X            0.99892  -0.04644  -0.00112
           Y            0.04644   0.99892  -0.00115
           Z            0.00117   0.00109   1.00000
 This molecule is an asymmetric top.
 Rotational symmetry number  1.
 Warning -- assumption of classical behavior for rotation
           may cause significant error
 Rotational temperatures (Kelvin)      0.11514     0.04512     0.03274
 Rotational constants (GHZ):           2.39904     0.94022     0.68212
 Zero-point vibrational energy     300002.6 (Joules/Mol)
                                   71.70233 (Kcal/Mol)
 Warning -- explicit consideration of  10 degrees of freedom as
           vibrations may cause significant error
 Vibrational temperatures:    116.60   148.51   219.46   243.99   245.46
          (Kelvin)            469.82   560.57   634.84   853.15   861.70
                              961.03  1066.97  1093.87  1106.46  1149.74
                             1202.59  1247.50  1288.01  1365.91  1452.50
                             1533.68  1634.87  1697.17  1738.55  1752.59
                             1795.85  1843.22  1882.91  1974.92  2005.21
                             2064.48  2149.42  2174.50  2200.66  2232.08
                             2299.99  2312.60  4413.99  4419.72  4507.74
                             4528.03  4713.08

 Zero-point correction=                           0.114265 (Hartree/Particle)
 Thermal correction to Energy=                    0.122687
 Thermal correction to Enthalpy=                  0.123631
 Thermal correction to Gibbs Free Energy=         0.079938
 Sum of electronic and zero-point Energies=           -583.266686
 Sum of electronic and thermal Energies=              -583.258264
 Sum of electronic and thermal Enthalpies=            -583.257320
 Sum of electronic and thermal Free Energies=         -583.301013

                     E (Thermal)             CV                S
                      KCal/Mol        Cal/Mol-Kelvin    Cal/Mol-Kelvin
 Total                   76.987             30.622             91.961
 Electronic               0.000              0.000              0.000
 Translational            0.889              2.981             41.025
 Rotational               0.889              2.981             29.725
 Vibrational             75.210             24.660             21.210
 Vibration     1          0.600              1.962              3.865
 Vibration     2          0.605              1.947              3.393
 Vibration     3          0.619              1.900              2.640
 Vibration     4          0.625              1.880              2.440
 Vibration     5          0.626              1.879              2.429
 Vibration     6          0.710              1.622              1.277
 Vibration     7          0.758              1.492              1.002
 Vibration     8          0.801              1.380              0.823
 Vibration     9          0.951              1.047              0.462
 Vibration    10          0.957              1.034              0.452

 Optimization completed.
    -- Stationary point found.
 Normal termination of Gaussian 09 at Thu Aug 26 21:04:12 2021.

 -----------------------------------------------------------------
 #P Geom=AllCheck Guess=TCheck SCRF=Check CCSD(T,E4T,FrzG4)/GTBas1
 -----------------------------------------------------------------

 Structure from the checkpoint file:  "/public/home/users/caep010/.cache/gau_scr/Gau-187555.chk"
 ------
 HNIMOZ
 ------
 Charge =  0 Multiplicity = 1

 SCF Done:  E(RHF) =  -580.027927413     A.U. after   15 cycles
 E2 =    -0.1671503888D+01 EUMP2 =    -0.58169943130099D+03
 CCSD(T)
 CCSD(T)= -0.58179115842D+03
 15\MP4SDQ=-581.7238025\CCSD=-581.719305\CCSD(T)=-581.7911584\RMSD=5.45
 Normal termination of Gaussian 09 at Thu Aug 26 21:40:20 2021.

 ---------------------------------------------------------
 #P Geom=AllCheck Guess=TCheck SCRF=Check MP4=FrzG4/GTBas2
 ---------------------------------------------------------

 Structure from the checkpoint file:  "/public/home/users/caep010/.cache/gau_scr/Gau-187555.chk"
 ------
 HNIMOZ
 ------
 Charge =  0 Multiplicity = 1

 SCF Done:  E(RHF) =  -580.043253241     A.U. after   13 cycles
 E2 =    -0.1693610715D+01 EUMP2 =    -0.58173686395611D+03
 Normal termination of Gaussian 09 at Thu Aug 26 21:53:21 2021.

 ---------------------------------------------------------
 #P Geom=AllCheck Guess=TCheck SCRF=Check MP4=FrzG4/GTBas3
 ---------------------------------------------------------

 Structure from the checkpoint file:  "/public/home/users/caep010/.cache/gau_scr/Gau-187555.chk"
 ------
 HNIMOZ
 ------
 Charge =  0 Multiplicity = 1

 SCF Done:  E(RHF) =  -580.086995605     A.U. after   13 cycles
 E2 =    -0.1998309749D+01 EUMP2 =    -0.58208530535439D+03
 Normal termination of Gaussian 09 at Thu Aug 26 23:14:22 2021.

 -----------------------------------------------------------
 #P Geom=AllCheck Guess=TCheck SCRF=Check MP2=Full/GTLargeXP
 -----------------------------------------------------------

 Structure from the checkpoint file:  "/public/home/users/caep010/.cache/gau_scr/Gau-187555.chk"
 ------
 HNIMOZ
 ------
 Charge =  0 Multiplicity = 1

 SCF Done:  E(RHF) =  -580.232397206     A.U. after   13 cycles
 E2 =    -0.2608403309D+01 EUMP2 =    -0.58284080051421D+03
 Normal termination of Gaussian 09 at Thu Aug 26 23:25:40 2021.
 SCF Done:  E(RHF) =  -580.277198516     A.U. after   10 cycles
 Normal termination of Gaussian 09 at Thu Aug 26 23:30:13 2021.

                         Standard orientation:
 ---------------------------------------------------------------------
 Center     Atomic      Atomic             Coordinates (Angstroms)
 Number     Number       Type             X           Y           Z
 ---------------------------------------------------------------------
      1          6           0       -0.857856    0.365295    0.003847
      2          7           0       -2.053270   -0.382627   -0.011140
      3          8           0       -1.945053   -1.614173   -0.031370
      4          6           0       -0.628516    1.726983    0.006674
      5          7           0        0.715852    2.001063    0.002485
      6          6           0        1.266143    0.807361   -0.007594
      7          8           0        2.543365    0.419558    0.045095
      8          6           0        2.538717   -1.029096   -0.098356
      9          6           0        1.067148   -1.499930    0.118547
     10          1           0        0.740852   -2.223339   -0.628309
     11          1           0        2.890586   -1.265907   -1.106224
     12          8           0       -3.112910    0.237322    0.001427
     13          1           0        0.893009   -1.920530    1.113105
     14          1           0        3.232910   -1.438382    0.635457
     15          1           0       -1.374233    2.505687    0.000775
     16          7           0        0.397396   -0.221704   -0.030592
 ---------------------------------------------------------------------

 SCF Done:  E(RHF) =  -580.286194398     A.U. after    7 cycles

 The electronic state is 1-A.
 Alpha  occ. eigenvalues --  -20.63833 -20.59916 -20.59899 -15.86143 -15.65210
 Alpha  occ. eigenvalues --  -15.57770 -11.39718 -11.34003 -11.32963 -11.32311
 Alpha  occ. eigenvalues --  -11.31100  -1.60406  -1.49582  -1.39732  -1.36864
 Alpha  occ. eigenvalues --   -1.24037  -1.11672  -1.05737  -0.97263  -0.91197
 Alpha  occ. eigenvalues --   -0.85742  -0.81582  -0.78132  -0.75332  -0.72931
 Alpha  occ. eigenvalues --   -0.72316  -0.69722  -0.66209  -0.65293  -0.63352
 Alpha  occ. eigenvalues --   -0.62587  -0.60475  -0.56135  -0.51640  -0.51278
 Alpha  occ. eigenvalues --   -0.49953  -0.47445  -0.46026  -0.43459  -0.34813
 Alpha virt. eigenvalues --    0.02154   0.03680   0.03846   0.04064   0.04461
 Alpha virt. eigenvalues --    0.05433   0.06292   0.06587   0.06850   0.07017
 Alpha virt. eigenvalues --    0.08297   0.08657   0.09401   0.09688   0.09953

 Mulliken charges:
               1
     1  C    0.049841
     2  N    0.507770
     3  O   -0.461739
     4  C    0.021370
     5  N   -0.527661
     6  C    0.546608
     7  O   -0.384732
     8  C   -0.137934
     9  C   -0.285431
    10  H    0.228370
    11  H    0.186182
    12  O   -0.444781
    13  H    0.198736
    14  H    0.199720
    15  H    0.272702
    16  N    0.030979
 Sum of Mulliken charges =  -0.00000

 Dipole moment (field-independent basis, Debye):
    X=              4.3516    Y=             -2.5495    Z=             -0.0186  Tot=              5.0435
 Quadrupole moment (field-independent basis, Debye-Ang):
   XX=            -72.1321   YY=            -64.7217   ZZ=            -60.4353
   XY=            -14.3727   XZ=             -0.3797   YZ=             -0.2432

 Normal termination of Gaussian 09 at Thu Aug 26 23:58:48 2021.
