 Gaussian 09, Revision E.01,
 Gaussian 09:  ES64L-G09RevE.01 30-Nov-2015

 ----------------
 #P G4 OPT=calcfc
 ----------------

 ------
 HEHVAR
 ------
 Symbolic Z-matrix:
 Charge =  0 Multiplicity = 1

 SCF Done:  E(RB3LYP) =  -470.011248042     A.U. after   15 cycles
 SCF Done:  E(RB3LYP) =  -470.048996307     A.U. after   13 cycles
 SCF Done:  E(RB3LYP) =  -470.054491309     A.U. after   14 cycles
 SCF Done:  E(RB3LYP) =  -470.055903840     A.U. after   12 cycles
 SCF Done:  E(RB3LYP) =  -470.056004463     A.U. after   10 cycles
 SCF Done:  E(RB3LYP) =  -470.056018949     A.U. after   10 cycles
 SCF Done:  E(RB3LYP) =  -470.056019595     A.U. after    7 cycles
 Optimization completed.
    -- Stationary point found.
 Normal termination of Gaussian 09 at Thu Aug 26 20:19:34 2021.

 ----------------------------------------------------------
 #P Geom=AllCheck Guess=TCheck SCRF=Check B3LYP/GTBas3 Freq
 ----------------------------------------------------------

 Structure from the checkpoint file:  "/public/home/users/caep010/.cache/gau_scr/Gau-103993.chk"
 ------
 HEHVAR
 ------
 Charge =  0 Multiplicity = 1

 SCF Done:  E(RB3LYP) =  -470.056019595     A.U. after    1 cycles

  Exact polarizability:  85.777   2.363  83.114  -0.000   0.001  36.034
 Approx polarizability: 143.745   4.457 149.874  -0.002   0.000  57.496

                      1                      2                      3
                      A                      A                      A
 Frequencies --     79.4285               112.6034               199.7700
 Red. masses --      6.4817                 1.0761                 5.0163
 Frc consts  --      0.0241                 0.0080                 0.1179
 IR Inten    --      0.4255                 0.4696                 4.0090

                      4                      5                      6
                      A                      A                      A
 Frequencies --    206.8019               263.5311               327.5630
 Red. masses --      5.9401                 3.6700                 3.8907
 Frc consts  --      0.1497                 0.1502                 0.2460
 IR Inten    --      1.7633                 0.0045                 0.2375

                      7                      8                      9
                      A                      A                      A
 Frequencies --    444.3063               547.6525               581.5311
 Red. masses --      9.3095                 5.5375                 1.6137
 Frc consts  --      1.0828                 0.9785                 0.3215
 IR Inten    --      0.6361                 1.8921                39.6499

                     10                     11                     12
                      A                      A                      A
 Frequencies --    651.0818               690.0769               693.8699
 Red. masses --      4.0921                 2.5234                 4.9884
 Frc consts  --      1.0220                 0.7080                 1.4150
 IR Inten    --      0.1945                34.4758                 1.1735

                     13                     14                     15
                      A                      A                      A
 Frequencies --    795.2061               842.9639               917.9886
 Red. masses --      7.4864                13.0644                 1.3650
 Frc consts  --      2.7892                 5.4696                 0.6777
 IR Inten    --     18.2838                40.7844                10.4527

                     16                     17                     18
                      A                      A                      A
 Frequencies --    944.9226              1007.4819              1059.0894
 Red. masses --      3.8598                 1.5683                 1.4958
 Frc consts  --      2.0305                 0.9379                 0.9885
 IR Inten    --     32.3916                 5.8699                 2.4957

                     19                     20                     21
                      A                      A                      A
 Frequencies --   1107.6189              1176.0728              1209.8139
 Red. masses --      3.3782                 6.2407                 1.7520
 Frc consts  --      2.4418                 5.0857                 1.5108
 IR Inten    --      6.4510                 4.2545                14.6172

                     22                     23                     24
                      A                      A                      A
 Frequencies --   1319.0023              1367.6956              1416.9123
 Red. masses --      1.7794                 8.2737                 1.3696
 Frc consts  --      1.8240                 9.1186                 1.6200
 IR Inten    --     10.5201               105.4616                 1.7484

                     25                     26                     27
                      A                      A                      A
 Frequencies --   1434.6949              1462.9350              1464.3606
 Red. masses --      4.1298                 3.2379                 1.0424
 Frc consts  --      5.0083                 4.0828                 1.3170
 IR Inten    --     69.1184               157.8571                 7.1917

                     28                     29                     30
                      A                      A                      A
 Frequencies --   1475.3403              1522.4919              1593.7457
 Red. masses --      1.6025                 2.6667                 6.3214
 Frc consts  --      2.0551                 3.6420                 9.4602
 IR Inten    --     30.0911                15.3738                70.3004

                     31                     32                     33
                      A                      A                      A
 Frequencies --   1627.1720              3050.3057              3122.4581
 Red. masses --      7.3650                 1.0358                 1.0998
 Frc consts  --     11.4891                 5.6781                 6.3177
 IR Inten    --    212.3814                10.1951                 1.3457

                     34                     35                     36
                      A                      A                      A
 Frequencies --   3127.6912              3280.2547              3655.0075
 Red. masses --      1.1022                 1.0976                 1.0812
 Frc consts  --      6.3528                 6.9585                 8.5100
 IR Inten    --     11.9190                 1.1686                91.1697

 - Thermochemistry -
 -------------------
 Temperature   298.150 Kelvin.  Pressure   1.00000 Atm.
 Atom     1 has atomic number  7 and mass  14.00307

 Molecular mass:   127.03818 amu.
 Principal axes and moments of inertia in atomic units:
                           1         2         3
     Eigenvalues --   653.949361118.468191761.36713
           X            0.99844   0.05585   0.00000
           Y           -0.05585   0.99844   0.00000
           Z           -0.00000  -0.00000   1.00000
 This molecule is an asymmetric top.
 Rotational symmetry number  1.
 Warning -- assumption of classical behavior for rotation
           may cause significant error
 Rotational temperatures (Kelvin)      0.13245     0.07744     0.04917
 Rotational constants (GHZ):           2.75976     1.61358     1.02463
 Zero-point vibrational energy     267840.5 (Joules/Mol)
                                   64.01543 (Kcal/Mol)
 Warning -- explicit consideration of   9 degrees of freedom as
           vibrations may cause significant error
 Vibrational temperatures:    114.28   162.01   287.42   297.54   379.16
          (Kelvin)            471.29   639.26   787.95   836.69   936.76
                              992.87   998.32  1144.12  1212.84  1320.78
                             1359.53  1449.54  1523.79  1593.61  1692.10
                             1740.65  1897.75  1967.81  2038.62  2064.20
                             2104.83  2106.89  2122.68  2190.52  2293.04
                             2341.13  4388.70  4492.52  4500.04  4719.55
                             5258.73

 Zero-point correction=                           0.102015 (Hartree/Particle)
 Thermal correction to Energy=                    0.109721
 Thermal correction to Enthalpy=                  0.110666
 Thermal correction to Gibbs Free Energy=         0.069208
 Sum of electronic and zero-point Energies=           -469.954005
 Sum of electronic and thermal Energies=              -469.946298
 Sum of electronic and thermal Enthalpies=            -469.945354
 Sum of electronic and thermal Free Energies=         -469.986812

                     E (Thermal)             CV                S
                      KCal/Mol        Cal/Mol-Kelvin    Cal/Mol-Kelvin
 Total                   68.851             27.510             87.256
 Electronic               0.000              0.000              0.000
 Translational            0.889              2.981             40.431
 Rotational               0.889              2.981             28.645
 Vibrational             67.074             21.549             18.179
 Vibration     1          0.600              1.963              3.905
 Vibration     2          0.607              1.939              3.224
 Vibration     3          0.638              1.840              2.135
 Vibration     4          0.641              1.830              2.072
 Vibration     5          0.670              1.740              1.638
 Vibration     6          0.711              1.620              1.272
 Vibration     7          0.804              1.373              0.813
 Vibration     8          0.903              1.145              0.549
 Vibration     9          0.938              1.071              0.483

 Optimization completed.
    -- Stationary point found.
 Normal termination of Gaussian 09 at Thu Aug 26 20:20:36 2021.

 -----------------------------------------------------------------
 #P Geom=AllCheck Guess=TCheck SCRF=Check CCSD(T,E4T,FrzG4)/GTBas1
 -----------------------------------------------------------------

 Structure from the checkpoint file:  "/public/home/users/caep010/.cache/gau_scr/Gau-103993.chk"
 ------
 HEHVAR
 ------
 Charge =  0 Multiplicity = 1

 SCF Done:  E(RHF) =  -467.302814907     A.U. after   15 cycles
 E2 =    -0.1379812829D+01 EUMP2 =    -0.46868262773579D+03
 CCSD(T)
 CCSD(T)= -0.46875977212D+03
 CSD=-468.6996439\CCSD(T)=-468.7597721\RMSD=7.141e-09\PG=C01 [X(C4H5N3O
 Normal termination of Gaussian 09 at Thu Aug 26 20:30:47 2021.

 ---------------------------------------------------------
 #P Geom=AllCheck Guess=TCheck SCRF=Check MP4=FrzG4/GTBas2
 ---------------------------------------------------------

 Structure from the checkpoint file:  "/public/home/users/caep010/.cache/gau_scr/Gau-103993.chk"
 ------
 HEHVAR
 ------
 Charge =  0 Multiplicity = 1

 SCF Done:  E(RHF) =  -467.316299457     A.U. after   14 cycles
 E2 =    -0.1397487100D+01 EUMP2 =    -0.46871378655744D+03
 Normal termination of Gaussian 09 at Thu Aug 26 20:33:49 2021.

 ---------------------------------------------------------
 #P Geom=AllCheck Guess=TCheck SCRF=Check MP4=FrzG4/GTBas3
 ---------------------------------------------------------

 Structure from the checkpoint file:  "/public/home/users/caep010/.cache/gau_scr/Gau-103993.chk"
 ------
 HEHVAR
 ------
 Charge =  0 Multiplicity = 1

 SCF Done:  E(RHF) =  -467.351915002     A.U. after   12 cycles
 E2 =    -0.1644444242D+01 EUMP2 =    -0.46899635924326D+03
 Normal termination of Gaussian 09 at Thu Aug 26 20:55:28 2021.

 -----------------------------------------------------------
 #P Geom=AllCheck Guess=TCheck SCRF=Check MP2=Full/GTLargeXP
 -----------------------------------------------------------

 Structure from the checkpoint file:  "/public/home/users/caep010/.cache/gau_scr/Gau-103993.chk"
 ------
 HEHVAR
 ------
 Charge =  0 Multiplicity = 1

 SCF Done:  E(RHF) =  -467.469279001     A.U. after   14 cycles
 E2 =    -0.2143694079D+01 EUMP2 =    -0.46961297308015D+03
 Normal termination of Gaussian 09 at Thu Aug 26 21:01:57 2021.
 SCF Done:  E(RHF) =  -467.506300755     A.U. after   10 cycles
 Normal termination of Gaussian 09 at Thu Aug 26 21:07:32 2021.

                         Standard orientation:
 ---------------------------------------------------------------------
 Center     Atomic      Atomic             Coordinates (Angstroms)
 Number     Number       Type             X           Y           Z
 ---------------------------------------------------------------------
      1          7           0        1.998717   -0.097428   -0.000094
      2          7           0        1.800932   -1.441185    0.000008
      3          6           0        0.486644   -1.577475    0.000038
      4          6           0       -0.143770   -0.313901    0.000045
      5          7           0       -1.547049   -0.059487   -0.000005
      6          8           0       -1.915294    1.115985   -0.000018
      7          6           0        0.870151    0.639476    0.000010
      8          8           0       -2.297060   -1.030474   -0.000012
      9          1           0        0.020440   -2.549367   -0.000017
     10          6           0        0.859087    2.128151    0.000003
     11          1           0        0.328061    2.508492    0.876349
     12          1           0        0.327524    2.508604   -0.875908
     13          1           0        2.943840    0.252021    0.000129
     14          1           0        1.878103    2.525354   -0.000253
 ---------------------------------------------------------------------

 SCF Done:  E(RHF) =  -467.513618311     A.U. after    8 cycles

 The electronic state is 1-A.
 Alpha  occ. eigenvalues --  -20.59627 -20.59415 -15.85459 -15.67322 -15.61632
 Alpha  occ. eigenvalues --  -11.33720 -11.29386 -11.29135 -11.26732  -1.60010
 Alpha  occ. eigenvalues --   -1.41100  -1.39320  -1.15253  -1.13814  -1.02438
 Alpha  occ. eigenvalues --   -0.96230  -0.85523  -0.81573  -0.75733  -0.73130
 Alpha  occ. eigenvalues --   -0.72271  -0.70430  -0.65202  -0.63863  -0.60919
 Alpha  occ. eigenvalues --   -0.59011  -0.58053  -0.50809  -0.49579  -0.48097
 Alpha  occ. eigenvalues --   -0.45452  -0.40807  -0.37886
 Alpha virt. eigenvalues --    0.02378   0.03941   0.04864   0.04918   0.05714
 Alpha virt. eigenvalues --    0.06116   0.06786   0.07069   0.07760   0.08457
 Alpha virt. eigenvalues --    0.08774   0.09283   0.10058   0.11266   0.12115

 Mulliken charges:
               1
     1  N   -0.239258
     2  N   -0.406147
     3  C   -0.053387
     4  C    0.123378
     5  N    0.514194
     6  O   -0.462483
     7  C    0.328465
     8  O   -0.443020
     9  H    0.261775
    10  C   -0.615929
    11  H    0.226304
    12  H    0.226340
    13  H    0.372045
    14  H    0.167724
 Sum of Mulliken charges =  -0.00000

 Dipole moment (field-independent basis, Debye):
    X=              4.7349    Y=              2.4239    Z=              0.0003  Tot=              5.3192
 Quadrupole moment (field-independent basis, Debye-Ang):
   XX=            -57.5536   YY=            -50.5219   ZZ=            -51.7541
   XY=              7.5385   XZ=              0.0010   YZ=              0.0002

 Normal termination of Gaussian 09 at Thu Aug 26 21:25:40 2021.
