 Gaussian 09, Revision E.01,
 Gaussian 09:  ES64L-G09RevE.01 30-Nov-2015

 ----------------
 #P G4 OPT=calcfc
 ----------------

 ------
 HEHTUJ
 ------
 Symbolic Z-matrix:
 Charge =  0 Multiplicity = 1

 SCF Done:  E(RB3LYP) =  -469.943342615     A.U. after   15 cycles
 SCF Done:  E(RB3LYP) =  -470.025815703     A.U. after   13 cycles
 SCF Done:  E(RB3LYP) =  -470.052028835     A.U. after   14 cycles
 SCF Done:  E(RB3LYP) =  -470.055201482     A.U. after   13 cycles
 SCF Done:  E(RB3LYP) =  -470.055353988     A.U. after   12 cycles
 SCF Done:  E(RB3LYP) =  -470.055373022     A.U. after    9 cycles
 SCF Done:  E(RB3LYP) =  -470.055375595     A.U. after    9 cycles
 SCF Done:  E(RB3LYP) =  -470.055375896     A.U. after    7 cycles
 Optimization completed.
    -- Stationary point found.
 Normal termination of Gaussian 09 at Thu Aug 26 20:06:00 2021.

 ----------------------------------------------------------
 #P Geom=AllCheck Guess=TCheck SCRF=Check B3LYP/GTBas3 Freq
 ----------------------------------------------------------

 Structure from the checkpoint file:  "/public/home/users/caep010/.cache/gau_scr/Gau-72572.chk"
 ------
 HEHTUJ
 ------
 Charge =  0 Multiplicity = 1

 SCF Done:  E(RB3LYP) =  -470.055375896     A.U. after    1 cycles

  Exact polarizability:  83.990   1.949  84.249   0.002   0.002  36.148
 Approx polarizability: 140.271   4.152 151.962   0.003   0.002  57.677

                      1                      2                      3
                      A                      A                      A
 Frequencies --     76.8322               147.3959               200.3898
 Red. masses --      8.3598                 1.0720                 5.0487
 Frc consts  --      0.0291                 0.0137                 0.1194
 IR Inten    --      0.2408                 0.9277                 2.7807

                      4                      5                      6
                      A                      A                      A
 Frequencies --    209.0770               282.7707               337.6992
 Red. masses --      5.7810                 3.2992                 3.8940
 Frc consts  --      0.1489                 0.1554                 0.2616
 IR Inten    --      5.4107                 5.7782                 5.0512

                      7                      8                      9
                      A                      A                      A
 Frequencies --    443.0183               549.5209               561.1261
 Red. masses --      9.0844                 5.2915                 1.9622
 Frc consts  --      1.0505                 0.9415                 0.3640
 IR Inten    --      0.4042                 4.2438                48.5049

                     10                     11                     12
                      A                      A                      A
 Frequencies --    651.7636               694.3122               699.3847
 Red. masses --      2.0950                 3.3621                 4.9628
 Frc consts  --      0.5243                 0.9549                 1.4302
 IR Inten    --     19.6484                17.6842                 7.7953

                     13                     14                     15
                      A                      A                      A
 Frequencies --    784.1525               844.3488               856.2947
 Red. masses --      3.9395                11.3424                 1.6945
 Frc consts  --      1.4272                 4.7643                 0.7321
 IR Inten    --     22.2680                33.0309                 3.4378

                     16                     17                     18
                      A                      A                      A
 Frequencies --    940.6617              1009.3522              1068.7437
 Red. masses --      3.9447                 1.7928                 2.0050
 Frc consts  --      2.0565                 1.0761                 1.3493
 IR Inten    --      0.4010                17.9886                13.3995

                     19                     20                     21
                      A                      A                      A
 Frequencies --   1069.1812              1138.7354              1210.1343
 Red. masses --      1.5341                 3.0379                 2.9957
 Frc consts  --      1.0332                 2.3210                 2.5848
 IR Inten    --      1.9064                 9.7957                22.7276

                     22                     23                     24
                      A                      A                      A
 Frequencies --   1306.6787              1402.9155              1414.3452
 Red. masses --      2.5333                 3.9804                 1.4241
 Frc consts  --      2.5484                 4.6157                 1.6785
 IR Inten    --      9.1769               105.9334                43.9107

                     25                     26                     27
                      A                      A                      A
 Frequencies --   1423.3610              1474.3152              1481.3646
 Red. masses --      4.0628                 1.0432                 1.4252
 Frc consts  --      4.8496                 1.3360                 1.8426
 IR Inten    --    122.5545                 6.7491                15.6469

                     28                     29                     30
                      A                      A                      A
 Frequencies --   1495.7792              1503.7240              1579.2937
 Red. masses --      2.3615                 6.3294                 4.6240
 Frc consts  --      3.1130                 8.4323                 6.7951
 IR Inten    --      0.2945                59.3549                34.6934

                     31                     32                     33
                      A                      A                      A
 Frequencies --   1622.1564              3055.3690              3115.6174
 Red. masses --     10.7904                 1.0354                 1.0992
 Frc consts  --     16.7292                 5.6947                 6.2867
 IR Inten    --    258.3053                 7.3705                 5.2453

                     34                     35                     36
                      A                      A                      A
 Frequencies --   3146.4631              3290.7380              3668.4392
 Red. masses --      1.1032                 1.0998                 1.0818
 Frc consts  --      6.4353                 7.0170                 8.5772
 IR Inten    --      8.7527                 6.0270               119.6584

 - Thermochemistry -
 -------------------
 Temperature   298.150 Kelvin.  Pressure   1.00000 Atm.
 Atom     1 has atomic number  7 and mass  14.00307

 Molecular mass:   127.03818 amu.
 Principal axes and moments of inertia in atomic units:
                           1         2         3
     Eigenvalues --   650.293651123.502821762.74554
           X            0.99996  -0.00841   0.00000
           Y            0.00841   0.99996   0.00001
           Z           -0.00000  -0.00001   1.00000
 This molecule is an asymmetric top.
 Rotational symmetry number  1.
 Warning -- assumption of classical behavior for rotation
           may cause significant error
 Rotational temperatures (Kelvin)      0.13319     0.07709     0.04914
 Rotational constants (GHZ):           2.77527     1.60635     1.02382
 Zero-point vibrational energy     267697.1 (Joules/Mol)
                                   63.98113 (Kcal/Mol)
 Warning -- explicit consideration of   9 degrees of freedom as
           vibrations may cause significant error
 Vibrational temperatures:    110.54   212.07   288.32   300.81   406.84
          (Kelvin)            485.87   637.40   790.64   807.33   937.74
                              998.96  1006.26  1128.22  1214.83  1232.02
                             1353.40  1452.23  1537.68  1538.31  1638.38
                             1741.11  1880.02  2018.48  2034.92  2047.90
                             2121.21  2131.35  2152.09  2163.52  2272.25
                             2333.92  4395.99  4482.67  4527.05  4734.63
                             5278.06

 Zero-point correction=                           0.101960 (Hartree/Particle)
 Thermal correction to Energy=                    0.109597
 Thermal correction to Enthalpy=                  0.110541
 Thermal correction to Gibbs Free Energy=         0.069351
 Sum of electronic and zero-point Energies=           -469.953415
 Sum of electronic and thermal Energies=              -469.945779
 Sum of electronic and thermal Enthalpies=            -469.944835
 Sum of electronic and thermal Free Energies=         -469.986025

                     E (Thermal)             CV                S
                      KCal/Mol        Cal/Mol-Kelvin    Cal/Mol-Kelvin
 Total                   68.773             27.593             86.692
 Electronic               0.000              0.000              0.000
 Translational            0.889              2.981             40.431
 Rotational               0.889              2.981             28.645
 Vibrational             66.996             21.631             17.615
 Vibration     1          0.599              1.965              3.970
 Vibration     2          0.617              1.906              2.706
 Vibration     3          0.638              1.839              2.130
 Vibration     4          0.642              1.827              2.052
 Vibration     5          0.682              1.706              1.517
 Vibration     6          0.718              1.600              1.223
 Vibration     7          0.803              1.376              0.817
 Vibration     8          0.905              1.141              0.545
 Vibration     9          0.917              1.115              0.522

 Optimization completed.
    -- Stationary point found.
 Normal termination of Gaussian 09 at Thu Aug 26 20:07:01 2021.

 -----------------------------------------------------------------
 #P Geom=AllCheck Guess=TCheck SCRF=Check CCSD(T,E4T,FrzG4)/GTBas1
 -----------------------------------------------------------------

 Structure from the checkpoint file:  "/public/home/users/caep010/.cache/gau_scr/Gau-72572.chk"
 ------
 HEHTUJ
 ------
 Charge =  0 Multiplicity = 1

 SCF Done:  E(RHF) =  -467.301553024     A.U. after   15 cycles
 E2 =    -0.1380599249D+01 EUMP2 =    -0.46868215227314D+03
 CCSD(T)
 CCSD(T)= -0.46875909780D+03
 .698855\CCSD(T)=-468.7590978\RMSD=5.867e-09\PG=C01 [X(C4H5N3O2)]\\@
 Normal termination of Gaussian 09 at Thu Aug 26 20:17:10 2021.

 ---------------------------------------------------------
 #P Geom=AllCheck Guess=TCheck SCRF=Check MP4=FrzG4/GTBas2
 ---------------------------------------------------------

 Structure from the checkpoint file:  "/public/home/users/caep010/.cache/gau_scr/Gau-72572.chk"
 ------
 HEHTUJ
 ------
 Charge =  0 Multiplicity = 1

 SCF Done:  E(RHF) =  -467.315184487     A.U. after   13 cycles
 E2 =    -0.1398333933D+01 EUMP2 =    -0.46871351841942D+03
 Normal termination of Gaussian 09 at Thu Aug 26 20:20:12 2021.

 ---------------------------------------------------------
 #P Geom=AllCheck Guess=TCheck SCRF=Check MP4=FrzG4/GTBas3
 ---------------------------------------------------------

 Structure from the checkpoint file:  "/public/home/users/caep010/.cache/gau_scr/Gau-72572.chk"
 ------
 HEHTUJ
 ------
 Charge =  0 Multiplicity = 1

 SCF Done:  E(RHF) =  -467.350837263     A.U. after   13 cycles
 E2 =    -0.1645262467D+01 EUMP2 =    -0.46899609973007D+03
 Normal termination of Gaussian 09 at Thu Aug 26 20:42:11 2021.

 -----------------------------------------------------------
 #P Geom=AllCheck Guess=TCheck SCRF=Check MP2=Full/GTLargeXP
 -----------------------------------------------------------

 Structure from the checkpoint file:  "/public/home/users/caep010/.cache/gau_scr/Gau-72572.chk"
 ------
 HEHTUJ
 ------
 Charge =  0 Multiplicity = 1

 SCF Done:  E(RHF) =  -467.468204337     A.U. after   14 cycles
 E2 =    -0.2144525026D+01 EUMP2 =    -0.46961272936264D+03
 Normal termination of Gaussian 09 at Thu Aug 26 20:49:05 2021.
 SCF Done:  E(RHF) =  -467.505275810     A.U. after   10 cycles
 Normal termination of Gaussian 09 at Thu Aug 26 20:54:53 2021.

                         Standard orientation:
 ---------------------------------------------------------------------
 Center     Atomic      Atomic             Coordinates (Angstroms)
 Number     Number       Type             X           Y           Z
 ---------------------------------------------------------------------
      1          7           0       -1.794227   -1.267510    0.000013
      2          7           0       -2.082771    0.058677   -0.000006
      3          6           0       -0.906804    0.675964   -0.000014
      4          1           0       -2.554857   -1.926922   -0.000036
      5          6           0       -0.481020   -1.534308    0.000005
      6          1           0       -0.066083   -2.527955    0.000012
      7          6           0       -0.817208    2.164587   -0.000027
      8          1           0       -0.270184    2.523145    0.876371
      9          1           0       -0.270142    2.523067   -0.875927
     10          6           0        0.132183   -0.295411   -0.000009
     11          7           0        1.546501   -0.090194   -0.000006
     12          8           0        1.953095    1.069104   -0.000033
     13          8           0        2.263794   -1.087959    0.000023
     14          1           0       -1.823275    2.587695   -0.000075
 ---------------------------------------------------------------------

 SCF Done:  E(RHF) =  -467.512592384     A.U. after    8 cycles

 The electronic state is 1-A.
 Alpha  occ. eigenvalues --  -20.59785 -20.59531 -15.85587 -15.67647 -15.61317
 Alpha  occ. eigenvalues --  -11.32890 -11.30333 -11.29470 -11.23704  -1.60173
 Alpha  occ. eigenvalues --   -1.41146  -1.39482  -1.15410  -1.13332  -1.00239
 Alpha  occ. eigenvalues --   -0.97498  -0.83405  -0.80650  -0.78342  -0.73198
 Alpha  occ. eigenvalues --   -0.72334  -0.71708  -0.64721  -0.64600  -0.58073
 Alpha  occ. eigenvalues --   -0.57500  -0.55391  -0.51563  -0.49589  -0.47770
 Alpha  occ. eigenvalues --   -0.45511  -0.39620  -0.38847
 Alpha virt. eigenvalues --    0.02256   0.04074   0.04585   0.05079   0.06076
 Alpha virt. eigenvalues --    0.06191   0.06492   0.06743   0.08272   0.08741
 Alpha virt. eigenvalues --    0.08874   0.09278   0.10253   0.10802   0.12082

 Mulliken charges:
               1
     1  N   -0.249577
     2  N   -0.392232
     3  C    0.327007
     4  H    0.386226
     5  C   -0.056470
     6  H    0.277030
     7  C   -0.624094
     8  H    0.204851
     9  H    0.204897
    10  C    0.101256
    11  N    0.513524
    12  O   -0.435256
    13  O   -0.461710
    14  H    0.204549
 Sum of Mulliken charges =  -0.00000

 Dipole moment (field-independent basis, Debye):
    X=             -3.9377    Y=             -2.4023    Z=             -0.0002  Tot=              4.6127
 Quadrupole moment (field-independent basis, Debye-Ang):
   XX=            -62.3359   YY=            -42.6766   ZZ=            -51.8889
   XY=              5.9417   XZ=              0.0003   YZ=             -0.0001

 Normal termination of Gaussian 09 at Thu Aug 26 21:12:29 2021.
