 Gaussian 09, Revision E.01,
 Gaussian 09:  ES64L-G09RevE.01 30-Nov-2015

 ----------------
 #P G4 OPT=calcfc
 ----------------

 ------
 HACVAL
 ------
 Symbolic Z-matrix:
 Charge =  0 Multiplicity = 1

 SCF Done:  E(RB3LYP) =  -683.865307940     A.U. after   14 cycles
 SCF Done:  E(RB3LYP) =  -683.984224844     A.U. after   12 cycles
 SCF Done:  E(RB3LYP) =  -684.054747577     A.U. after   13 cycles
 SCF Done:  E(RB3LYP) =  -684.056271032     A.U. after   13 cycles
 SCF Done:  E(RB3LYP) =  -684.056385954     A.U. after   11 cycles
 SCF Done:  E(RB3LYP) =  -684.056408788     A.U. after   10 cycles
 SCF Done:  E(RB3LYP) =  -684.056417176     A.U. after    9 cycles
 SCF Done:  E(RB3LYP) =  -684.056419137     A.U. after    8 cycles
 SCF Done:  E(RB3LYP) =  -684.056419559     A.U. after    8 cycles
 Optimization completed.
    -- Stationary point found.
 Normal termination of Gaussian 09 at Fri Aug 27 03:53:09 2021.

 ----------------------------------------------------------
 #P Geom=AllCheck Guess=TCheck SCRF=Check B3LYP/GTBas3 Freq
 ----------------------------------------------------------

 Structure from the checkpoint file:  "/public/home/users/caep010/.cache/gau_scr/Gau-108301.chk"
 ------
 HACVAL
 ------
 Charge =  0 Multiplicity = 1

 SCF Done:  E(RB3LYP) =  -684.056419559     A.U. after    1 cycles

  Exact polarizability: 171.917 -11.342  93.789   7.463  16.896 101.496
 Approx polarizability: 244.313 -21.900 163.209  15.080  51.733 185.696

                      1                      2                      3
                      A                      A                      A
 Frequencies --     28.4759                41.7305                68.1486
 Red. masses --      5.8096                 7.0752                 6.7258
 Frc consts  --      0.0028                 0.0073                 0.0184
 IR Inten    --      0.0344                 0.2016                 0.3043

                      4                      5                      6
                      A                      A                      A
 Frequencies --     78.0345               140.8644               167.5703
 Red. masses --      5.1485                 4.4679                 4.1490
 Frc consts  --      0.0185                 0.0522                 0.0686
 IR Inten    --      2.9705                 1.3082                 6.4090

                      7                      8                      9
                      A                      A                      A
 Frequencies --    229.1191               241.3021               279.8218
 Red. masses --      2.4148                 1.4739                 4.5512
 Frc consts  --      0.0747                 0.0506                 0.2100
 IR Inten    --     32.0326                82.6965                 7.6026

                     10                     11                     12
                      A                      A                      A
 Frequencies --    305.0889               331.5530               422.8390
 Red. masses --      5.0008                 4.4524                 3.1436
 Frc consts  --      0.2742                 0.2884                 0.3312
 IR Inten    --      5.0797                 5.3499                 0.1246

                     13                     14                     15
                      A                      A                      A
 Frequencies --    441.9309               460.9777               510.4104
 Red. masses --      5.2942                 3.8473                 6.5626
 Frc consts  --      0.6092                 0.4817                 1.0073
 IR Inten    --      2.6919                 7.4070                 5.9763

                     16                     17                     18
                      A                      A                      A
 Frequencies --    534.9865               552.9665               637.9023
 Red. masses --      5.9612                 3.3864                 6.4932
 Frc consts  --      1.0052                 0.6101                 1.5567
 IR Inten    --      2.6236                 1.8711                 0.3130

                     19                     20                     21
                      A                      A                      A
 Frequencies --    660.1334               721.7980               761.7781
 Red. masses --      4.4907                 4.1133                 3.8592
 Frc consts  --      1.1530                 1.2626                 1.3195
 IR Inten    --      2.0905                11.1515                35.9682

                     22                     23                     24
                      A                      A                      A
 Frequencies --    800.3964               808.8511               865.5682
 Red. masses --      4.1678                 3.0707                 1.2927
 Frc consts  --      1.5731                 1.1837                 0.5706
 IR Inten    --     10.5401                 4.2288                 1.2600

                     25                     26                     27
                      A                      A                      A
 Frequencies --    870.8879               895.0048               924.0832
 Red. masses --      8.7527                 1.6596                 3.0940
 Frc consts  --      3.9112                 0.7833                 1.5566
 IR Inten    --     33.9604                29.8403                39.0736

                     28                     29                     30
                      A                      A                      A
 Frequencies --    945.2975               978.3778              1006.3793
 Red. masses --      1.4175                 1.3304                 2.9284
 Frc consts  --      0.7463                 0.7503                 1.7475
 IR Inten    --      6.6197                 0.7085                 8.2072

                     31                     32                     33
                      A                      A                      A
 Frequencies --   1008.6930              1023.5133              1029.2913
 Red. masses --      1.3264                 1.4974                 2.4366
 Frc consts  --      0.7951                 0.9242                 1.5209
 IR Inten    --      2.9548                28.5680                 8.2433

                     34                     35                     36
                      A                      A                      A
 Frequencies --   1083.2713              1103.8625              1121.4037
 Red. masses --      5.1805                 1.4279                 1.3169
 Frc consts  --      3.5817                 1.0251                 0.9757
 IR Inten    --     55.8644                 4.2113                11.6083

                     37                     38                     39
                      A                      A                      A
 Frequencies --   1124.8722              1160.7754              1192.6812
 Red. masses --      2.6896                 1.4337                 1.2752
 Frc consts  --      2.0051                 1.1382                 1.0688
 IR Inten    --     43.1859                11.5159                 6.4162

                     40                     41                     42
                      A                      A                      A
 Frequencies --   1199.0020              1209.1260              1249.6739
 Red. masses --      1.4558                 1.5237                 1.3319
 Frc consts  --      1.2331                 1.3125                 1.2255
 IR Inten    --      9.0110                 7.2930                37.2281

                     43                     44                     45
                      A                      A                      A
 Frequencies --   1265.3091              1288.6375              1316.7614
 Red. masses --      1.4118                 1.2775                 1.3253
 Frc consts  --      1.3317                 1.2499                 1.3539
 IR Inten    --     34.5485                 1.6718                 1.2926

                     46                     47                     48
                      A                      A                      A
 Frequencies --   1361.1355              1391.0775              1397.1051
 Red. masses --      6.7803                 4.5169                 1.8285
 Frc consts  --      7.4012                 5.1498                 2.1029
 IR Inten    --      5.7036               334.5840                50.0946

                     49                     50                     51
                      A                      A                      A
 Frequencies --   1425.4584              1454.5571              1491.8556
 Red. masses --      2.4923                 1.9664                 2.1192
 Frc consts  --      2.9837                 2.4513                 2.7789
 IR Inten    --     12.2361                 3.9719                 1.6522

                     52                     53                     54
                      A                      A                      A
 Frequencies --   1517.8845              1523.5901              1603.5664
 Red. masses --      1.0916                 2.5265                 9.6786
 Frc consts  --      1.4818                 3.4554                14.6634
 IR Inten    --      5.2117                12.6219               106.7797

                     55                     56                     57
                      A                      A                      A
 Frequencies --   1638.7797              1655.5188              2975.9518
 Red. masses --      5.9775                10.0325                 1.0648
 Frc consts  --      9.4582                16.2005                 5.5558
 IR Inten    --     37.8585               111.9043                58.6470

                     58                     59                     60
                      A                      A                      A
 Frequencies --   3028.2025              3113.5918              3126.9204
 Red. masses --      1.0955                 1.0856                 1.0891
 Frc consts  --      5.9190                 6.2006                 6.2743
 IR Inten    --     36.7047                 7.1152                32.5269

                     61                     62                     63
                      A                      A                      A
 Frequencies --   3180.9149              3210.2146              3234.2288
 Red. masses --      1.0895                 1.0886                 1.0927
 Frc consts  --      6.4949                 6.6101                 6.7340
 IR Inten    --      7.3922                 0.4441                 0.5700

                     64                     65                     66
                      A                      A                      A
 Frequencies --   3236.0380              3523.8259              3835.7525
 Red. masses --      1.0921                 1.0768                 1.0664
 Frc consts  --      6.7383                 7.8780                 9.2444
 IR Inten    --      1.1795                 4.2306                26.3767

 - Thermochemistry -
 -------------------
 Temperature   298.150 Kelvin.  Pressure   1.00000 Atm.
 Atom     1 has atomic number  7 and mass  14.00307

 Molecular mass:   194.06914 amu.
 Principal axes and moments of inertia in atomic units:
                           1         2         3
     Eigenvalues --  1157.554505463.505195636.41044
           X            0.99999   0.00075  -0.00418
           Y           -0.00072   0.99997   0.00716
           Z            0.00418  -0.00716   0.99997
 This molecule is an asymmetric top.
 Rotational symmetry number  1.
 Warning -- assumption of classical behavior for rotation
           may cause significant error
 Rotational temperatures (Kelvin)      0.07482     0.01585     0.01537
 Rotational constants (GHZ):           1.55910     0.33033     0.32019
 Zero-point vibrational energy     490560.6 (Joules/Mol)
                                  117.24679 (Kcal/Mol)
 Warning -- explicit consideration of  17 degrees of freedom as
           vibrations may cause significant error
 Vibrational temperatures:     40.97    60.04    98.05   112.27   202.67
          (Kelvin)            241.10   329.65   347.18   402.60   438.95
                              477.03   608.37   635.84   663.24   734.37
                              769.73   795.59   917.80   949.78  1038.50
                             1096.03  1151.59  1163.75  1245.36  1253.01
                             1287.71  1329.55  1360.07  1407.67  1447.95
                             1451.28  1472.61  1480.92  1558.58  1588.21
                             1613.45  1618.44  1670.09  1716.00  1725.09
                             1739.66  1798.00  1820.50  1854.06  1894.52
                             1958.37  2001.45  2010.12  2050.91  2092.78
                             2146.44  2183.89  2192.10  2307.17  2357.84
                             2381.92  4281.73  4356.90  4479.76  4498.94
                             4576.62  4618.78  4653.33  4655.93  5069.99
                             5518.79

 Zero-point correction=                           0.186845 (Hartree/Particle)
 Thermal correction to Energy=                    0.199275
 Thermal correction to Enthalpy=                  0.200219
 Thermal correction to Gibbs Free Energy=         0.146187
 Sum of electronic and zero-point Energies=           -683.869575
 Sum of electronic and thermal Energies=              -683.857145
 Sum of electronic and thermal Enthalpies=            -683.856200
 Sum of electronic and thermal Free Energies=         -683.910233

                     E (Thermal)             CV                S
                      KCal/Mol        Cal/Mol-Kelvin    Cal/Mol-Kelvin
 Total                  125.047             46.331            113.721
 Electronic               0.000              0.000              0.000
 Translational            0.889              2.981             41.694
 Rotational               0.889              2.981             31.944
 Vibrational            123.269             40.369             40.082
 Vibration     1          0.593              1.984              5.933
 Vibration     2          0.594              1.981              5.175
 Vibration     3          0.598              1.969              4.206
 Vibration     4          0.599              1.964              3.940
 Vibration     5          0.615              1.912              2.792
 Vibration     6          0.624              1.882              2.463
 Vibration     7          0.652              1.797              1.886
 Vibration     8          0.658              1.777              1.793
 Vibration     9          0.680              1.711              1.535
 Vibration    10          0.696              1.664              1.389
 Vibration    11          0.714              1.612              1.253
 Vibration    12          0.785              1.421              0.882
 Vibration    13          0.802              1.379              0.821
 Vibration    14          0.819              1.337              0.763
 Vibration    15          0.866              1.227              0.633
 Vibration    16          0.890              1.173              0.576
 Vibration    17          0.908              1.133              0.538

 Optimization completed.
    -- Stationary point found.
 Normal termination of Gaussian 09 at Fri Aug 27 03:57:06 2021.

 -----------------------------------------------------------------
 #P Geom=AllCheck Guess=TCheck SCRF=Check CCSD(T,E4T,FrzG4)/GTBas1
 -----------------------------------------------------------------

 Structure from the checkpoint file:  "/public/home/users/caep010/.cache/gau_scr/Gau-108301.chk"
 ------
 HACVAL
 ------
 Charge =  0 Multiplicity = 1

 SCF Done:  E(RHF) =  -679.943827483     A.U. after   14 cycles
 E2 =    -0.2029499567D+01 EUMP2 =    -0.68197332704995D+03
 CCSD(T)
 CCSD(T)= -0.68210890948D+03
 18\CCSD=-682.0224787\CCSD(T)=-682.1089095\RMSD=7.212e-09\PG=C01 [X(C9H
 Normal termination of Gaussian 09 at Fri Aug 27 06:14:41 2021.

 ---------------------------------------------------------
 #P Geom=AllCheck Guess=TCheck SCRF=Check MP4=FrzG4/GTBas2
 ---------------------------------------------------------

 Structure from the checkpoint file:  "/public/home/users/caep010/.cache/gau_scr/Gau-108301.chk"
 ------
 HACVAL
 ------
 Charge =  0 Multiplicity = 1

 SCF Done:  E(RHF) =  -679.964643589     A.U. after   16 cycles
 E2 =    -0.2058209598D+01 EUMP2 =    -0.68202285318706D+03
 Normal termination of Gaussian 09 at Fri Aug 27 07:18:16 2021.

 ---------------------------------------------------------
 #P Geom=AllCheck Guess=TCheck SCRF=Check MP4=FrzG4/GTBas3
 ---------------------------------------------------------

 Structure from the checkpoint file:  "/public/home/users/caep010/.cache/gau_scr/Gau-108301.chk"
 ------
 HACVAL
 ------
 Charge =  0 Multiplicity = 1

 SCF Done:  E(RHF) =  -680.017473160     A.U. after   12 cycles
 E2 =    -0.2437285764D+01 EUMP2 =    -0.68245475892345D+03
 Normal termination of Gaussian 09 at Fri Aug 27 17:08:13 2021.

 -----------------------------------------------------------
 #P Geom=AllCheck Guess=TCheck SCRF=Check MP2=Full/GTLargeXP
 -----------------------------------------------------------

 Structure from the checkpoint file:  "/public/home/users/caep010/.cache/gau_scr/Gau-108301.chk"
 ------
 HACVAL
 ------
 Charge =  0 Multiplicity = 1

 SCF Done:  E(RHF) =  -680.184440893     A.U. after   13 cycles
 E2 =    -0.3200797178D+01 EUMP2 =    -0.68338523807060D+03
 Normal termination of Gaussian 09 at Fri Aug 27 17:27:00 2021.
 SCF Done:  E(RHF) =  -680.238284310     A.U. after   10 cycles
 Normal termination of Gaussian 09 at Fri Aug 27 17:36:13 2021.

                         Standard orientation:
 ---------------------------------------------------------------------
 Center     Atomic      Atomic             Coordinates (Angstroms)
 Number     Number       Type             X           Y           Z
 ---------------------------------------------------------------------
      1          7           0        2.924845   -1.545291    0.072386
      2          1           0        3.578186   -2.112987    0.602867
      3          6           0        3.258141   -0.123544    0.157593
      4          6           0        2.124226   -0.691581    0.959914
      5          1           0        4.136740    0.164672    0.732682
      6          1           0        2.320541   -0.754561    2.029189
      7          6           0        3.055666    0.701820   -1.086006
      8          8           0        3.000857    2.060364   -0.678947
      9          1           0        3.895249    0.518969   -1.775774
     10          1           0        2.135472    0.385829   -1.595857
     11          1           0        2.907069    2.606067   -1.464944
     12          6           0        0.686456   -0.482922    0.627012
     13          6           0        0.077676   -1.146768   -0.443350
     14          1           0        0.671264   -1.834380   -1.033436
     15          6           0       -1.264855   -0.939297   -0.734676
     16          1           0       -1.755736   -1.446139   -1.554450
     17          6           0       -1.995254   -0.061619    0.057780
     18          6           0       -1.419338    0.609268    1.132337
     19          1           0       -2.025165    1.281298    1.724631
     20          6           0       -0.078106    0.391608    1.410178
     21          1           0        0.386542    0.909759    2.242992
     22          7           0       -3.417131    0.160651   -0.243565
     23          8           0       -3.896329   -0.436520   -1.200077
     24          8           0       -4.038507    0.930177    0.479730
 ---------------------------------------------------------------------

 SCF Done:  E(RHF) =  -680.248891146     A.U. after    8 cycles

 The electronic state is 1-A.
 Alpha  occ. eigenvalues --  -20.59373 -20.59366 -20.57018 -15.84701 -15.58073
 Alpha  occ. eigenvalues --  -11.30141 -11.29184 -11.28713 -11.28184 -11.27421
 Alpha  occ. eigenvalues --  -11.26858 -11.26819 -11.25659 -11.25214  -1.59833
 Alpha  occ. eigenvalues --   -1.39215  -1.37592  -1.29018  -1.19315  -1.09439
 Alpha  occ. eigenvalues --   -1.04561  -0.98978  -0.97834  -0.89040  -0.86122
 Alpha  occ. eigenvalues --   -0.82856  -0.79216  -0.77455  -0.74283  -0.72207
 Alpha  occ. eigenvalues --   -0.71377  -0.70566  -0.68108  -0.65414  -0.64367
 Alpha  occ. eigenvalues --   -0.63332  -0.61681  -0.59920  -0.55538  -0.54081
 Alpha  occ. eigenvalues --   -0.52787  -0.51082  -0.50068  -0.49480  -0.49016
 Alpha  occ. eigenvalues --   -0.48859  -0.46162  -0.45064  -0.42413  -0.36354
 Alpha  occ. eigenvalues --   -0.35482
 Alpha virt. eigenvalues --    0.02431   0.02921   0.03801   0.04038   0.04110
 Alpha virt. eigenvalues --    0.05221   0.05618   0.05785   0.06282   0.06486
 Alpha virt. eigenvalues --    0.07778   0.07993   0.08154   0.08625   0.08961

 Mulliken charges:
               1
     1  N   -0.520558
     2  H    0.296216
     3  C   -0.050065
     4  C   -0.085076
     5  H    0.185377
     6  H    0.207404
     7  C   -0.164608
     8  O   -0.581003
     9  H    0.158328
    10  H    0.158879
    11  H    0.377330
    12  C    0.278770
    13  C   -0.245059
    14  H    0.260399
    15  C   -0.189235
    16  H    0.266993
    17  C    0.027395
    18  C   -0.171874
    19  H    0.263856
    20  C   -0.318936
    21  H    0.206324
    22  N    0.516850
    23  O   -0.438807
    24  O   -0.438901
 Sum of Mulliken charges =  -0.00000

 Dipole moment (field-independent basis, Debye):
    X=              6.4078    Y=             -0.5971    Z=              0.7385  Tot=              6.4778
 Quadrupole moment (field-independent basis, Debye-Ang):
   XX=            -97.6597   YY=            -81.9269   ZZ=            -74.8754
   XY=             -0.3772   XZ=             -2.4844   YZ=             -4.3785

 Normal termination of Gaussian 09 at Fri Aug 27 18:36:53 2021.
