 Gaussian 09, Revision E.01,
 Gaussian 09:  ES64L-G09RevE.01 30-Nov-2015

 ----------------
 #P G4 OPT=calcfc
 ----------------

 ------
 HABMAZ
 ------
 Symbolic Z-matrix:
 Charge =  0 Multiplicity = 1

 SCF Done:  E(RB3LYP) =  -622.458132532     A.U. after   16 cycles
 SCF Done:  E(RB3LYP) =  -622.570707436     A.U. after   14 cycles
 SCF Done:  E(RB3LYP) =  -622.637155508     A.U. after   15 cycles
 SCF Done:  E(RB3LYP) =  -622.638612554     A.U. after   16 cycles
 SCF Done:  E(RB3LYP) =  -622.647874431     A.U. after   14 cycles
 SCF Done:  E(RB3LYP) =  -622.648857332     A.U. after   14 cycles
 SCF Done:  E(RB3LYP) =  -622.646524570     A.U. after   17 cycles
 SCF Done:  E(RB3LYP) =  -622.649016765     A.U. after   13 cycles
 SCF Done:  E(RB3LYP) =  -622.649233013     A.U. after   14 cycles
 SCF Done:  E(RB3LYP) =  -622.649662571     A.U. after   13 cycles
 SCF Done:  E(RB3LYP) =  -622.649758929     A.U. after   10 cycles
 SCF Done:  E(RB3LYP) =  -622.649760396     A.U. after    8 cycles
 SCF Done:  E(RB3LYP) =  -622.649760538     A.U. after    8 cycles
 Optimization completed.
    -- Stationary point found.
 Normal termination of Gaussian 09 at Fri Aug 27 12:08:43 2021.

 ----------------------------------------------------------
 #P Geom=AllCheck Guess=TCheck SCRF=Check B3LYP/GTBas3 Freq
 ----------------------------------------------------------

 Structure from the checkpoint file:  "/public/home/users/caep010/.cache/gau_scr/Gau-218569.chk"
 ------
 HABMAZ
 ------
 Charge =  0 Multiplicity = 1

 SCF Done:  E(RB3LYP) =  -622.649760538     A.U. after    1 cycles

  Exact polarizability: 159.653   1.467 111.165   0.004   0.002  46.441
 Approx polarizability: 268.198   7.509 196.624   0.006   0.001  75.206

                      1                      2                      3
                      A                      A                      A
 Frequencies --     45.3412                66.7561                92.2220
 Red. masses --     12.0914                 1.0704                 5.1662
 Frc consts  --      0.0146                 0.0028                 0.0259
 IR Inten    --      0.1182                 0.1129                 0.0782

                      4                      5                      6
                      A                      A                      A
 Frequencies --    143.2880               164.0489               232.0089
 Red. masses --      4.6857                 5.9334                 5.4513
 Frc consts  --      0.0567                 0.0941                 0.1729
 IR Inten    --      0.0076                 3.1320                 0.0867

                      7                      8                      9
                      A                      A                      A
 Frequencies --    305.3461               329.5098               336.4292
 Red. masses --      4.0281                 7.0006                 5.5651
 Frc consts  --      0.2213                 0.4478                 0.3711
 IR Inten    --      3.0797                 2.2955                 1.1115

                     10                     11                     12
                      A                      A                      A
 Frequencies --    415.1245               431.1870               471.0739
 Red. masses --      6.6854                 3.0428                 6.0386
 Frc consts  --      0.6788                 0.3333                 0.7895
 IR Inten    --      1.0578                11.0189                 1.5975

                     13                     14                     15
                      A                      A                      A
 Frequencies --    529.6342               607.7070               667.3223
 Red. masses --      4.3753                 2.9320                 1.1813
 Frc consts  --      0.7231                 0.6380                 0.3099
 IR Inten    --     11.6273                 2.2751                74.6386

                     16                     17                     18
                      A                      A                      A
 Frequencies --    684.1012               733.7074               746.3760
 Red. masses --      8.1059                 4.6701                 6.5370
 Frc consts  --      2.2351                 1.4812                 2.1456
 IR Inten    --      0.0194                 6.4209                 5.8121

                     19                     20                     21
                      A                      A                      A
 Frequencies --    794.8982               799.0051               800.8376
 Red. masses --     12.5560                 9.6034                 1.2711
 Frc consts  --      4.6744                 3.6122                 0.4803
 IR Inten    --      7.1589                14.0865                27.3430

                     22                     23                     24
                      A                      A                      A
 Frequencies --    845.5151               894.6405               932.1841
 Red. masses --      7.0807                 1.3565                 1.2703
 Frc consts  --      2.9824                 0.6397                 0.6504
 IR Inten    --     10.5859                12.9745                 1.1260

                     25                     26                     27
                      A                      A                      A
 Frequencies --    955.1107              1019.7382              1059.2123
 Red. masses --      3.8287                 1.8307                 2.9169
 Frc consts  --      2.0579                 1.1216                 1.9281
 IR Inten    --     23.6106                34.7990                32.1638

                     28                     29                     30
                      A                      A                      A
 Frequencies --   1062.0799              1149.4799              1181.3944
 Red. masses --      1.5653                 1.5413                 2.6084
 Frc consts  --      1.0403                 1.1999                 2.1449
 IR Inten    --      5.3075                 2.7627                67.7802

                     31                     32                     33
                      A                      A                      A
 Frequencies --   1229.1886              1274.1089              1295.7417
 Red. masses --      3.1933                 2.6335                 2.3383
 Frc consts  --      2.8427                 2.5188                 2.3131
 IR Inten    --     36.2042                97.8031                87.4487

                     34                     35                     36
                      A                      A                      A
 Frequencies --   1341.6150              1351.4187              1412.5369
 Red. masses --      4.4473                 3.3339                 1.2490
 Frc consts  --      4.7164                 3.5874                 1.4683
 IR Inten    --    710.3161                45.2792                 0.3601

                     37                     38                     39
                      A                      A                      A
 Frequencies --   1474.2144              1480.8885              1502.7297
 Red. masses --      1.2905                 1.0437                 2.3087
 Frc consts  --      1.6525                 1.3485                 3.0716
 IR Inten    --      0.3491                 6.6179                94.9891

                     40                     41                     42
                      A                      A                      A
 Frequencies --   1533.0338              1540.4395              1616.3113
 Red. masses --      3.4029                 3.0638                 7.2573
 Frc consts  --      4.7120                 4.2835                11.1706
 IR Inten    --    256.2993               258.0925               107.8910

                     43                     44                     45
                      A                      A                      A
 Frequencies --   1638.2657              1673.2607              3037.7013
 Red. masses --      2.4904                 6.7345                 1.0380
 Frc consts  --      3.9382                11.1093                 5.6434
 IR Inten    --    198.6666               222.9403                11.8158

                     46                     47                     48
                      A                      A                      A
 Frequencies --   3092.5274              3136.5104              3190.9437
 Red. masses --      1.0992                 1.1003                 1.0632
 Frc consts  --      6.1940                 6.3776                 6.3782
 IR Inten    --      8.8354                 7.8704               207.8656

                     49                     50                     51
                      A                      A                      A
 Frequencies --   3217.5505              3244.9425              3278.6040
 Red. masses --      1.0893                 1.0960                 1.0902
 Frc consts  --      6.6441                 6.7993                 6.9046
 IR Inten    --      0.1721                 0.9571                10.5941

 - Thermochemistry -
 -------------------
 Temperature   298.150 Kelvin.  Pressure   1.00000 Atm.
 Atom     1 has atomic number  8 and mass  15.99491

 Molecular mass:   169.04874 amu.
 Principal axes and moments of inertia in atomic units:
                           1         2         3
     Eigenvalues --  1173.051192548.960713710.84383
           X            0.99908   0.04287   0.00000
           Y           -0.04287   0.99908   0.00000
           Z           -0.00000  -0.00000   1.00000
 This molecule is an asymmetric top.
 Rotational symmetry number  1.
 Warning -- assumption of classical behavior for rotation
           may cause significant error
 Rotational temperatures (Kelvin)      0.07384     0.03398     0.02334
 Rotational constants (GHZ):           1.53850     0.70803     0.48634
 Zero-point vibrational energy     365206.8 (Joules/Mol)
                                   87.28652 (Kcal/Mol)
 Warning -- explicit consideration of  14 degrees of freedom as
           vibrations may cause significant error
 Vibrational temperatures:     65.24    96.05   132.69   206.16   236.03
          (Kelvin)            333.81   439.32   474.09   484.05   597.27
                              620.38   677.77   762.02   874.35   960.13
                              984.27  1055.64  1073.87  1143.68  1149.59
                             1152.23  1216.51  1287.19  1341.20  1374.19
                             1467.17  1523.97  1528.09  1653.84  1699.76
                             1768.53  1833.16  1864.28  1930.28  1944.39
                             2032.32  2121.06  2130.67  2162.09  2205.69
                             2216.35  2325.51  2357.10  2407.45  4370.57
                             4449.45  4512.73  4591.05  4629.33  4668.74
                             4717.17

 Zero-point correction=                           0.139100 (Hartree/Particle)
 Thermal correction to Energy=                    0.149587
 Thermal correction to Enthalpy=                  0.150531
 Thermal correction to Gibbs Free Energy=         0.101877
 Sum of electronic and zero-point Energies=           -622.510661
 Sum of electronic and thermal Energies=              -622.500174
 Sum of electronic and thermal Enthalpies=            -622.499230
 Sum of electronic and thermal Free Energies=         -622.547884

                     E (Thermal)             CV                S
                      KCal/Mol        Cal/Mol-Kelvin    Cal/Mol-Kelvin
 Total                   93.867             38.689            102.401
 Electronic               0.000              0.000              0.000
 Translational            0.889              2.981             41.283
 Rotational               0.889              2.981             30.785
 Vibrational             92.090             32.727             30.333
 Vibration     1          0.595              1.979              5.011
 Vibration     2          0.598              1.970              4.247
 Vibration     3          0.602              1.955              3.612
 Vibration     4          0.616              1.910              2.760
 Vibration     5          0.623              1.887              2.503
 Vibration     6          0.653              1.792              1.863
 Vibration     7          0.696              1.664              1.387
 Vibration     8          0.712              1.617              1.262
 Vibration     9          0.717              1.603              1.229
 Vibration    10          0.779              1.437              0.909
 Vibration    11          0.792              1.402              0.855
 Vibration    12          0.828              1.314              0.735
 Vibration    13          0.885              1.184              0.588
 Vibration    14          0.967              1.015              0.437

 Normal termination of Gaussian 09 at Fri Aug 27 12:11:04 2021.

 -----------------------------------------------------------------
 #P Geom=AllCheck Guess=TCheck SCRF=Check CCSD(T,E4T,FrzG4)/GTBas1
 -----------------------------------------------------------------

 Structure from the checkpoint file:  "/public/home/users/caep010/.cache/gau_scr/Gau-218569.chk"
 ------
 HABMAZ
 ------
 Charge =  0 Multiplicity = 1

 SCF Done:  E(RHF) =  -618.990975494     A.U. after   15 cycles
 E2 =    -0.1811524820D+01 EUMP2 =    -0.62080250031444D+03
 CCSD(T)
 CCSD(T)= -0.62091178419D+03
 620.8319777\CCSD(T)=-620.9117842\RMSD=5.120e-09\PG=C01 [X(C6H7N3O3)]\\
 Normal termination of Gaussian 09 at Fri Aug 27 13:07:43 2021.

 ---------------------------------------------------------
 #P Geom=AllCheck Guess=TCheck SCRF=Check MP4=FrzG4/GTBas2
 ---------------------------------------------------------

 Structure from the checkpoint file:  "/public/home/users/caep010/.cache/gau_scr/Gau-218569.chk"
 ------
 HABMAZ
 ------
 Charge =  0 Multiplicity = 1

 SCF Done:  E(RHF) =  -619.009487840     A.U. after   14 cycles
 E2 =    -0.1835101407D+01 EUMP2 =    -0.62084458924762D+03
 Normal termination of Gaussian 09 at Fri Aug 27 13:31:25 2021.

 ---------------------------------------------------------
 #P Geom=AllCheck Guess=TCheck SCRF=Check MP4=FrzG4/GTBas3
 ---------------------------------------------------------

 Structure from the checkpoint file:  "/public/home/users/caep010/.cache/gau_scr/Gau-218569.chk"
 ------
 HABMAZ
 ------
 Charge =  0 Multiplicity = 1

 SCF Done:  E(RHF) =  -619.059000922     A.U. after   12 cycles
 E2 =    -0.2168603809D+01 EUMP2 =    -0.62122760473026D+03
 Normal termination of Gaussian 09 at Fri Aug 27 16:38:47 2021.

 -----------------------------------------------------------
 #P Geom=AllCheck Guess=TCheck SCRF=Check MP2=Full/GTLargeXP
 -----------------------------------------------------------

 Structure from the checkpoint file:  "/public/home/users/caep010/.cache/gau_scr/Gau-218569.chk"
 ------
 HABMAZ
 ------
 Charge =  0 Multiplicity = 1

 SCF Done:  E(RHF) =  -619.214099467     A.U. after   14 cycles
 E2 =    -0.2834138890D+01 EUMP2 =    -0.62204823835728D+03
 Normal termination of Gaussian 09 at Fri Aug 27 16:56:46 2021.
 SCF Done:  E(RHF) =  -619.264710127     A.U. after   10 cycles
 Normal termination of Gaussian 09 at Fri Aug 27 17:02:30 2021.

                         Standard orientation:
 ---------------------------------------------------------------------
 Center     Atomic      Atomic             Coordinates (Angstroms)
 Number     Number       Type             X           Y           Z
 ---------------------------------------------------------------------
      1          8           0        0.315973    2.563058   -0.000061
      2          7           0       -0.452108    1.429944    0.000004
      3          6           0        0.215223    0.216231    0.000055
      4          6           0       -1.787468    1.576404   -0.000031
      5          1           0       -2.132002    2.601155   -0.000084
      6          7           0        1.533145    0.435856    0.000022
      7          7           0        2.420052   -0.613797   -0.000016
      8          8           0        2.020509   -1.782519   -0.000073
      9          1           0        1.226125    2.147205    0.000197
     10          8           0        3.597016   -0.286008    0.000015
     11          6           0       -0.622126   -0.927070    0.000086
     12          6           0       -1.999269   -0.813504    0.000068
     13          1           0       -0.133785   -1.887318    0.000100
     14          6           0       -2.591889    0.468971    0.000015
     15          1           0       -3.666705    0.594845    0.000028
     16          6           0       -2.872085   -2.040268    0.000000
     17          1           0       -3.524305   -2.052517    0.880048
     18          1           0       -2.276497   -2.954756    0.000951
     19          1           0       -3.522747   -2.053461   -0.881512
 ---------------------------------------------------------------------

 SCF Done:  E(RHF) =  -619.274401218     A.U. after    7 cycles

 The electronic state is 1-A.
 Alpha  occ. eigenvalues --  -20.63876 -20.57297 -20.57095 -15.85876 -15.72431
 Alpha  occ. eigenvalues --  -15.59599 -11.38080 -11.34076 -11.30894 -11.27138
 Alpha  occ. eigenvalues --  -11.26355 -11.26052  -1.59384  -1.50872  -1.37562
 Alpha  occ. eigenvalues --   -1.29232  -1.24510  -1.13960  -1.08491  -1.00063
 Alpha  occ. eigenvalues --   -0.96402  -0.88989  -0.83317  -0.78277  -0.77140
 Alpha  occ. eigenvalues --   -0.75030  -0.72300  -0.70535  -0.69346  -0.67966
 Alpha  occ. eigenvalues --   -0.67093  -0.63484  -0.61174  -0.59784  -0.57459
 Alpha  occ. eigenvalues --   -0.55316  -0.54038  -0.52114  -0.48310  -0.47839
 Alpha  occ. eigenvalues --   -0.45077  -0.44052  -0.41153  -0.34044
 Alpha virt. eigenvalues --    0.02046   0.02895   0.03394   0.04581   0.05489
 Alpha virt. eigenvalues --    0.05625   0.05826   0.06104   0.06529   0.07062
 Alpha virt. eigenvalues --    0.07673   0.08247   0.08437   0.09285   0.09761

 Mulliken charges:
               1
     1  O   -0.498372
     2  N    0.012375
     3  C    0.417657
     4  C   -0.045699
     5  H    0.251843
     6  N   -0.520189
     7  N    0.559999
     8  O   -0.476894
     9  H    0.452746
    10  O   -0.423970
    11  C   -0.227897
    12  C    0.307883
    13  H    0.268283
    14  C   -0.253864
    15  H    0.228654
    16  C   -0.648637
    17  H    0.202090
    18  H    0.191908
    19  H    0.202083
 Sum of Mulliken charges =  -0.00000

 Dipole moment (field-independent basis, Debye):
    X=             -8.6928    Y=              1.1081    Z=              0.0003  Tot=              8.7631
 Quadrupole moment (field-independent basis, Debye-Ang):
   XX=            -75.5751   YY=            -68.7942   ZZ=            -70.3188
   XY=              5.1416   XZ=              0.0009   YZ=              0.0005

 Normal termination of Gaussian 09 at Fri Aug 27 17:37:17 2021.
